
100070  0.0000000e+00
  61.2267542  66.4416552  49.0604782  61.0710716  66.3409424  48.0676413
  61.9033432  67.1637869  49.2625999  60.4182482  66.8635654  49.4945335
  61.5928221  65.1955032  49.6023941  60.8272648  64.4735765  49.3180561
  62.9351473  64.6680212  49.1870165  63.1538820  65.2665901  48.3027172
  63.8331747  64.7566986  49.7983932  62.6833248  63.2110929  48.7816095
  61.9808292  62.4480104  49.4632196  63.2588673  62.7871990  47.7138948
  63.1487465  61.8347120  47.3964834  63.7859964  63.4225702  47.1320534
  61.4990282  65.2493000  51.1451578  61.4967060  66.3425827  51.7012978
  61.5281200  64.1170406  51.7617512  61.7384338  63.3189678  51.1795568
  61.8719387  63.9852715  53.1252480  61.0874891  64.4224262  53.7430143
  61.9157171  62.4836349  53.5215664  62.4538183  62.1317577  52.6413774
  62.5315952  62.3533773  54.4114161  60.5790138  61.7261028  53.6221266
  60.0571489  61.9112396  52.6832533  60.9910774  60.2286434  53.7247133
  61.5416908  59.8563910  52.8607988  61.6682625  60.0454044  54.5589495
  60.0749207  59.6380901  53.7235928  59.8442030  62.0357275  54.8805141
  60.4611635  61.6366053  55.6856012  59.6285152  63.0779600  55.1157522
  58.8661623  61.5726376  55.0112295  63.1622219  64.6601915  53.4833050
  63.9364862  64.9193573  52.6000738  63.4613037  64.8738480  54.7688341
  62.8420305  64.4453049  55.4418516  64.7615385  65.3582191  55.2257633
  65.2816868  65.8193779  54.3861914  64.6414280  66.5177298  56.2400961
  65.4053974  67.2951937  56.2383938  63.7419367  67.1076679  56.0640478
  64.3679571  66.0558510  57.5515985  63.4464121  66.2870312  57.6891136
  65.6996441  64.2729473  55.8332825  65.2317381  63.1354856  55.9993076
  66.9965410  64.4718981  56.1438704  67.8349876  65.6204319  55.7904100
  67.7825880  66.3599396  56.5894651  67.6111507  66.0083628  54.7966766
  69.1882849  65.0110865  55.8267450  69.9669600  65.7659769  55.9358644
  69.2590475  64.4528866  54.8931980  69.1997814  63.9384413  56.9014883
  69.3818855  64.3303537  57.9021597  69.9908876  63.2009792  56.7658329
  67.7475262  63.4404564  56.7895222  67.7704191  62.6787567  56.0101700
  67.1864700  62.9670763  58.0876350  67.0640135  61.7545176  58.2908106
  66.9128418  63.8162136  59.0184498  67.1425104  64.7786093  58.8155746
  66.3359022  63.4207726  60.2737665  67.0189524  62.7451134  60.7885742
  66.0676479  64.6484089  61.2203646  66.9583130  65.1875067  61.5431547
  65.3275299  65.3173304  60.7811975  65.4965305  64.3152618  62.7107430
  64.7528362  63.5217428  62.6376486  66.6297817  63.8353252  63.5947323
  67.4644089  64.5360279  63.5721302  66.4404917  63.9709091  64.6595716
  66.9324064  62.8227806  63.3277559  64.8604822  65.5332375  63.3420372
  63.9452028  65.8104324  62.8190327  64.6710396  65.2944469  64.3885565
  65.5900002  66.3417768  63.2954884  65.0268078  62.6551390  60.0878811
  64.7113371  61.6974878  60.7842684  64.2336607  63.0671310  59.0964890
  64.6407509  63.8191271  58.5590172  62.8785372  62.5794268  58.8774061
  62.3456287  62.2981119  59.7856903  62.1170235  63.6093235  58.0926514
  62.8529453  64.0853500  57.4446440  61.3175201  63.0961275  57.5583029
  61.5994978  64.7063589  59.0838480  60.9638071  64.1286182  59.7548246
  62.3002243  65.1779413  59.7728252  60.7576418  65.7779884  58.2631397
  59.5040321  65.7560492  58.3979845  61.3806677  66.5710878  57.5070858
  62.9492903  61.2016487  58.1535959  62.0074129  60.4175854  58.2162762
  64.0227985  60.9954691  57.4342775  64.6878481  61.7520761  57.3610830
  64.4344282  59.7137976  56.8467283  63.6151648  59.1735172  56.3723803
  65.5949116  59.9375296  55.7288265  66.5108442  60.3821278  56.1180496
  65.9028530  58.9855337  55.2964211  64.9417162  60.7282162  54.7410059
  64.7492456  61.5783739  55.1432371  64.9844265  58.7203693  57.9045820
  64.6400595  57.5085020  57.8610563  65.8095789  59.1059971  58.9059305
  66.2253046  60.0261831  58.8830519  66.1709261  58.2090425  60.0246286
  66.7257547  57.3322392  59.6907473  67.0686340  58.9057684  61.0423756
  68.0408430  59.1020632  60.5902863  66.5550470  59.8313189  61.3025475
  67.2830105  58.1540775  62.3669529  66.3229561  57.9945612  62.8578234
  68.1003714  56.8404913  62.2135496  68.9351273  57.0179081  61.5354633
  68.4975576  56.4368296  63.1448984  67.4794149  56.0125303  61.8714952
  68.1549215  59.0464830  63.1761217  67.9737616  60.1115370  63.0313826
  67.9845285  58.7756062  64.2180872  69.2007494  58.9739799  62.8776407
  64.9225426  57.5921583  60.7254744  64.9379921  56.3747978  60.9654760
  63.9473438  58.4389639  61.0271263  64.1191196  59.4063425  60.7930803
  62.6968908  58.0700731  61.6362000  62.9295254  57.5856590  62.5845242
  61.8514633  59.3504381  61.8121052  62.4240541  59.9935484  62.4804211
  61.7140388  59.9280643  60.8980131  60.9002686  59.0984249  62.2809649
  61.9485235  56.9773912  60.8246183  61.5119410  55.9965944  61.4492178
  61.8626022  57.2112751  59.5224333  62.2968483  58.0147219  59.0911484
  61.4232254  56.1956167  58.6327553  60.4008532  55.9985161  58.9552498
  61.3312054  56.7603827  57.2175837  61.0414886  57.8064871  57.3167419
  62.2883177  56.7148018  56.6980076  60.2026463  56.1206579  56.4241171
  60.1961803  54.8426151  55.9264469  61.0565853  54.1902113  55.9044886
  58.9354324  54.4125080  55.4767370  58.6966133  53.5774469  54.9612331
  58.0735064  55.4471827  55.7077646  56.6489220  55.5033112  55.6949806
  56.0277939  54.7009850  55.3250265  56.0348511  56.6816330  56.1294222
  54.9614477  56.6477060  56.2436819  56.7103624  57.7854395  56.6859627
  56.2057066  58.6663008  57.0544767  58.1296682  57.6595259  56.8366051
  58.7271500  58.4893417  57.1842003  58.8164473  56.5066576  56.3753986
  62.0589066  54.7824526  58.7906504  61.3850164  53.7708426  59.0893173
  63.4013510  54.7471094  58.6480951  63.9114809  55.5886841  58.4208822
  64.2654896  53.5539961  58.8999271  64.0150166  52.8295755  58.1249619
  65.7455111  53.7913179  58.6664391  66.2196064  54.4255352  59.4155073
  66.2868690  52.8454351  58.6848116  65.9562874  54.3685484  57.3303175
  65.4335070  53.8365507  56.5354729  65.4688644  55.3433514  57.3134947
  67.3723412  54.4817209  56.9069672  68.3612537  54.2904615  57.5807476
  67.5657368  54.8324823  55.6888676  68.4992313  54.9137402  55.3119230
  66.8621540  55.1448774  55.0350475  64.1297150  52.8926754  60.3670931
  64.2723274  51.7275333  60.4743624  63.8949823  53.7495136  61.3838005
  63.6001825  54.6724844  61.0986328  63.5180283  53.2431841  62.6949644
  64.1469002  52.4079943  63.0033159  63.6536312  54.3948174  63.7661362
  63.1712055  55.3539801  63.5780478  63.0558300  54.0632343  65.1401711
  63.4443569  54.8131132  65.8292484  61.9916582  54.0927696  64.9061346
  63.3709097  53.0936003  65.5256987  65.1660967  54.6430731  63.9715862
  65.5587339  53.7533951  64.4639301  65.6194830  54.8175383  62.9958248
  65.3397083  55.5474758  64.5546818  62.0876026  52.7187061  62.7138567
  61.8590498  51.5442848  63.1898880  61.0857725  53.4017754  62.0883608
  61.2661314  54.3004227  61.6640949  59.7476625  52.8894281  62.0070839
  59.3069029  52.6326180  62.9703522  58.8632488  53.8241959  61.2814474
  58.9170885  54.7267151  61.8902636  59.2365599  53.9939833  60.2715349
  57.2960091  53.5373640  61.3404942  57.2233057  52.5214100  60.9523535
  57.0057154  53.4512043  62.3875904  56.3519478  54.3939018  60.5749083
  56.4952755  55.4286003  60.8862877  56.5906477  54.2887831  59.5165777
  54.8984575  53.9824629  60.8568096  54.6994877  54.2130184  61.9034052
  54.1668892  54.5927906  60.3272820  54.4346285  52.5739527  60.5453539
  54.5546675  52.3093224  59.5780611  54.9479485  51.9027758  61.0986423
  53.4578466  52.6225758  60.7976103  59.6947479  51.5275574  61.2747812
  59.0652037  50.6166792  61.8031025  60.4133844  51.4261055  60.1602840
  60.8239937  52.2343016  59.7149467  60.6301737  50.1535892  59.3823051
  59.6767712  49.8400593  58.9570761  61.7283297  50.4360628  58.2721949
  62.4729300  51.0626173  58.7632179  62.1919203  49.5062351  57.9426289
  61.0983706  51.4696741  56.9913292  60.3353930  50.4619217  56.5586805
  60.9221411  48.9093304  60.2300119  60.1305151  48.0060482  60.1474094
  61.8396568  48.9325523  61.1757326  62.3312664  49.7995758  61.3390827
  62.2576475  47.7246332  61.9101143  62.2568369  46.8448639  61.2666035
  63.7303734  47.8675795  62.3917818  64.2915869  48.2209158  61.5267420
  63.6340141  48.6988878  63.0901623  64.2896795  46.6290522  62.9942560
  63.6469173  46.4042807  63.8453913  64.3265581  45.3844547  62.1328402
  64.6702099  44.5576429  62.7544451  63.3039904  45.1490688  61.8378019
  65.0311613  45.3653860  61.3014030  65.6854391  46.9604301  63.5073996
  65.6421185  47.5760984  64.4058323  66.2145567  46.0436392  63.7674713
  66.1559772  47.5221634  62.7004576  61.2721062  47.4707699  63.0287981
  60.9509659  46.3415194  63.1757927  60.6973457  48.5190153  63.6509991
  60.9336185  49.4740582  63.4225988  59.6484184  48.3923864  64.7343254
  60.0140953  47.6092911  65.3985119  59.5052099  49.7256041  65.4389858
  59.2023897  50.4378462  64.6714449  58.8422108  49.5482492  66.2857866
  60.8563375  50.2737713  66.0396147  61.5592575  50.5869150  65.2676439
  60.5861807  51.5276814  66.8990707  60.1992273  51.2681913  67.8844786
  61.5632248  51.9309902  67.1652031  59.9891996  52.1987820  66.2815475
  61.4975643  49.1908169  66.9163609  60.7865477  48.7176132  67.5935841
  61.9975758  48.4144449  66.3372707  62.2531366  49.6988916  67.5155830
  58.2943249  47.8993750  64.1703320  57.4949598  47.2079229  64.8070383
  57.9718208  48.2332897  62.9410791  58.6094427  48.8384581  62.4437809
  56.8242121  47.7683496  62.1692467  55.8862209  48.1816721  62.5399685
  56.8739128  48.1834126  60.5935431  57.0774221  49.2528677  60.5392599
  57.6458406  47.6287317  60.0601101  55.4909658  48.0456114  60.0009251
  55.0935793  47.0822811  60.3205776  54.8592615  48.8119078  60.4501915
  55.2577448  48.1925058  58.5077047  55.5990410  49.1673279  58.1593561
  55.8908987  47.4339342  58.0474997  53.8090420  47.9289007  58.1870079
  53.5891104  46.8619728  58.1497192  53.2030916  48.2926989  59.0168095
  53.4006214  48.6111641  56.9444513  53.9499283  48.2606077  56.1727810
  52.4363375  48.3833790  56.7485523  53.5260534  49.6084213  57.0436668
  56.6078329  46.2351513  62.3229980  55.5147409  45.7907486  62.7618885
  57.6555920  45.5315781  61.9977331  58.5808754  45.9175730  61.8753910
  57.6058531  44.0787077  61.7542601  56.5951633  43.7971544  61.4587259
  58.5656500  43.8006687  60.6147385  59.3967390  44.5034504  60.5557060
  58.9713621  42.8000784  60.7641363  57.9564142  43.8198757  59.2516518
  58.0518579  44.9986267  58.4301662  58.6319685  45.7861757  58.8880253
  57.4813890  45.0285339  57.1325874  57.6135588  45.9349728  56.5604830
  56.6567516  43.9580536  56.6549635  55.9087658  44.0976191  55.5395126
  55.3958321  44.8909235  55.7102823  56.5484381  42.7986050  57.4475384
  55.9021091  42.0153522  57.0798779  57.2421408  42.7231836  58.7076616
  57.1128988  41.8147469  59.2772627  57.8959846  43.1865740  63.0105972
  57.4572039  42.0393276  63.0974245  58.4638929  43.8061237  64.0537882
  58.5632181  44.7969818  63.8851500  58.8218975  43.2074308  65.3303909
  59.4624949  42.3384571  65.1799822  59.5698643  44.2724943  66.1739254
  60.5100870  44.5206261  65.6814766  58.8870430  45.1057768  66.3397789
  59.9260569  43.7343550  67.4476099  60.8715916  43.8588428  67.5574732
  57.4290466  42.9327154  66.0433102  56.5140915  43.7476540  65.8843899
  57.3480415  41.9257689  66.8792057  58.1475878  41.3221169  67.0074224
  56.2276506  41.7976809  67.8632927  55.4361153  42.5390720  67.7541208
  55.5971241  40.3529549  67.7078962  56.3329411  39.5959568  67.9792356
  54.2440081  40.2173710  68.3891392  53.5313082  40.7821608  67.7881670
  53.8427591  39.2072296  68.4710979  54.3324518  40.5450106  69.4249582
  55.3340960  40.0925112  66.3226843  56.1596203  39.8552823  65.8939266
  56.7704773  41.8512106  69.2754555  56.0591459  41.9858313  70.2469254
  58.0814219  41.8082905  69.4063997  58.5979986  41.6076326  68.5620165
  58.7810755  42.0778465  70.6854916  58.2412720  41.5498161  71.4715528
  60.2573681  41.7194366  70.4075623  60.6255341  42.2166634  69.5101643
  61.0966730  42.0239019  71.6234970  62.1324253  41.7663193  71.4022303
  61.0376501  43.0829573  71.8745327  60.5520296  41.5155554  72.4191427
  60.2955294  40.3142357  70.2816629  61.1796618  40.0950575  69.9785519
  58.6342478  43.5692024  71.1349058  58.4533215  43.9256477  72.3464918
  58.4839344  44.4373035  70.1323414  58.4950733  44.1752291  69.1569948
  58.0405951  45.7942295  70.3545237  58.6041307  46.2670374  71.1588812
  58.4436464  46.6075611  69.1294622  59.5079994  46.3839769  69.0569019
  57.9136753  46.2958288  68.2294226  58.3642387  48.1283569  69.2526102
  57.4009705  48.9252520  68.8036537  56.5767908  48.6399841  68.1666708
  57.6304722  50.2007723  69.2799950  57.0538759  50.9365225  68.8974953
  58.8492537  50.3443241  69.8623848  59.6040106  51.4470863  70.3510284
  59.2479610  52.4654579  70.4014921  60.8546972  51.2265730  70.9024858
  61.4201593  52.0809555  71.2440825  61.2870359  49.9063063  71.1433077
  62.2134876  49.7448111  71.6743517  60.5563736  48.8260603  70.6170082
  60.9048033  47.8532171  70.9309769  59.3573523  48.9718342  69.9132442
  56.5406752  45.9137011  70.8070326  55.6254482  45.3349781  70.3166580
  56.3713217  46.7829323  71.8107700  57.1793079  47.2629452  72.1806955
  55.0823784  47.1722984  72.4539852  54.3427849  46.4345455  72.1428108
  55.2859545  47.0553684  73.9667416  56.2023020  47.5606108  74.2719221
  54.3927336  47.5011921  74.4043541  55.3905916  45.5811310  74.4657421
  56.2802982  45.1449251  74.0115976  55.3707457  45.5220652  75.5539560
  54.1422749  44.7344255  74.0326929  53.3311462  45.3292465  74.4526482
  54.0735340  44.6048880  72.9525948  53.9880896  43.4632492  74.8134708
  54.9622202  43.0018377  74.9755478  53.5744286  43.6424923  75.8058691
  53.0524635  42.4665880  74.2123222  53.4977913  41.9736767  73.4515190
  52.8076553  41.7319775  74.8607969  52.2245407  42.9519558  73.8975811
  54.7035456  48.6056376  71.9879580  55.1379156  49.5637417  72.6880836
  54.0487671  48.9009523  70.8249378  53.8664579  47.8681707  69.7678947
  53.2678127  47.0216751  70.1043081  54.8236561  47.4172306  69.5061302
  53.2050180  48.6442423  68.6790895  52.1200657  48.6035204  68.7756300
  53.6671829  48.2355165  67.7805090  53.7539625  50.1792049  68.8646889
  53.1409979  50.9991646  68.4904671  54.7351551  50.2723551  68.3991909
  53.8226986  50.2362204  70.3255081  54.5967817  50.9016800  70.7076836
  52.5119972  50.9195709  70.8014202  51.6017771  50.1969576  71.1553907
  52.4480057  52.2088718  70.8026695  53.2514095  52.7795839  70.5814648
  51.2460041  52.8635263  71.3544273  51.1716270  52.4693489  72.3679352
  51.5562868  54.3566608  71.3441467  52.4914932  54.3914223  71.9029713
  51.7741823  54.6194935  70.3089952  50.5530977  55.3082275  72.0644999
  49.6010494  55.1868200  71.5478134  50.4664516  54.8939657  73.5271454
  49.8746443  55.6185865  74.0864277  49.9471998  53.9421988  73.6394882
  51.4921713  54.8411465  73.8921213  51.0214710  56.7251253  71.9708729
  50.2393246  57.4809504  72.0421362  51.6027164  56.9414330  72.8672361
  51.6588926  56.8635368  71.0975838  50.0371456  52.5864983  70.6111050
  50.0889635  52.6736116  69.3999481  48.9006519  52.4058437  71.2321711
  48.8976240  52.5187397  72.2358370  47.5802135  52.3350000  70.4922152
  47.4982166  51.3527060  70.0269461  46.5563583  52.3423195  71.5897894
  46.7591667  51.5775061  72.3394775  46.4522028  53.2872725  72.1230030
  45.2280140  52.0698595  70.9815884  44.5669222  52.9197025  70.4734707
  44.7975540  50.8605957  70.8707047  43.9454603  50.7499170  70.3398705
  45.4280090  50.1333094  71.1767721  47.3366594  53.5166979  69.5193291
  47.2477579  54.6056747  70.0669861  47.2245407  53.3178902  68.2013988
  47.3553419  52.0421505  67.4161005  46.4059973  51.5102148  67.3537827
  48.0602837  51.3905907  67.9324579  47.8904057  52.4271250  66.0289240
  47.5842714  51.7111826  65.2661562  48.9586067  52.6054764  66.1523724
  47.1741724  53.7697315  65.8927011  46.1344767  53.5996246  65.6130600
  47.6013660  54.3761492  65.0940323  47.1861076  54.4682693  67.2371101
  48.0915070  55.0726891  67.2921371  46.0246086  55.4414320  67.4680281
  46.1201334  56.5285826  67.0028496  44.9129581  54.9928427  68.1154871
  45.0252151  54.0931273  68.5604668  43.7454510  55.7543945  68.4701538
  43.5399866  56.3730383  67.5965595  42.5564766  54.7671556  68.5257816
  42.6138544  54.0217304  67.7325916  42.6430559  54.2560625  69.4846296
  41.2127924  55.5356169  68.4426212  41.0482359  56.5713358  67.8160572
  40.2748680  55.0538683  69.2852354  39.3885303  55.5380201  69.2750216
  40.4020834  54.1108370  69.6237755  43.8268709  56.6409254  69.7357082
  42.9692650  57.4790096  70.0464678  44.9114227  56.4813662  70.5021572
  45.5976152  55.7880211  70.2404118  45.2703619  57.2145319  71.7466688
  44.6314716  56.9914150  72.6011467  46.6410494  56.8952036  72.1873903
  46.6672516  55.8232641  72.3832560  47.3813057  57.0592546  71.4043140
  46.9855309  57.6476288  73.4228802  46.7289591  57.1690607  74.2145538
  45.1121330  58.7563181  71.6067219  45.6565523  59.3241310  70.6419659
  44.4365358  59.3220901  72.6263618  44.1227722  58.7048244  73.3616400
  44.1980886  60.7600307  72.9452801  43.4836531  61.1813593  72.2380495
  43.7067080  60.9006882  74.3770361  43.4264231  61.9365263  74.5682859
  42.7954435  60.3519821  74.6149969  44.7224331  60.4535913  75.4154015
  44.7358704  59.2479038  76.0374641  44.0832376  58.4383154  75.7458353
  45.7600880  59.2520618  76.8703890  46.0671329  58.3681345  77.2505140
  46.2500620  60.5326986  77.1171665  47.1552658  61.0353374  78.0421782
  47.6298761  60.3478813  78.7266874  47.4904633  62.3991823  77.9754829
  48.2670259  62.7596855  78.6338043  47.0341921  63.1884336  76.8853569
  47.2662592  64.2280722  76.7073298  46.0302973  62.6745224  76.0544586
  45.5396509  63.2551575  75.2872992  45.5997705  61.3141060  76.1431742
  45.5561018  61.5606499  72.7246189  45.4138088  62.6383209  72.1739817
  46.7579794  61.1125088  72.9371977  46.7590332  60.1287556  73.1659746
  48.0567265  61.6909885  72.6113939  48.0080462  62.6069546  73.2002354
  49.1092014  60.7279634  73.0230665  48.8508940  59.7798777  72.5513554
  50.1198387  60.9678650  72.6926756  49.2375612  60.5748367  74.5729303
  48.2388067  60.4636478  74.9951077  49.9641371  59.2464876  74.8806667
  50.9665155  59.1225624  74.4708157  49.9382353  59.1740513  75.9679508
  49.4368029  58.3366537  74.5939112  49.9287415  61.8266773  75.1899862
  49.0791416  62.3449039  75.6346560  50.5684710  61.4963150  76.0083437
  50.4590225  62.3821402  74.4164515  48.1399918  62.0644426  71.1524248
  48.6985350  63.1174421  70.7916594  47.6771021  61.2178707  70.2394629
  47.4301243  60.2680826  70.4782152  47.6578236  61.6455746  68.7836123
  48.6407852  62.0241547  68.5033083  47.3408365  60.4304171  67.9138708
  46.4135838  60.0360346  68.3295298  47.2494698  60.8499193  66.9119883
  48.3752060  59.3039942  67.9889059  49.6759939  59.6066761  67.4655676
  49.9170017  60.4823256  66.8811369  50.7625628  58.7839937  67.7300167
  51.6944838  58.9372969  67.2061682  50.5815744  57.6033449  68.4507465
  51.4755249  56.6142273  68.3517265  52.4097157  56.7574549  68.5201979
  49.3330431  57.2413254  68.9218807  49.1339636  56.2281179  69.2383957
  48.1992245  58.1486559  68.7359619  47.1754360  57.9530430  69.0187931
  46.6027689  62.6795530  68.3852863  46.9119453  63.6525154  67.6644564
  45.3696012  62.4995852  68.8968325  45.2212811  61.6641140  69.4446373
  44.2190456  63.3457661  68.5847950  44.0479898  63.5293293  67.5240660
  42.9396391  62.6352596  69.1802883  43.1766844  62.3748684  70.2118444
  42.0186996  63.2182980  69.1737223  42.6820183  61.3542604  68.3875847
  42.5184059  61.2747192  67.0043850  42.2589207  60.0257874  66.6996384
  41.9793940  59.7220516  65.7016373  42.2181892  59.3523216  67.8409195
  41.9200420  58.3943081  67.9567575  42.4757528  60.1540661  68.8874340
  42.5782967  59.9385834  69.9407387  44.2878580  64.7393608  69.2030382
  43.8240147  65.6777143  68.6145258  45.0025368  64.8292685  70.3666878
  45.4624891  64.0110064  70.7395077  45.3883696  66.0759163  71.0072851
  44.5271873  66.7309141  70.8752203  45.6961298  65.7757616  72.5106859
  44.8105335  65.5566645  73.1072044  46.4688063  65.0078297  72.5473976
  46.0881805  66.6925001  72.9511309  46.5908241  66.7817354  70.2618074
  47.0860624  67.7630949  70.7800770  47.0421410  66.3488913  69.0681505
  46.5346909  65.6181288  68.5900402  48.0904150  67.0377254  68.2685995
  48.3027697  66.5414429  67.3216486  47.6203966  68.5018110  67.8974628
  47.4786282  69.0685558  68.8176775  48.4428978  69.0147161  67.3989582
  46.4252949  68.4753656  67.0178890  46.6697550  67.6992130  66.2926817
  45.5658150  68.2484150  67.6486778  46.2661648  69.7789145  66.2656784
  46.2915182  70.5585098  67.0270538  47.1556330  69.9060822  65.6486082
  45.0687647  69.9457502  65.3713655  44.1594839  69.8468685  65.9642649
  45.0490475  70.9549379  64.9599600  45.0838852  69.0064573  64.2020607
  44.9330759  68.0640697  64.5326233  44.3359566  69.1684723  63.5429335
  45.9943867  69.1203642  63.7800264  49.4848490  66.9187975  68.9366055
  50.4227734  67.6003933  68.6149597  49.6126509  66.0004425  69.9314213
  48.9151001  65.2740860  70.0083971  50.9333420  65.7950735  70.6583595
  51.4354134  66.7601156  70.5896521  50.6065226  65.4919338  72.1235418
  50.0834513  64.5356750  72.1152544  51.6047525  65.4562759  72.5598526
  49.7627878  66.4982128  72.9616976  48.8366175  66.6292953  72.4021244
  49.5023394  65.8443928  74.2571545  48.9989328  66.6241074  74.8287535
  48.8523197  64.9867773  74.0837431  50.2849483  65.3924656  74.8665667
  50.3583050  67.9195929  73.0199480  49.6351051  68.5705566  73.5112047
  51.2622404  67.8658962  73.6266804  50.6896400  68.3445644  72.0724678
  51.8954992  64.7582197  70.0867224  53.0123186  64.6462917  70.5713463
  51.3698721  64.0378809  69.0688753  50.3645897  64.0674925  68.9759636
  52.0901299  63.0803299  68.1766987  53.0813503  63.4984875  68.0014133
  52.2334909  61.6122293  68.7179995  51.1973047  61.2801266  68.7822676
  52.6525593  60.9181309  67.9895020  52.9863262  61.3906336  70.0193644
  52.5528383  62.0826578  70.7413721  52.7695894  59.9199581  70.4663372
  53.2927179  59.7137165  71.4000940  51.7287922  59.6080303  70.5532265
  53.2207680  59.2545700  69.7302675  54.4876432  61.7228222  69.9101734
  55.0785065  60.9679747  69.3913317  54.6043825  62.7347326  69.5222187
  54.7540045  61.7817926  70.9654808  51.3354492  63.0505753  66.8160677
  50.1329660  63.1790447  66.7316484  52.0907879  62.8209925  65.7445908
  53.0674028  62.6750612  65.9567928  51.6438389  62.6351070  64.3429661
  50.7307768  62.0415592  64.2969418  51.3298273  63.9012480  63.7350941
  50.5600929  64.3460035  64.3658066  52.2070980  64.5360041  63.8599539
  50.9750128  63.8836479  62.2051477  50.6111383  62.8311348  61.6633892
  51.0831118  64.9178505  61.5105915  52.6289463  61.7544842  63.5109425
  53.6344528  62.2637463  63.0824852  52.2683859  60.4398918  63.2163048
  51.3799191  59.6292830  64.0367842  50.3576469  59.7556114  63.6802864
  51.4423800  59.8381662  65.1047611  51.8536520  58.1539917  63.7575912
  50.9969616  57.4891424  63.8678885  52.6102352  57.9609823  64.5181370
  52.4592924  58.2206678  62.4248695  51.7284632  58.0841637  61.6277790
  53.1724119  57.4284649  62.1968937  53.1118965  59.5946121  62.3356724
  54.0448189  59.5056581  62.8923082  53.3336449  60.0870752  60.9103203
  54.2504406  59.5688486  60.2527285  52.4955845  61.0004807  60.4648066
  51.8201065  61.2775564  61.1627054  52.6116705  61.6751671  59.1448545
  53.0406666  60.9052515  58.5035324  51.2798786  62.1552944  58.6668825
  51.2641048  62.1910715  57.5775862  50.6070328  61.3716984  59.0152407
  50.9222031  63.4793234  59.0042210  50.7141829  63.4948254  59.9412870
  53.6369419  62.8582573  59.1784096  54.0746403  63.2854652  58.0915022
  54.1883898  63.1443834  60.3790283  53.6565161  62.7445221  61.1388493
  55.2243042  64.0419197  60.6893969  55.5840683  64.4388819  59.7401381
  54.6609402  65.2394009  61.4988804  54.3277597  64.7929668  62.4357796
  55.6769371  66.3812304  61.7784691  55.0386047  67.1816826  62.1525002
  56.4070511  66.1473227  62.5532675  56.1480093  66.6228151  60.8256674
  53.5680676  65.7616282  60.8822823  52.7949715  65.2282476  61.0808420
  56.4417601  63.4030914  61.4539051  56.6145182  63.5851908  62.6998854
  57.3310518  62.6417065  60.8316612  57.4057293  62.4752760  59.4035959
  58.0953789  63.2360458  59.0379238  56.4340734  62.6936769  58.9605522
  57.8172731  61.0929680  59.1329813  58.4140158  61.0048294  58.2251072
  57.0373011  60.3327370  59.1753244  58.7272549  60.7972240  60.3384209
  59.7160625  61.2405825  60.2210331  58.8702202  59.7451448  60.5849886
  57.9433632  61.4989471  61.4557886  57.1581888  60.8883858  61.9016790
  58.9074850  61.8108416  62.6367903  59.2438650  60.8157539  63.2955170
  59.4375658  63.0112553  62.9087353  59.4000387  63.8413715  62.3346233
  60.0752926  63.3248520  64.2642975  61.0393620  62.8171730  64.2337084
  60.2183151  64.9029875  64.3630552  60.6620789  65.2527142  63.4309244
  58.9339113  65.6452560  64.6809053  58.5342264  65.3199339  65.6413841
  58.9796829  66.7226982  64.8394203  58.3543634  65.3698730  63.7997770
  61.1945343  65.1023674  65.5218840  61.4991760  66.1288738  65.7257986
  60.7460022  64.8574400  66.4846563  62.0924234  64.5047045  65.3647280
  59.2714548  62.7165079  65.4751682  59.8873377  62.2929573  66.4301872
  57.9459000  62.5893307  65.4088831  57.4319029  62.9170275  64.6035719
  57.0753813  61.9142103  66.3679266  57.2473860  62.2731972  67.3826408
  55.6359291  62.3514605  66.0980129  55.4715061  62.1165180  65.0464106
  54.8917341  61.7950869  66.6678572  55.3680658  63.8755465  66.3248396
  55.3195333  64.4895124  67.5891113  55.1985836  65.7971144  67.2779417
  55.0212288  66.6078281  67.9690933  55.1935434  66.0000515  65.9694815
  55.2959824  66.8752527  65.4758930  55.2857208  64.7987890  65.3415823
  55.3070736  64.7177267  64.2648411  57.1774912  60.4169989  66.5187931
  56.8345737  59.9893856  67.6187563  57.7480507  59.6947718  65.6068134
  58.1261349  60.1645374  64.7965813  58.1992197  58.3233833  65.7957363
  57.4160862  57.6820993  66.2001562  58.6959887  57.5779009  64.5104980
  59.1410923  58.3152199  63.8424110  59.7144651  56.4553165  64.7408342
  60.6639385  56.8508005  65.1016521  59.1975069  55.8884287  65.5151081
  59.8806620  55.8473349  63.8515377  57.3973417  56.9811726  63.8087559
  57.7531147  56.2090492  63.1265879  56.7839432  56.4259148  64.5183659
  56.6028404  57.9527426  62.9019547  55.7661581  57.4203634  62.4495840
  56.2260771  58.8111591  63.4580803  57.1822691  58.1998825  62.0124149
  59.3555069  58.2793093  66.8543673  59.3209171  57.4920034  67.7822304
  60.3035784  59.2623949  66.7622805  60.2741814  59.7120905  65.8583927
  61.4484215  59.4246054  67.7134418  61.7953396  58.4183836  67.9485226
  62.5567532  60.1663876  66.9486332  62.2050238  61.1079359  66.5268755
  63.3750105  60.2528572  67.6635313  63.1496477  59.3593788  65.7756329
  62.4071503  59.0442753  65.0424814  64.2534399  60.0980616  65.0336647
  64.7976923  59.4405270  64.3557644  63.8666058  60.9495687  64.4738436
  65.0318813  60.5519438  65.6469488  63.8957500  58.1036854  66.1222792
  63.2406235  57.3494387  66.5581894  64.3188381  57.6300812  65.2363920
  64.7237635  58.3620882  66.7823792  61.1170435  60.0344086  69.0619040
  61.3991213  59.3612099  70.0777006  60.3670549  61.1263657  69.1141033
  60.1368666  61.4991713  68.2040882  59.5920658  61.5593100  70.3099823
  60.3599739  61.9081306  71.0004520  58.7079811  62.7689600  69.9645472
  57.8250504  62.3861074  69.4527245  58.3269358  63.0267191  70.9527063
  59.4023466  64.0243196  69.3611717  60.1827526  64.3008518  70.0701189
  59.9892330  63.7260580  68.4924316  58.4431791  65.1426411  69.2004251
  58.8590670  66.0481167  68.7585497  57.6424932  64.8301172  68.5301018
  57.9918528  65.5962467  70.5619097  58.7477112  65.9841871  71.1080599
  56.7631340  65.5001688  71.1661291  55.7553625  64.8464060  70.6102467
  55.8380079  64.3756914  69.7204685  54.7968817  64.8768282  70.9272432
  56.4976215  66.0337782  72.3260164  57.1967173  66.6900301  72.6433468
  55.5320358  66.1167669  72.6103687  58.7745762  60.5735254  71.0954905
  59.0348148  60.3831577  72.2951365  57.9789972  59.7722292  70.4711294
  57.9602337  59.7930002  69.4615173  57.2238922  58.6620665  71.0893869
  56.5717936  59.0640831  71.8647957  56.4170742  58.0748081  70.0141811
  55.8528042  58.8814259  69.5461369  57.1827602  57.6738453  69.3500614
  55.4082298  56.9868565  70.3903723  55.9782696  56.3463974  71.0634041
  54.6349049  57.3843861  71.0476685  54.9239349  56.2820721  69.1575432
  54.0698385  56.8634605  68.4580326  55.3980064  55.1924324  68.8152456
  58.1401396  57.5835896  71.7893124  57.8016043  57.0586634  72.8635120
  59.3589497  57.3038244  71.2891340  59.5903826  57.8107309  70.4467678
  60.4072618  56.4437962  71.8544054  59.9004269  55.5508804  72.2203493
  61.4909887  56.1631393  70.7855606  61.6123486  57.0679188  70.1899576
  62.8060484  55.7365179  71.3825274  62.6286173  55.0116348  72.1769857
  63.5068417  55.2966595  70.6729412  63.3442354  56.5381575  71.8883276
  61.0053396  55.0959349  69.8039579  61.1832666  54.1427612  70.3018713
  59.9382448  55.1367950  69.5854664  61.7957640  55.1625824  68.4762716
  61.4181089  54.3266153  67.8875208  61.7532587  56.1231470  67.9628468
  62.8526640  54.9407339  68.6240673  60.9367371  57.2225618  73.0601263
  60.8703613  56.7474318  74.1912985  61.3982248  58.4328318  72.8665400
  61.1562443  58.8155603  71.9637346  62.1845102  59.2658806  73.8893843
  63.1530857  58.8339567  74.1411686  62.3161602  60.2760172  73.5015678
  61.4332581  59.3910122  75.2036047  62.0766973  59.2924023  76.2552118
  60.1412535  59.7091293  75.0658369  59.7972345  59.8164511  74.1223145
  59.2366028  60.0151205  76.1847782  59.8049164  60.5853891  76.9195747
  58.0406666  60.9193325  75.5985594  57.4902105  60.3452063  74.8532486
  57.4134541  61.1484432  76.4600801  58.4665108  62.2794676  74.9795294
  59.1058588  61.9948053  74.1438866  57.2725630  63.0795193  74.5136547
  57.5819874  63.9121771  73.8819695  56.5269947  62.4749279  73.9972258
  56.8391371  63.5342407  75.4044199  59.2891502  63.1396294  75.8848906
  58.7639380  63.1489038  76.8399715  60.2384233  62.6156425  75.9963179
  59.3929958  64.1199780  75.4198837  58.7496853  58.7393951  76.9037437
  57.8301668  58.8079119  77.7302122  59.2779303  57.5062609  76.5158558
  60.0896883  57.5741005  75.9187412  58.8450098  56.1533546  76.9783354
  59.4973755  55.4744864  76.4291048  59.2164373  55.9189606  78.4619045
  60.2878475  56.1083078  78.5277414  58.6390495  56.5855408  79.1025209
  59.1542530  54.4769907  79.0412092  58.1623745  54.2944336  79.4546700
  59.3166208  53.7176847  78.2762289  60.1224327  54.2598677  80.1998043
  59.9877882  55.0741673  80.9117699  59.8962021  53.3404064  80.7397175
  61.5623999  54.1147709  79.8576403  61.8515396  54.1494560  78.8905334
  62.5454617  53.8912582  80.7161617  62.3770666  53.5988426  81.9918537
  61.4990377  53.7961912  82.4503422  63.2050657  53.3885193  82.5306320
  63.7699556  53.9393711  80.2978706  64.0268612  54.1824293  79.3518162
  64.3975449  53.8448858  81.0835552  57.4172211  55.6869364  76.6252851
  56.9595242  54.7186708  77.2070503  56.8026924  56.2574434  75.5947495
  57.3475122  56.9714880  75.1327848  55.3863716  55.9601688  75.1777172
  54.8339939  55.7579660  76.0953712  54.7706461  57.0979834  74.4391251
  55.3923368  57.2046614  73.5501814  53.7276030  56.8563032  74.2347860
  54.8964167  58.4817266  75.1364660  55.9669018  58.6748075  75.2063084
  54.2886686  59.6812296  74.4399738  54.6113491  60.5754995  74.9731302
  54.7751856  59.6221781  73.4663630  53.2322311  59.5389557  74.2123795
  54.3771696  58.5163212  76.6035891  53.3227444  58.2650805  76.7183208
  54.8439550  57.8793192  77.3548794  54.5278835  59.5266533  76.9838905
  55.3095007  54.6418619  74.3249989  54.3513584  53.8923264  74.3577623
  56.3973522  54.2846966  73.6174679  57.0307875  55.0297308  73.3649206
  56.5724802  52.9990625  72.9594135  55.7022953  52.3650026  73.1292629
  56.7104864  53.2184410  71.4388657  57.5116920  53.9475632  71.3182354
  57.0656872  52.3166132  70.9402275  55.4164505  53.5084629  70.9047270
  55.5385637  53.8918877  70.0331306  57.8545094  52.3210669  73.3554697
  58.9715576  52.9185438  73.3476734  57.7826452  51.0262394  73.7286854
  56.9036055  50.5309010  73.6836290  58.8746786  50.3287983  74.3597746
  59.8059607  50.8135462  74.0668106  58.8395929  50.5257463  75.9079123
  59.5477104  49.9057627  76.4577246  59.2045784  51.5475798  76.0115623
  57.4328279  50.3518867  76.5122366  56.8178320  49.1268206  76.7362499
  55.5353737  49.4353342  77.0481253  54.7543955  48.7203455  77.2609043
  55.3884840  50.7787371  76.9768763  54.5326328  51.2798309  77.1679926
  56.6069269  51.3932180  76.8252039  56.7442513  52.4370766  76.5845776
  59.1276884  48.8606310  73.9813662  58.3913136  48.1547737  73.2690477
  60.2567434  48.3599567  74.5040131  60.9443331  48.9960241  74.8818207
  60.6716681  46.9857311  74.2219877  60.1523447  46.5642023  73.3613396
  62.1660995  47.2346687  73.9957190  62.4325609  47.7236462  74.9327374
  62.3521948  47.8632593  73.1248856  62.9041624  45.5583000  73.7840748
  60.3385210  46.0006714  75.4612064  60.9574986  46.1061478  76.5315151
  59.5871353  44.9098730  75.1917887  59.1964912  44.8722267  74.2611504
  59.3293238  43.8131809  76.1194611  58.9261103  44.3024778  77.0060921
  58.2979679  42.8414869  75.4209709  58.0876923  42.0572090  76.1481571
  57.3697901  43.3565140  75.1733017  58.8328695  42.2434187  74.2586756
  58.8971901  42.8664541  73.5311508  60.5899143  43.0188656  76.5378189
  60.6157875  42.5478649  77.6660442  61.6108418  42.8788948  75.7237053
  61.5473127  43.1567192  74.7547483  62.8999138  42.2389936  76.1161900
  62.6223516  41.2648678  76.5188551  63.7338257  41.9840622  74.8256302
  63.0834532  41.6307545  74.0254498  64.1946745  42.8597736  74.3686295
  64.8114634  40.9633780  75.0302172  64.6498442  39.5558906  75.0955486
  65.8697939  38.9994669  75.0857496  66.1129189  37.9471946  75.0893021
  66.7731476  39.9887824  75.0177717  67.7667379  39.8799324  74.8727417
  66.1279631  41.2556171  74.9814081  66.5688515  42.2412443  74.9576235
  63.7126637  43.0278397  77.2186089  64.5919466  42.3691988  77.8397560
  63.5752773  44.3313742  77.2981501  62.9637671  44.7627258  76.6198492
  64.2202711  45.2168322  78.2543039  65.1427317  44.8317385  78.6888885
  64.6366835  46.3492918  77.3692417  64.8506594  47.1554184  78.0710077
  63.7974739  46.6248560  76.7305708  66.0428476  45.9597826  76.3453960
  63.2942677  45.6314802  79.3915844  63.6697626  45.4077530  80.5655766
  62.0992136  46.2083626  79.1204453  61.7990208  46.2778902  78.1585979
  61.1775494  46.7930651  80.1149082  61.5459633  46.4979601  81.0973930
  61.1891317  48.3613348  80.0174427  60.7152748  48.6793041  79.0887547
  60.5019999  49.1062021  81.1363125  59.4837952  48.7184000  81.1674404
  60.9797430  49.1038227  82.1160316  60.4584789  50.1442051  80.8065224
  62.6385260  48.9737558  80.0454426  63.2741547  48.2991552  79.4718647
  62.5978327  49.9777412  79.6229887  63.0554008  49.0737343  81.0476017
  59.7825861  46.2068653  79.7910833  59.0790319  46.7024469  78.9326859
  59.3948936  45.1045561  80.4125023  60.2345896  44.1853523  81.1957741
  60.5515432  44.7154140  82.0939255  61.1185598  43.9676905  80.5963421
  59.3776941  42.9663181  81.4476776  58.7927389  43.1604433  82.3467064
  59.9802589  42.0791483  81.6424847  58.4156990  42.9422808  80.3180981
  57.5297689  42.3307276  80.4890633  58.8860559  42.5790787  79.4043398
  58.0958939  44.4396257  80.2661705  57.6472044  44.7936583  79.3380308
  57.1614742  44.8754787  81.3794327  56.0860920  44.3040609  81.6053772
  57.5876188  45.8552647  82.2363186  58.4548855  46.3088655  81.9869041
  57.0570183  46.3037395  83.5651970  55.9952545  46.0580683  83.5853195
  57.6659393  45.5085230  84.7461987  57.6500416  44.4389915  84.5365429
  58.7335014  45.7105446  84.8333740  57.0371437  45.5889940  86.1660385
  56.8684149  46.6200686  86.4767075  56.0569906  45.1232433  86.0636806
  57.8445292  44.8182631  87.2248745  58.0308533  43.8555431  86.7488956
  58.8215685  45.3006840  87.2525787  57.1822691  44.6020937  88.6077023
  57.7639914  43.9138794  89.2209339  57.1252823  45.5584908  89.1274643
  55.8452654  43.9885569  88.4879589  55.9123421  43.0332565  88.1670284
  55.4187059  43.8577890  89.3940735  55.1553822  44.4215441  87.8907299
  57.2607946  47.7954006  83.7721920  58.4164047  48.2366753  83.9395905
  56.1993694  48.5905266  83.7401009  55.4489374  48.0084372  83.3964062
  56.0864401  50.0038338  84.0808105  56.6392231  50.1236677  85.0125694
  56.7175531  51.0201645  83.0401993  56.6122818  52.0131063  83.4773350
  57.7511692  50.6872034  82.9459667  56.0595131  51.0920191  81.6561890
  54.9758291  51.2069654  81.6790199  56.4593124  52.3836613  80.9562492
  57.5282478  52.4759436  81.1485004  56.1914444  52.2669315  79.9061394
  55.8512640  53.1042719  81.5031528  56.4414740  49.9288559  80.6893539
  56.0497904  48.9497089  80.9649944  55.9879065  50.0298357  79.7033644
  57.5167084  49.8747778  80.5189228  54.6006298  50.3188562  84.4139957
  53.6898088  49.4821835  84.2437267  54.2653275  51.5027475  84.7308731
  55.0097322  52.1853685  84.7288799  52.9324436  51.9468689  85.0061607
  52.4633503  51.0991907  85.5056572  52.8383398  53.1595469  85.9186649
  53.4659433  53.9000988  85.4228783  51.8162012  53.5118961  86.0571671
  53.4115362  52.9850006  87.3239613  54.4554234  52.6799965  87.2506523
  53.5169172  53.9980841  87.7121067  52.5436068  52.0241404  88.1481934
  52.9142284  50.8618832  88.3580494  51.5951300  52.4616623  88.7723446
  52.2335482  52.3156261  83.7249565  52.8442621  52.8079081  82.7714157
  50.8973074  52.1799898  83.6415100  49.8898411  51.6164541  84.5714664
  49.8429823  52.1650934  85.5121613  50.1531363  50.5714846  84.7351837
  48.5129642  51.6875029  83.8452816  47.9304028  52.6054764  83.9230537
  47.8987789  50.8532810  84.1843224  49.0510941  51.3487053  82.4066257
  48.2073498  51.5031910  81.7340660  49.3593597  50.3121662  82.2700500
  50.2749681  52.3406744  82.2977066  50.8876657  51.7659760  81.6031361
  49.7690916  53.7712002  81.8438816  48.9684296  54.4130087  82.5385284
  50.1274300  54.1668987  80.6261158  50.5737782  53.4403372  80.0848389
  49.6296501  55.2890253  79.8178577  50.1802683  56.0733509  80.3372383
  50.2426481  55.2662277  78.4081888  50.0014591  54.2962933  77.9732656
  49.6612835  56.4819193  77.5663090  50.2459383  56.3719702  76.6529655
  48.5945415  56.3392448  77.3936653  49.9125481  57.4426985  78.0156040
  51.7133856  55.1971006  78.4319639  52.1824980  56.1684942  78.5882759
  52.0417309  54.4094229  79.1100883  52.3246098  54.7959137  77.1659946
  53.2604265  54.3095064  77.4412346  51.6614103  54.0709448  76.6940880
  52.3612356  55.6690836  76.5145874  48.1160259  55.4825115  79.8699331
  47.4535465  54.4495583  79.8061275  47.5510597  56.6817570  80.1752853
  48.2650614  57.9446220  80.5788803  48.7655210  58.4495926  79.7526598
  49.1404104  57.9113436  81.2275410  47.1717691  58.7948513  81.2097454
  47.3119402  59.8614979  81.0344601  47.1051693  58.7330151  82.2959423
  45.7871246  58.2657766  80.6226158  45.5199289  58.8966656  79.7748661
  44.9980021  58.2168865  81.3729477  46.1368608  56.8143892  80.3000069
  45.9121656  56.1731339  81.1523056  45.4110909  56.3382101  78.9996004
  45.7655191  56.6807079  77.9002857  44.2753410  55.6263638  79.2486811
  44.0106869  55.3887701  80.1939964  43.4101725  55.2177620  78.1568050
  43.9635658  54.8198652  77.3061895  42.4649525  54.0486097  78.7415171
  41.8216181  53.4659290  78.0821943  43.0382490  53.3092022  79.3007278
  41.3738155  54.5389557  79.7192621  40.8200693  55.3227520  79.2024136
  40.6398630  53.7370014  79.7985172  41.8236732  55.0492859  81.0964584
  41.6260386  54.3070126  82.0869541  42.3717546  56.1469221  81.2386227
  42.6254463  56.3998699  77.5728893  42.1682978  56.3150930  76.4836407
  42.5026941  57.4814224  78.3652925  42.9057169  57.2989988  79.2732573
  41.9476318  58.7640667  77.9868650  42.3286247  59.0897512  77.0189381
  40.3804827  58.6719513  77.9612446  40.2302599  57.8359890  77.2780943
  40.0024557  58.5083961  78.9704323  39.6243310  59.6883059  77.2854948
  38.7858653  60.6185198  77.7945518  38.5777760  60.7487631  78.8462830
  38.3498907  61.5011358  76.7495012  37.9109597  62.4056721  76.8457127
  38.9446950  61.1726904  75.5459118  38.9133453  61.6902971  74.2531490
  38.3078361  62.5644302  74.0643311  39.4275093  60.9688568  73.1844473
  39.2718673  61.3709593  72.1942520  40.2627468  59.8473024  73.4688520
  40.8517933  59.3988514  72.6825142  40.3531075  59.3438673  74.7824335
  40.9796238  58.4914398  74.9997950  39.6380305  59.9670315  75.8459759
  42.4612093  59.8386621  78.9315176  42.7101564  59.4988155  80.0951385
  42.7012062  61.1005974  78.5369253  42.2748709  61.8050480  77.3711395
  41.2993526  61.4461184  77.0430613  43.0688000  61.5252495  76.6786909
  42.4472761  63.2635355  77.5777340  41.5370178  63.6614513  78.0262852
  42.6957464  63.8060951  76.6655970  43.6195612  63.2751513  78.4840298
  43.6622381  64.2082500  79.0458202  44.5466805  63.2101011  77.9145432
  43.4663868  62.0883179  79.3780518  44.3676710  61.5709305  79.7068310
  42.5918531  62.3063040  80.7029247  41.3418245  62.3600769  80.6365204
  43.1583261  62.3784018  81.9398975  44.5329952  62.7413321  82.0415211
  44.7559166  63.6233234  81.4410973  45.1437235  61.9074535  81.6954613
  44.8231077  63.1310892  83.4994507  44.9446917  64.2062712  83.6309910
  45.6694317  62.5865793  83.9181995  43.6212301  62.6217318  84.2603397
  43.3949661  63.3200121  85.0661373  43.6887932  61.5912342  84.6090603
  42.4990845  62.5611591  83.2002544  41.9073868  61.6659307  83.3914661
  41.5267611  63.8401318  83.3399200  41.9707298  64.8938799  82.8750992
  40.3794193  63.6995268  83.9789295  40.3493452  62.7622414  84.3540192
  39.3628812  64.7660208  84.1738224  38.8847852  64.9940777  83.2211781
  38.2016611  64.2614746  85.0696754  37.8909087  63.3603573  84.5409775
  38.5299921  63.9000845  86.0441971  36.9643068  65.2334023  85.1147747
  37.0836258  65.8772612  84.2433929  35.6507063  64.4306087  85.1413250
  35.4883099  63.9743376  84.1648293  35.7593584  63.6429644  85.8869267
  34.8980904  65.1908493  85.3503704  36.9397569  66.1179638  86.3639832
  36.6378736  65.5203581  87.2241211  37.8619313  66.6948271  86.4340591
  36.1121035  66.8258238  86.3189697  39.9575734  66.0550737  84.7837257
  39.8253226  67.1330833  84.2074966  40.7650661  65.9145832  85.8550644
  41.0121393  64.9995422  86.2039948  41.5766001  66.9226885  86.5087414
  40.8941841  67.6470423  86.9533920  42.4406576  66.3662291  87.6208115
  43.0435896  65.5226231  87.2848034  43.1048536  67.0856285  88.0997849
  41.7991066  66.0901356  88.4576416  42.4227285  67.8292990  85.5319595
  42.3756027  68.9816618  85.8181477  43.1728983  67.3456621  84.5134640
  43.2227468  66.3411522  84.4208145  43.9554310  68.1114483  83.5339165
  43.9622831  69.1784477  83.7565708  45.4740763  67.6867914  83.6245632
  45.5037308  66.6680431  83.2380772  46.0106993  68.3529186  82.9489803
  45.8961439  67.9169846  84.9585152  46.0153389  67.0588112  85.3719521
  43.3959198  67.9746199  82.0755291  44.0974092  68.1495571  81.0374928
  42.0765686  67.8279400  81.9096184  41.5801287  67.7021313  82.7801514
  41.3573408  67.6898193  80.6768894  41.7147732  68.5148382  80.0607014
  41.7064476  66.3979006  79.9168968  42.7845001  66.3143873  79.7793102
  41.3473988  65.5280542  80.4669380  40.9621382  66.5177870  78.2580757
  39.9072933  65.8640385  78.7528849  39.8344612  67.9698086  80.7800674
  39.3663406  69.0640450  80.4386234  39.0496564  66.9447660  81.0611153
  39.4728518  66.0281610  81.0320663  37.5983834  66.9447422  81.1327839
  37.2984934  66.2100983  81.8800831  37.3011303  67.9560375  81.4103317
  36.8838882  66.7394400  79.7408485  36.2935448  67.7195883  79.2226791
  36.8039560  65.5973482  79.0728188  37.1616983  64.7672367  79.5234156
  36.0168362  65.3943777  77.7933216  35.0832200  65.9569216  77.7914667
  36.9341660  65.8863831  76.6551781  37.3756385  66.8360043  76.9575453
  38.0992866  64.9251509  76.4153051  38.9611602  65.3331470  75.8872747
  38.5718107  64.6578264  77.3604822  37.8030539  64.0041351  75.9132338
  36.2504005  66.0702753  75.3054047  35.4145122  66.7674780  75.3628302
  36.9835067  66.5319443  74.6439505  35.8252072  65.1999140  74.8056173
  35.4815817  63.9542723  77.6018810  36.1835670  63.0143929  78.0222607
  34.2776799  63.7233782  76.9823408  33.2100892  64.5627546  76.4723921
  33.4621310  65.4471540  75.8872318  32.5316477  64.7172308  77.3114109
  32.4595737  63.7793064  75.4245901  32.9207373  63.9605474  74.4537258
  31.3975525  63.9720678  75.2727604  32.6119900  62.3981047  75.9199667
  32.5449038  61.6372871  75.1423073  31.8041301  62.2201586  76.6297531
  33.9840245  62.3735666  76.5317392  33.9591646  61.6545868  77.3506117
  34.9827385  61.8361330  75.5245018  35.4078579  62.6273775  74.6914959
  35.2385807  60.4750586  75.3691196  34.4560385  59.5338392  76.1630583
  33.4500456  59.4896173  75.7457781  34.3942118  59.8173189  77.2137356
  35.1079893  58.2080603  75.9048939  34.4680190  57.5650072  75.3007269
  35.3951502  57.6730824  76.8101263  36.2900591  58.4685850  74.9663877
  36.4642334  57.6361275  74.2846394  37.1433115  58.7065268  75.6015635
  36.0061097  59.7881746  74.3059254  36.8933654  60.3366089  73.9895344
  35.1757050  59.6632242  73.0117559  34.7369432  58.5996962  72.6540899
  35.0390577  60.7332993  72.2896099  35.6204557  61.4944220  72.6101780
  34.4024587  60.6547832  70.9918213  34.5826292  61.6689873  70.6354094
  35.0689864  59.7195435  69.9916220  34.6717048  58.7196255  70.1660728
  34.8679280  59.9814987  68.9528465  36.5616727  59.4684982  70.1017332
  37.4715638  60.4504299  69.7077608  37.0918679  61.3527203  69.2515707
  38.8716674  60.2965164  69.7705650  39.5310283  61.0123539  69.3023539
  39.3246102  59.0292454  70.2404165  40.3557205  58.7116718  70.2890539
  38.4061646  58.0565071  70.6739712  38.7207389  57.1190548  71.1082935
  37.0388079  58.2365704  70.5977249  36.3932014  57.4816418  71.0216093
  32.8343797  60.4502630  71.0851288  32.2191858  59.6574783  70.3278303
  32.2069669  61.1422157  71.9957304  32.6602697  61.8648815  72.5364494
  30.7967949  60.9101820  72.2746086  30.2294827  60.5061054  71.4361668
  30.7745695  59.8078918  73.3941317  31.4823079  60.0956011  74.1715813
  29.7954750  59.8574972  73.8705873  30.9965038  58.3264017  73.0937004
  30.0773501  57.8627968  72.7354717  31.8339753  58.1043911  72.4322987
  31.3041043  57.4961281  74.3980789  31.0489345  57.8444433  75.5401802
  31.7558599  56.2495852  74.2805624  31.9354534  55.6814861  75.0961065
  31.9325566  55.8278084  73.3800173  30.0511861  62.1288967  72.8471613
  30.7121921  63.1057835  73.1474400  28.7262917  62.1124029  73.0201054
  28.1890512  61.2767029  72.8382301  28.0351543  63.2534361  73.6138630
  28.3290410  64.1525221  73.0722141  26.4833879  62.9635811  73.5555220
  26.3329244  61.8842602  73.5786390  25.9238219  63.3273125  74.4173145
  25.8688068  63.5133505  72.2417831  26.5311909  64.2967510  71.8735027
  25.9026504  62.6585150  71.5663481  24.4202232  63.8068914  72.4381399
  23.8020515  62.9585648  72.7319241  24.3082142  64.5648193  73.2134485
  23.9678192  64.4359446  71.0683537  24.5021915  65.3669596  70.8792734
  24.2485476  63.7405586  70.2773237  22.5442529  64.6928787  70.9967518
  21.9401479  63.9596462  71.3395834  22.2802877  65.5319643  71.4930964
  22.2358441  65.0351810  70.0979662  28.3918595  63.4183502  75.0609541
  28.3449316  62.4434996  75.7930899  28.7512326  64.6468782  75.5270243
  28.8589358  65.8871508  74.7882128  27.9292488  66.2011242  74.3136597
  29.7057366  65.8931923  74.1019249  29.1138411  67.0104599  75.8083010
  28.1384182  67.3160410  76.1868095  29.6788597  67.8585672  75.4215574
  29.9544525  66.2100649  76.8808270  30.1314998  66.6782618  77.8490973
  30.9406543  66.0228920  76.4559937  29.1442037  64.8938513  76.9689131
  29.7557282  64.0922356  77.3830986  27.8793621  64.9971247  77.8517199
  27.2388482  66.0163450  78.0616856  27.4091053  63.8508368  78.3820343
  27.9894137  63.0259991  78.3273888  26.1353850  63.8023615  79.0760469
  25.3804088  64.4400692  78.6162138  25.4522276  62.3438644  79.0052366
  26.1712909  61.7527008  79.5723152  24.4630146  62.3529768  79.4629192
  25.3354931  61.8145037  77.5959873  26.3634229  61.7843056  77.2346687
  24.8039579  60.3697348  77.7042770  25.1523876  59.8539972  76.8094540
  25.2220249  59.7990084  78.5334921  23.7159348  60.3340578  77.7593613
  24.4229937  62.7237940  76.7562246  24.9919510  63.6378765  76.5863943
  24.2009926  62.1435022  75.8606339  23.5026598  62.8929949  77.3152065
  26.1507988  64.2997742  80.5164528  25.1068330  64.6833134  81.0421753
  27.3163748  64.5435333  81.0846615  28.1087899  64.4874144  80.4609394
  27.5357151  64.9049711  82.5093365  26.6532803  64.4680500  82.9767799
  28.7148023  64.1973400  83.1197929  28.7708998  64.3378162  84.1992474
  28.7284756  62.6820278  82.9347706  28.4310102  62.2199249  83.8760853
  28.1587553  62.3112106  82.0827007  29.6970916  62.2523737  82.6792622
  29.9380493  64.7251272  82.7004433  30.5334663  64.4399309  83.3973980
  27.5124431  66.3502550  82.8527927  27.7304697  66.6976213  84.0143490
  27.3300767  67.0754862  81.7990112  27.0331073  66.6139317  80.9511375
  27.4631119  68.5236740  81.7176914  27.0542479  68.6756706  80.7187748
  26.6361451  69.2421389  82.7785683  25.5638003  69.0826893  82.6656342
  27.0567536  69.0259552  83.7606335  26.8508697  70.6357193  82.5006104
  26.3145590  71.0830021  83.1593227  28.9107370  68.9249372  81.6580868
  29.6396923  68.6167574  82.6124191  29.2725730  69.7812366  80.7043839
  28.6463618  70.0185013  79.3759346  27.6423335  70.4174900  79.5202732
  28.4891510  69.0966654  78.8159323  29.5751166  70.9162521  78.6371899
  29.0809536  71.6011381  77.9481077  30.3377938  70.2770710  78.1923676
  30.3176332  71.6613197  79.8114920  29.6191597  72.3760653  80.2466679
  31.2261820  72.1969128  79.5362139  30.5431581  70.5660629  80.7824707
  31.3738418  69.9528170  80.4331875  30.8425140  71.0349226  82.2023773
  31.9623256  70.8432245  82.6472187  29.8483062  71.5131283  82.9232311
  28.9282274  71.3272715  82.5503826  30.0294852  72.1243000  84.2450619
  30.8515692  72.8350830  84.1609955  28.6671495  72.7618074  84.5611954
  28.8458967  73.4978867  85.3449917  28.2650256  73.3908558  83.7670326
  27.6418352  71.8590355  84.9613571  26.7402267  72.1131849  84.7513294
  30.4709721  71.1997557  85.3853321  30.8643985  71.6522074  86.4928532
  30.3372908  69.8754978  85.2066803  29.8237467  69.5345116  84.4066143
  30.8449316  68.8365126  86.1216259  30.8557081  69.1760254  87.1573448
  29.9449015  67.5448036  86.2279129  28.9305758  67.8640413  85.9884644
  30.1999021  66.9001722  85.3867722  29.9950242  66.9055367  87.6239681
  30.9522986  67.2346067  88.0282497  29.1506267  67.2572565  88.2167530
  29.7746229  65.3781939  87.6557159  30.2190852  64.9671364  86.7493057
  30.2636862  65.0313520  88.5660076  28.3394766  65.0358772  87.6307201
  27.7815270  65.8738041  87.7123547  27.7001667  63.8697052  87.5258732
  28.2626724  62.6530170  87.4330807  29.2449260  62.5156927  87.6239109
  27.7201104  61.8283129  87.2195339  26.4404011  63.8801050  87.6068592
  25.9973240  64.7793674  87.4839306  25.9050727  63.0563593  87.3723984
  32.3182487  68.4442043  85.6491470  33.2835793  68.5767412  86.3490677
  32.4992180  68.1359100  84.3680382  31.6892862  68.0416393  83.7720394
  33.7941623  67.9175568  83.7194824  34.1751385  66.9509506  84.0490627
  33.5162830  67.8921509  82.2124958  32.8741908  68.7308693  81.9434834
  34.4267225  68.0286360  81.6289043  32.8251195  66.6000509  81.6981506
  31.9294548  66.3558149  82.2693157  32.3030543  66.8824482  80.2092457
  31.9142342  65.9312963  79.8456097  31.4684391  67.5832033  80.1877117
  33.0592084  67.3490334  79.5778751  33.7809753  65.3551579  81.6389561
  33.2549500  64.4116449  81.4934254  34.4899559  65.4246378  80.8139515
  34.3271899  65.3109550  82.5811863  34.8274279  69.0132666  83.9759445
  35.9542370  68.7072468  84.4286633  34.3905497  70.2490711  83.9028263
  33.4281015  70.3363466  83.6092567  35.1842928  71.4886379  84.1039944
  36.2339902  71.2073183  84.1882420  35.1478815  72.5145960  82.9003429
  35.9356260  73.2645226  82.9722691  35.2907109  72.0296860  81.9346523
  33.8055587  73.0478907  82.9860783  33.1935334  72.3103714  82.9304600
  34.8958683  72.2091436  85.4353046  35.2379584  73.3797455  85.6038380
  34.1788769  71.5735483  86.4425468  33.9215636  70.6290197  86.1940479
  33.8396692  72.0620489  87.7566338  32.9578352  72.6968718  87.6701736
  33.4685898  70.8423805  88.6127472  32.5591755  70.3893614  88.2179832
  34.3192744  70.1635551  88.6730480  32.9019856  71.3729239  89.9379158
  33.5172701  72.1863508  90.3224373  31.9477701  71.8832779  89.8071098
  32.6729035  70.2432251  91.0184765  32.0518899  70.5522966  91.8592644
  32.0810533  69.4386721  90.5820179  34.0018415  69.7807503  91.6389370
  34.7266293  70.4813623  91.5762711  34.2644143  68.8158560  92.5023079
  35.4269385  68.8160753  93.1276035  36.0997701  69.5068121  92.8271294
  35.8133912  68.0131674  93.6030960  33.4774256  67.8478050  92.8664780
  32.4778104  67.9239464  92.7437210  33.6475730  67.4469328  93.7777710
  34.8971677  72.8859520  88.3838081  34.6354175  74.0000200  88.7071609
  36.0911679  72.3838615  88.4890079  36.1704755  71.4172554  88.2070827
  37.2031736  72.9739237  89.2723179  36.7628026  73.6612701  89.9946308
  37.8844070  71.7619085  89.9350452  38.3726573  71.1255455  89.1969681
  38.7107706  72.2096634  90.4870796  36.9343328  70.9372616  90.8119678
  37.1782994  69.6949005  90.8364868  36.2344122  71.4810705  91.7225266
  38.2996035  73.7794352  88.5037327  39.1172910  74.3694639  89.1704941
  38.2182717  73.8217974  87.1798992  37.4511147  73.2026339  86.9603348
  39.2008352  74.2061520  86.2532997  40.1855421  73.7966394  86.4785767
  38.8999391  73.7374878  84.8536396  37.8773069  73.9579248  84.5474815
  39.5429206  74.1190672  84.0605068  38.9072037  72.2245789  84.7199535
  38.4221268  71.6605234  83.5600090  38.8305998  70.3758621  83.5581684
  38.4735918  69.7224379  82.7758789  39.4870687  70.1168346  84.7456455
  39.7748303  69.1820049  84.9974251  39.5711708  71.2789869  85.4713249
  40.0631762  71.5014648  86.4066505  39.5745015  75.7111502  86.3457394
  40.7027149  76.1670923  86.1500263  38.6283445  76.5399837  86.7184925
  37.6638842  76.2415695  86.6890335  38.8215089  77.9376221  87.0850658
  39.2381048  78.4410810  86.2126637  37.4859428  78.6627674  87.2073174
  36.8576837  78.0811119  87.8818989  37.7238035  79.6007156  87.7090931
  36.9899392  78.8192654  86.2494087  39.7433329  78.0476093  88.3018494
  40.1718807  79.1823673  88.5666275  39.9829268  77.0433807  89.1323185
  39.6117496  76.1274815  88.9238548  40.8493900  77.1715546  90.2654076
  40.7140684  78.1911659  90.6262016  40.4330873  76.2676620  91.4658928
  41.0555696  76.4729071  92.3368073  38.9789748  76.5441704  91.8882942
  38.6820579  77.5917864  91.9376850  38.2971787  76.0292959  91.2114143
  38.8204384  76.0819960  92.8626537  40.6649542  74.9101210  91.1149025
  39.8836493  74.6474171  90.6228065  42.3039675  76.9832706  89.9439812
  43.1695890  77.3346519  90.7307434  42.6497269  76.4973927  88.7487411
  41.9593000  76.1241341  88.1130600  44.0196514  76.2315369  88.2872105
  44.5586300  75.8452606  89.1523075  44.0480614  75.1093531  87.1738815
  43.5645342  75.5568361  86.3055134  45.0957584  74.9862957  86.8994904
  43.2494974  73.8525057  87.4404144  42.3463774  74.1476154  87.9746342
  42.8018093  73.1604815  86.1628151  42.1774006  72.3758888  86.5901566
  42.2850370  73.8209581  85.4665279  43.7026644  72.6783276  85.7832241
  43.9869976  72.8932524  88.3358192  43.3372498  72.0182467  88.3528614
  44.9342203  72.5419521  87.9265976  44.0887976  73.3536482  89.3185520
  44.8278999  77.4103212  87.9852486  44.2408466  78.4773827  87.7952099
  46.1578655  77.3480320  87.9875565  46.5685225  76.4788818  88.2974625
  46.9662523  78.4475994  87.3662281  46.7004013  79.4166756  87.7884960
  48.3923292  78.1714153  87.8246307  48.8247204  79.1673708  87.7286434
  48.4812784  78.0234003  88.9008617  49.2037058  77.2736740  86.9232845
  49.6332884  77.6866007  85.8314610  49.1037321  76.0225010  87.1493244
  49.6836329  75.3356791  86.6887951  48.7726736  75.6885576  88.0431843
  46.6784191  78.5848522  85.8450603  46.6116524  77.6234770  85.0606728
  46.4595222  79.8105192  85.4149914  46.7421055  80.5516911  86.0402298
  45.9307528  80.3030205  84.1314316  44.8414898  80.2784729  84.1631603
  46.1682749  81.3606644  84.0170860  46.3850117  79.5496607  82.8706360
  45.5768299  79.2937851  81.9392586  47.6276588  79.2638016  82.8252220
  48.2395458  79.8020124  83.4219074  48.3525419  78.4350395  81.8025017
  48.4199858  78.8980341  80.8180237  49.7798443  78.4650326  82.2972298
  50.3731728  77.9463720  81.5441990  50.1395941  79.4924593  82.3527145
  49.9930477  78.0255699  83.2716560  47.8545952  77.0115805  81.7298603
  47.5005341  76.5264606  80.6435013  47.7442503  76.2833881  82.8955269
  47.9390097  76.6931677  83.7978840  47.1999454  74.9568558  83.0038452
  47.7308941  74.3604803  82.2618580  47.4276638  74.3141937  84.3277454
  48.4883595  74.4525814  84.5372200  46.8383026  74.9141550  85.0211430
  46.9596004  72.9033661  84.5786762  45.8728552  72.9875326  84.5796108
  47.4857044  71.9741631  83.5199261  47.0806313  72.2930861  82.5595570
  48.5589409  72.1606827  83.4816360  47.1914864  70.9360933  83.6746693
  47.4589109  72.4127054  85.8678818  47.0641232  73.0116796  86.6885376
  47.2615194  71.3560247  86.0483456  48.5486650  72.3923063  85.8788395
  45.6839943  75.1502848  82.7114773  45.0985432  74.2674446  82.0526123
  44.9869776  76.2545109  83.0614090  45.4458618  76.9165993  83.6706448
  43.5885620  76.3509560  82.7256489  43.0258417  75.4863262  83.0776119
  42.9578161  77.5180674  83.4064960  43.1354904  77.4064589  84.4761086
  43.4947634  78.4217215  83.1180477  41.4389181  77.5416899  83.0895233
  41.1146307  76.5483856  82.7792263  40.8121300  77.6567364  83.9738274
  40.9223604  78.5088825  81.9834995  41.6164875  79.4111633  81.5527725
  39.6553087  78.4639215  81.5499401  39.3431187  79.3924236  81.3039303
  38.9488959  77.8182173  81.8726635  43.4086561  76.5118933  81.2102604
  42.5645494  75.8538342  80.5688381  44.2803144  77.2903442  80.4994583
  44.9146271  77.8263617  81.0742855  44.3023586  77.4955559  79.0484190
  43.3373499  77.7495623  78.6098385  45.1697350  78.6176729  78.6162043
  44.9607420  79.6069860  79.0232420  46.1464834  78.4155893  79.0557957
  45.2688122  78.7595415  77.1424389  44.2934799  79.4238663  76.4252710
  43.4942579  79.8726463  76.9964457  44.3382215  79.4518757  75.0224972
  43.5991287  79.8823118  74.3630552  45.4214525  78.7687206  74.4159698
  45.4986429  78.7310982  73.3393908  46.4182806  78.0851078  75.1312971
  47.2160149  77.6075554  74.5817757  46.3560772  78.1312799  76.5229034
  47.0431566  77.5838280  77.1510983  44.6848011  76.1963892  78.3323050
  43.9089537  75.8284998  77.4908257  45.7925940  75.5204344  78.7272835
  46.3197041  75.8296347  79.5314312  46.0413742  74.1812754  78.2363605
  46.1883450  74.2249632  77.1571970  47.2742224  73.5527611  78.9171124
  47.1213531  73.5914946  79.9956465  47.3018169  72.5020361  78.6284590
  48.1709528  74.0695572  78.5752106  44.8323822  73.2126856  78.3872986
  44.6039152  72.4757290  77.4346304  44.3698406  73.0803871  79.6125317
  44.6625376  73.7677145  80.2922440  43.2904863  72.1559048  79.9656916
  43.6127663  71.1163330  79.9062538  42.9194641  72.3287487  81.4133835
  42.7816010  73.3714104  81.6996384  41.6371870  71.6667938  81.8382645
  40.7480097  72.0654821  81.3498688  41.6344070  70.7127905  81.3110352
  41.5592575  71.6205215  82.9244900  43.9272547  71.8048382  82.2139645
  44.4560432  72.5990057  82.3201752  42.0975590  72.3686838  79.0698671
  41.6368294  71.4110041  78.4731340  41.6179800  73.6323881  78.8155365
  42.0237350  74.3383694  79.4130802  40.5696535  73.9578342  77.8855419
  39.7836614  73.3061790  78.2672119  40.2521515  75.4481840  78.1082296
  39.9388695  75.5016947  79.1508675  41.1110830  76.0782766  77.8773212
  39.1920018  75.9204245  77.1684456  39.5678496  76.3430166  76.2366438
  38.4913778  75.0943947  77.0463896  38.3657813  77.0850229  77.8434086
  37.5277638  77.4774313  77.2673559  37.9188037  76.6537094  78.7391138
  39.2253232  78.2398605  78.3041239  38.5927987  78.9756393  78.8007545
  39.9944234  77.8606796  78.9770412  39.8178697  78.9850473  77.1192980
  40.2240181  79.8303032  77.4943924  40.5070734  78.3937311  76.6772079
  39.1300917  79.1003895  76.3887119  41.0281801  73.6825275  76.4015579
  40.3254080  72.9577780  75.6958628  42.3022461  73.9933157  76.0843134
  42.8991890  74.4495535  76.7593002  42.9107285  73.9513826  74.7325325
  42.2623348  74.4883013  74.0401316  44.3079329  74.5211172  74.7730589
  44.2026329  75.5796862  75.0106525  44.7803926  74.0600538  75.6404114
  45.1559210  74.3951178  73.5061932  46.1491537  74.8301697  73.6171579
  45.4211760  73.3626461  73.2787037  44.5795631  75.0621557  72.3296118
  43.6365128  75.8509207  72.3128557  45.1665926  74.7776890  71.1851072
  44.9020576  75.2500057  70.3324413  46.0199118  74.2470264  71.2867975
  43.0258608  72.5097179  74.1938496  42.6893044  72.2703314  73.0304003
  43.4682560  71.5347004  75.0427055  43.6743832  71.8943357  75.9637213
  43.4645367  70.0955772  74.6768904  43.8820744  70.0380754  73.6716747
  44.3673468  69.3696070  75.6488800  43.9255905  69.4801188  76.6391993
  44.2859173  68.3175659  75.3756094  45.8871222  69.8531532  75.7313585
  46.0316610  70.8553839  76.1347771  46.6156149  68.8706636  76.7066431
  47.6170683  69.2679453  76.8720436  46.0951090  68.9087009  77.6635838
  46.6268492  67.8455973  76.3362169  46.6538477  69.6329784  74.4145107
  46.2986803  70.5179977  73.8865805  47.7323198  69.7165251  74.5487356
  46.4612389  68.6464024  73.9930010  42.1285295  69.5176888  74.6247435
  41.8206692  68.7893009  73.6749220  41.2270403  69.7618961  75.5767488
  41.3810301  70.3489542  76.3840580  39.9160028  69.1749096  75.5297089
  39.9453759  68.1118679  75.2905798  39.1536283  69.4388485  76.8238163
  38.1781697  68.9533138  76.7948151  39.7948551  69.0373945  77.6085234
  39.0767574  70.8795691  77.1326733  39.9400830  71.0994720  77.4903202
  39.1251588  69.6634054  74.3338680  38.4940362  68.8964415  73.6671114
  39.1402793  70.9436226  74.0183830  39.6756816  71.5940428  74.5755291
  38.6741972  71.4508390  72.6758814  37.6132798  71.2342930  72.5507545
  38.8588238  72.9429626  72.5243330  39.8885918  73.2157373  72.7551413
  38.7214446  73.3065701  71.5059948  38.0174541  73.8323641  73.4385490
  38.0688262  73.4036875  74.4393969  38.4410691  74.8154640  73.6438847
  36.5543723  73.9517450  72.9742098  36.5198112  74.4408655  72.0007229
  36.1092377  72.9586649  72.9129887  35.8479714  74.7294569  74.0076351
  36.1738157  74.5561171  74.9477863  35.0530577  75.7607174  73.9055538
  34.5326519  76.1043739  72.7799654  34.7228909  75.6614161  71.8924427
  33.8410878  76.8398809  72.8094530  34.7634196  76.4928770  74.9611902
  35.0902987  76.1365652  75.8479261  34.0475440  77.2050142  74.9391508
  39.2687082  70.8172178  71.4383698  38.5341930  70.5795431  70.4443455
  40.5794716  70.5370140  71.5077257  41.1119604  70.8433580  72.3094177
  41.2525177  69.7757483  70.4136133  41.1351442  70.2077293  69.4197702
  42.8215456  69.7057247  70.6483793  43.1506872  69.1567183  71.5306282
  43.6020422  69.2386484  69.3374586  44.6699905  69.3967772  69.4877863
  43.4001064  68.1922913  69.1084099  43.3599806  69.8785543  68.4889126
  43.3414984  70.9743881  70.8188248  42.9221487  71.3945580  71.5732813
  40.7254982  68.3579254  70.2920818  40.1779747  68.0144072  69.2240381
  40.7130718  67.5800276  71.3702774  40.9575558  67.9664803  72.2708273
  40.1270151  66.2433767  71.3892460  40.6774759  65.6498194  70.6593227
  40.3514862  65.6301165  72.7711725  39.9686384  66.2851143  73.5538006
  39.6408677  64.8063040  72.8379154  41.8483639  65.1997328  72.9875374
  42.6694155  65.8540201  72.6944733  41.9872570  64.9586105  74.4782305
  41.8261480  65.7944298  75.1590729  41.1872530  64.2613363  74.7270346
  42.9767227  64.5092249  74.5625591  42.0960569  63.8552284  72.2987556
  42.0207310  63.8496208  71.2113762  43.1565094  63.6954165  72.4936914
  41.3616371  63.1132174  72.6120234  38.6604404  66.2581301  70.9721231
  38.3042192  65.2548552  70.4006481  37.8198767  67.2198534  71.3840961
  38.2212019  68.0204010  71.8511724  36.3769555  67.3790407  71.1524248
  35.8790088  66.4808464  71.5176630  35.6267071  68.4839916  71.9751215
  34.5892787  68.3586216  71.6650820  35.8324695  68.2652378  73.0229330
  35.9853172  69.8143148  71.6217518  35.3272867  70.3481770  72.0729589
  35.9581113  67.5767279  69.6940041  34.7959948  67.4642944  69.3499565
  36.9037175  67.7957869  68.8039207  37.8430915  67.7013016  69.1627455
  36.8303537  67.7729034  67.3239899  35.7790041  67.7888775  67.0367289
  37.4014974  69.1765976  66.8681431  38.3989263  69.3402576  67.2761297
  37.5058961  69.2472076  65.7854557  36.4789629  70.4273272  67.1996069
  36.4203405  70.4489088  68.2878160  37.0449233  71.3064909  66.8916130
  35.1497912  70.4175854  66.3870716  35.3909016  70.4502010  65.3245735
  34.6288705  69.4779634  66.5710640  34.2801428  71.5119743  66.6645384
  34.6314502  72.4483776  66.8053722  33.0303717  71.5277576  66.6587019
  32.3553681  70.5403519  66.3350391  32.7896309  69.7117376  65.9543610
  31.3583565  70.6893063  66.2727690  32.4002099  72.6524210  66.8544292
  32.8581953  73.5121346  67.1213627  31.3947487  72.7300024  66.7985344
  37.5580668  66.6502953  66.6128111  37.5373197  66.5451193  65.4086018
  38.1740403  65.8209991  67.4180794  38.1207395  65.9178877  68.4220076
  38.8322592  64.6402693  66.8358183  39.4071221  64.9653816  65.9686756
  39.8661232  64.0917063  67.8335190  39.5297647  63.2483292  68.4365892
  40.7672930  63.7473774  67.3261404  40.2462530  64.8950577  68.4645653
  37.8018069  63.5504913  66.3949919  36.6498804  63.5147381  66.8466187
  38.2396221  62.6232862  65.5260468  39.1683030  62.6651955  65.1312113
  37.4829078  61.4381027  65.2160358  36.6329670  61.3035965  65.8850670
  37.0323515  61.3848495  63.7624788  36.3459277  62.2315645  63.7633562
  38.0905795  61.7865276  62.7206326  39.0013957  61.2101793  62.8829145
  37.6957965  61.6096687  61.7201471  38.3668971  62.8133392  62.9602337
  36.4213777  60.1672840  63.2943726  35.4877377  60.2254820  63.5100794
  38.3688831  60.1766205  65.3587484  39.5635390  60.2244997  65.1159906
  37.7394652  59.0279198  65.7341290  36.3374257  58.9062548  66.2097740
  35.6928658  59.2125750  65.3858709  36.2124586  59.4451475  67.1489620
  36.1854172  57.3992348  66.6036558  35.9771466  56.7570305  65.7479095
  35.4361987  57.2900534  67.3877764  37.6576185  57.0581961  67.0435095
  37.8639674  55.9940577  66.9289207  37.9282761  57.3125315  68.0682850
  38.4791327  57.8508377  66.0462141  39.3341064  58.2520676  66.5904045
  38.8476491  57.0332050  64.7798920  38.0704975  56.8560696  63.8127184
  39.9893761  56.3123560  64.9667549  40.4739618  56.3718510  65.8509159
  40.6379318  55.5564117  63.9076328  40.4156876  56.0315657  62.9521561
  42.1676016  55.5192232  64.1013575  42.3856544  54.9435091  65.0008631
  42.8112698  54.7314739  62.9605532  42.4573994  53.7016296  62.9125500
  42.5751400  55.2887678  62.0540380  43.8958836  54.7790527  63.0577326
  42.7507973  56.9165945  64.1836929  42.6031876  57.4125671  63.2243633
  42.2624493  57.4293709  65.0123501  44.2700815  56.9285202  64.4682312
  44.5942068  56.0860157  65.0791550  44.8708773  56.8567801  63.5615873
  44.6523762  57.8688288  64.8654318  40.0268126  54.0578651  63.9634514
  40.1641941  53.5105085  65.0456858  39.4959116  53.4992409  62.8498173
  39.2287874  54.2090797  61.6349411  40.0756407  54.1082573  60.9561348
  38.9681554  55.2565479  61.7865276  37.9307914  53.5268641  61.1853075
  37.7551961  53.7508154  60.1331139  37.1104121  53.8981628  61.7994881
  38.1575084  52.1304560  61.6283607  38.7669230  51.6950417  60.8364391
  37.1974921  51.6213703  61.7137909  38.8974452  52.1972418  62.9252005
  38.1849122  52.2497559  63.7483883  39.9154425  51.0703707  63.1058073
  41.0935354  51.2268114  62.9343796  39.3879223  49.9926329  63.6204195
  38.3884478  49.9679041  63.7637281  40.1159716  48.7200546  63.7606430
  41.1385870  48.9526129  64.0577555  39.4393611  47.8129530  64.8431635
  38.4354520  47.5802708  64.4880152  39.9577069  46.8555927  64.7895288
  39.3050218  48.3870220  66.2332773  38.5995579  49.2177153  66.2139416
  38.9496493  47.6018953  66.9006491  40.6395721  49.0124083  66.7171001
  40.6759262  50.2660704  66.9746399  41.5369797  48.2675219  67.1105576
  40.2687263  48.0475760  62.4000168  39.4260931  48.2200623  61.5062904
  41.3618135  47.3156452  62.1974373  41.9234085  47.0085907  62.9787397
  41.7244577  46.7886114  60.8926249  40.8554506  46.5451050  60.2813721
  42.5253534  47.8541517  60.1405048  41.9500971  48.7780190  60.0800800
  43.4200716  48.2613707  60.6114101  43.0560017  47.4079895  58.7653637
  42.3876667  47.6804304  57.5652504  41.4702034  48.2494593  57.5946951
  42.9786921  47.5190878  56.2537479  42.3951769  47.7866459  55.3852272
  44.2704439  47.0078039  56.1923122  44.8198891  46.7250109  54.9464369
  44.2703295  46.9316769  54.1869116  44.9015856  46.5909052  57.4007082
  45.8786201  46.1380339  57.3187399  44.3318605  46.7669439  58.6687994
  44.9221945  46.5419245  59.5447445  42.2965813  45.3783035  61.1504698
  42.7123976  45.0717926  62.2587490  42.0839357  44.4642782  60.1870441
  41.7144251  44.7054815  59.2785406  42.1189928  43.0486202  60.4521704
  42.5423288  42.8244352  61.4312696  40.6770897  42.4837637  60.2968645
  40.4586744  42.3372602  59.2390680  40.6913996  41.4433670  60.6216478
  39.5032310  43.1700182  61.0119867  39.6363664  44.2400455  61.1714077
  38.1717825  42.8680563  60.3898859  37.3789406  43.2051849  61.0576057
  38.0339193  43.5171127  59.5251179  38.1766295  41.8037701  60.1545763
  39.5072842  42.5325108  62.3887491  39.3094230  41.4675713  62.2668409
  40.4604721  42.6184511  62.9104328  38.7451196  42.9688072  63.0343866
  42.9724121  42.3955965  59.4528103  43.5494328  41.3580894  59.6704006
  43.2891178  42.9059315  58.2273722  42.6844072  43.6482239  57.9057741
  44.2134237  42.4078226  57.1886635  43.9007235  41.4168596  56.8595505
  44.1780758  43.4765720  56.0917521  44.1176844  44.5086479  56.4371109
  45.0401545  43.3044529  55.4473114  42.9759789  43.2101488  55.1361752
  42.9747152  42.1418905  54.9195623  42.1236944  43.4053707  55.7870197
  42.9937029  44.0443850  53.8444328  42.8981590  45.0793886  54.1726637
  43.9406300  43.8505411  53.3405924  41.9934130  43.6359024  52.7584791
  40.9723949  43.9721775  52.9388666  42.2260237  44.2657375  51.8998146
  42.0401096  42.1809959  52.4044275  41.2149668  41.9080162  51.8899202
  42.8846598  41.9642067  51.8946791  42.1143293  41.5720987  53.2068205
  45.5936384  42.1447754  57.7667332  46.1248732  43.0452204  58.4570789
  46.1596584  40.9220171  57.4858427  45.6818628  40.3021002  56.8474817
  47.3069143  40.4890299  58.2495356  47.5118017  40.9838200  59.1989040
  47.0117903  38.9992237  58.5303926  46.1396027  38.9110613  59.1781712
  46.8184662  38.4527779  57.6072884  48.0826664  38.2104492  59.1422176
  48.9578533  38.1339288  58.4970093  48.4393740  38.6314273  60.0822353
  47.8128767  36.8017459  59.4571590  48.3351612  35.8381724  58.8291216
  46.9228697  36.5689492  60.4220963  46.5618277  35.6348014  60.5529213
  46.3741684  37.2599649  60.9135437  48.5874271  40.7427168  57.4289656
  48.8298893  40.1750422  56.3481092  49.4166231  41.6593885  57.9702759
  49.1326189  42.0889807  58.8391209  50.9135818  41.8765402  57.6835060
  51.0149145  42.0427704  56.6110325  51.3484287  43.2476425  58.3256102
  51.0634089  43.1821012  59.3756437  52.8303671  43.5165071  58.3457804
  53.1977081  43.6720085  57.3313951  53.1068134  44.3492556  58.9924717
  53.3297348  42.6237154  58.7221575  50.7256413  44.5476961  57.6037931
  51.2542868  44.7941017  56.6829729  49.6620274  44.4894409  57.3726273
  50.6418991  45.8246326  58.4749794  49.8638582  45.6119490  59.2081356
  51.6054296  46.0335922  58.9397907  50.2555990  46.6087341  57.8237820
  51.6939545  40.6757069  58.2146263  51.4127350  40.0593090  59.2187214
  52.7518368  40.2028513  57.4995995  53.2061100  40.5702829  56.1961889
  53.4705591  41.6253185  56.1249971  52.3545456  40.3596735  55.5492067
  54.2117023  39.6364713  55.7370806  55.2249718  39.9827170  55.9407806
  54.1654444  39.3371534  54.6900034  53.8356781  38.3684587  56.5794659
  54.7067595  37.7304721  56.7287779  53.0477428  37.8284526  56.0544348
  53.4028387  38.9770627  57.8808403  52.7728987  38.2314467  58.3659458
  54.5137548  39.3848205  58.8462305  55.7183981  39.4751215  58.5128975
  54.1919327  39.7658753  60.1015854  53.3187675  39.5581818  60.5647755
  55.1863861  40.2569962  61.0688972  55.6965303  41.0674000  60.5482197
  54.4392490  40.9124279  62.2506714  53.9297819  40.1774406  62.8738451
  55.1434708  41.3558435  62.9546261  53.7207127  42.1296835  61.7670441
  54.2753744  43.1349802  61.3266468  52.4217558  42.1674061  61.8786621
  51.9272232  43.0329609  61.7163277  51.8105173  41.3779688  62.0312357
  56.2310553  39.1866326  61.4917469  55.8784866  38.0088544  61.3684130
  57.4205112  39.5529008  62.0594692  57.5320387  40.5231857  62.3167944
  58.2856274  38.5648012  62.6748466  58.4187794  37.6568389  62.0866489
  59.6710253  39.1502738  62.7996874  59.9563360  39.2234564  61.7502356
  59.6711493  40.1363516  63.2641745  60.6096458  38.3617568  63.5073137
  60.9457731  37.7205133  62.8768969  57.6097441  38.2093287  64.0289879
  57.1003485  39.1123724  64.7191954  57.6162148  36.9539595  64.4743490
  57.9003000  36.1705804  63.9036369  57.0713091  36.5669179  65.7254267
  56.0687637  36.9357443  65.9421921  56.8926668  34.9699712  65.7760048
  57.8619099  34.5027804  65.6016302  56.5921021  34.6378350  66.7697096
  55.7493258  34.2736864  64.5358515  54.7118473  35.0836229  64.7650957
  57.9894733  37.0172286  66.8986750  59.1633987  37.3334670  66.7197371
  57.5967169  36.8174863  68.1687784  56.6393232  36.5378380  68.3278084
  58.3412695  37.2097826  69.3456268  58.5366392  38.2643127  69.1509581
  57.5092745  37.0691490  70.6091118  58.1632757  37.4871850  71.3743782
  56.2859344  37.9712343  70.5578661  55.8574486  37.8125954  71.5474796
  56.5400696  39.0057945  70.3272104  55.5643034  37.5072360  69.8855162
  57.0888567  35.5755377  71.0052443  57.9365253  35.1050925  71.5034866
  56.2852144  35.6701803  71.7355251  56.8284130  35.0103998  70.1103210
  59.7076178  36.5949082  69.5281029  59.8755932  35.4064918  69.6023178
  60.7686377  37.4218583  69.5449924  60.6461525  38.4219480  69.4748449
  62.1496105  37.0069480  69.7048140  62.0607233  36.1466670  70.3682280
  62.7541399  36.5265465  68.3357525  61.9406462  36.0666490  67.7746630
  63.2306767  37.3471665  67.7994680  63.6843777  35.4868865  68.5518789
  63.9633131  35.1506686  67.6970339  62.9645920  38.0799913  70.3748894
  62.4493361  38.9421105  71.0591364  64.2900324  38.0768609  70.1488876
  64.6697283  37.4501967  69.4537449  65.1877928  39.0895462  70.7012272
  64.9469757  39.2215967  71.7560577  66.2077522  38.7051702  70.7073259
  65.1642895  40.4394960  70.0668812  64.8096800  40.4772186  68.8472128
  65.3786469  41.5300989  70.8132505  65.7458305  41.5616035  71.7536163
  65.2089214  42.8371096  70.2264357  64.2436218  42.9135227  69.7259808
  64.9011755  43.6759758  71.4745140  63.9253330  43.4631300  71.9110107
  64.7210217  44.6545267  71.0294533  66.1563253  43.9287710  72.8474951
  66.4596367  43.3241367  69.3921804  67.6003456  42.8204966  69.5029116
  66.1828327  44.3031168  68.5144997  65.2009249  44.5356417  68.4710836
  67.0625544  45.1024914  67.6389074  67.9096270  44.4253731  67.5289965
  66.3461399  45.3423786  66.3255501  65.5709934  46.0869551  66.5068102
  67.1066618  45.7138014  65.6387091  65.5745316  43.7704849  65.6466389
  66.7895746  43.2537365  65.4428291  67.6105261  46.4534330  68.2508755
  68.3451700  47.0308304  67.5014734  67.3745203  46.7141581  69.5224619
  66.7674732  45.9839535  69.8665524  68.0335045  47.6657486  70.3364706
  67.4648094  48.5649920  70.0997400  67.8345156  47.2492409  71.7939329
  68.5378075  47.8332376  72.3875856  67.9339266  46.1738300  71.9412565
  66.1674547  47.7503681  72.4446011  69.4690561  48.0539417  69.8062038
  69.7848463  49.1921616  69.5088959  70.3815842  47.0503712  69.7659016
  70.1260471  46.1093235  70.0290394  71.7417622  47.2602797  69.2318344
  72.3902988  47.8438473  69.8852539  72.1038914  46.2439919  69.0765190
  71.8395853  47.8745222  67.8936434  72.5766945  48.8502359  67.6911640
  71.1427116  47.2979307  66.9032907  70.4523611  46.5877104  67.1010399
  71.0115814  47.9054403  65.6085587  72.0620871  48.0695438  65.3685570
  70.3463173  47.0716333  64.4729280  70.8918571  46.1296940  64.4160891
  69.2673922  47.0245981  64.6206045  70.5513620  47.7706814  63.1319952
  71.5813160  47.3923492  62.3551607  72.3530626  46.6513968  62.5028086
  71.4828062  48.1547070  61.2059927  72.1731091  48.0880165  60.4717350
  70.3540277  49.0330887  61.2527037  69.8041534  49.9782467  60.3075838
  70.2496624  50.2409220  59.3594646  68.5628939  50.5350113  60.5762100
  68.1213093  51.2064362  59.8546886  67.8913879  50.1915169  61.7673492
  66.8994665  50.5755281  61.9545031  68.5524368  49.3726492  62.7626657
  68.1053782  49.1202307  63.7128401  69.7865963  48.7642860  62.5047302
  70.5307198  49.3676805  65.5659294  71.0904789  50.2602625  64.9237680
  69.4350672  49.6395016  66.2777948  69.0350151  48.9634657  66.9126511
  68.7903547  50.9246445  66.3248253  68.4816980  51.2075806  65.3184509
  67.5995588  50.8408165  67.2676325  67.8823185  50.4844046  68.2581472
  67.2482491  51.8377256  67.5338125  66.3792372  50.1926851  66.6546679
  66.6382647  49.2798328  66.1182880  65.4561996  49.7072124  67.7644730
  64.9109554  50.5176401  68.2482338  64.6905327  49.0760231  67.3134136
  65.9724998  49.0981388  68.5064697  65.6376362  51.1619043  65.6955957
  66.3389540  51.4995575  64.9325466  64.7850561  50.6683683  65.2290869
  65.1358938  51.9640350  66.2368345  69.8203182  51.9525337  66.8091345
  70.0445843  52.9853487  66.2131739  70.6345129  51.6315985  67.8676891
  70.5945826  50.7196522  68.2999611  71.5126467  52.5959396  68.5049772
  71.0713959  53.5909557  68.4472179  71.6943979  52.1863985  69.9924088
  72.1493387  51.1977291  70.0528574  72.4760342  53.2093525  70.8718348
  72.6312304  52.9143953  71.9096279  73.4294224  53.4547281  70.4039240
  71.9138575  54.1359615  70.9878540  70.5731678  51.9504499  70.7429981
  70.4937458  51.0062742  70.5886316  72.8312111  52.6674128  67.7630758
  73.4366274  53.7387609  67.7864170  73.1914711  51.6378880  67.0137262
  72.5454760  50.8634901  67.0694447  74.2654467  51.6659832  66.0097456
  75.1242113  52.0279169  66.5751028  74.5154476  50.2671528  65.4165649
  74.6166849  49.6437263  66.3049316  73.6674166  49.8321533  64.8876762
  75.7094336  50.2047110  64.5318699  75.5529451  50.7377768  63.5940790
  76.5062761  50.6941032  65.0919104  76.0400343  48.7045240  64.3318844
  76.3448429  48.3703423  65.3236103  75.2457190  48.1016588  63.8917494
  77.2914028  48.6103535  63.3976126  76.9650793  48.7585354  62.3682165
  77.9464531  49.4362211  63.6750269  77.8834677  47.2704458  63.4192944
  77.2720623  46.4710903  63.5047865  78.4324408  47.1404648  62.5815392
  78.6059952  47.3468733  64.1208839  74.0958500  52.7225399  64.9934959
  74.9355793  53.5840940  64.8042583  72.9000044  52.6181936  64.3709421
  72.2864771  51.8514156  64.6070337  72.2864437  53.5797358  63.4503984
  72.8453827  53.5748434  62.5146294  70.8968019  53.1503820  62.9938936
  70.1947308  53.0952549  63.8258553  70.2944660  53.9586020  61.8582010
  71.0357809  54.1164017  61.0748434  69.3173790  53.6380863  61.4967060
  70.1349592  54.9980450  62.1449471  71.0077906  51.9143343  62.3300505
  70.1356030  51.5552044  62.1514034  72.1873808  54.9952221  63.9061880
  72.7405643  55.9394693  63.3034039  71.4581299  55.2712393  64.9836826
  70.9073067  54.5360088  65.4033661  71.4820576  56.6723299  65.6088257
  71.1061573  57.3954153  64.8849821  70.5460596  56.6731262  66.8238306
  70.6141806  55.7146454  67.3383904  70.9333515  57.7156258  67.9402924
  70.7057524  58.6936903  67.5164032  70.2187014  57.6966619  68.7631035
  71.9745398  57.6680326  68.2592964  69.0414190  56.7629957  66.4597034
  68.7284184  55.9961843  65.7510900  68.4656286  56.6314650  67.3758221
  68.6460018  57.6994991  66.0663795  72.8947401  57.2446108  65.9721947
  73.2925367  58.3443260  65.4907036  73.6872959  56.5682364  66.8037510
  73.3581305  55.6737518  67.1378899  74.9817324  57.0947456  67.2509480
  74.7857332  57.9815578  67.8536510  75.6783342  56.0326099  68.1571388
  75.4555178  55.0339270  67.7815199  76.7657614  56.1055660  68.1740475
  75.3461027  56.0191584  69.6198845  75.4634428  57.0307779  70.0084209
  74.2935991  55.7987404  69.7980785  76.0992336  54.9669170  70.4935932
  75.9308577  53.9710236  70.0837803  77.1624327  55.2004290  70.4371452
  75.5593300  55.1428509  71.9257402  74.4768000  55.0160170  71.9140530
  75.9407377  54.2853260  72.4800634  75.8880186  56.4153767  72.6122618
  75.3150272  57.2231436  72.4140549  75.9759569  56.2216949  73.5996103
  76.7719173  56.6578054  72.1879482  75.8708143  57.5015211  66.0175323
  76.2898636  58.6538172  65.9792185  75.9216976  56.6752434  64.9478102
  75.5128860  55.7530117  64.8982620  76.7273235  57.0071983  63.7777519
  77.7848482  57.1889210  63.9693785  76.6957283  55.7055664  62.9027510
  77.0952892  54.8467588  63.4420967  75.6492996  55.4666853  62.7129602
  77.4181986  55.7163191  61.5415430  77.1801424  54.7449875  61.1080170
  76.9778347  56.4388609  60.8544350  78.9120340  56.0114050  61.5810585
  79.4187498  56.5030193  60.5595970  79.5571852  55.7454967  62.5777626
  76.1073875  58.2217455  63.0454016  76.8259096  59.1888094  62.7928877
  74.7762251  58.2485342  62.8731251  74.2259502  57.4200010  63.0487204
  74.0901947  59.3828106  62.1937513  74.5827961  59.5460606  61.2352133
  72.6746321  59.0680313  61.7635107  72.2839499  60.0481796  61.4900541
  72.5655127  58.2178402  60.5336332  72.8773355  58.7880993  59.6586037
  73.0908680  57.2759104  60.6913328  71.4978218  58.0023956  60.4921341
  71.8716860  58.5247564  62.8621864  72.0710373  57.5860119  62.8373098
  74.1011953  60.6766129  62.9749823  74.0270329  61.8106031  62.4261999
  74.1935301  60.6712675  64.2965937  74.2198706  59.7483778  64.7060871
  74.0456152  61.8646479  65.1594782  73.0571270  62.2716570  64.9465609
  74.0404415  61.4549017  66.6600037  75.0283432  61.1268044  66.9832802
  73.6905050  62.6077652  67.6301670  72.9810715  62.4154758  68.4350491
  74.6293926  62.9789686  68.0410194  73.3694363  63.4398174  67.0035076
  73.2705641  60.4006720  67.0452452  73.3827305  59.6629143  66.4413071
  75.1595783  62.8820133  64.8372364  74.8651171  64.0355301  64.5293570
  76.4113522  62.4824905  65.0654411  76.3670444  61.4995480  65.2933931
  77.7311802  63.2728863  64.9286318  77.7029943  63.8583279  64.0096283
  77.9093456  64.2573023  66.1350727  78.8572741  64.7816181  66.0141230
  77.0950937  64.9819231  66.1392689  77.9657459  63.4979773  67.4764395
  76.9729090  63.1200933  67.7205276  78.6231470  62.6346207  67.3737383
  78.4133101  64.4989967  68.5671854  79.3646955  65.0063801  68.4074020
  77.6588869  65.2848148  68.6050844  78.4285831  63.7923956  69.9057245
  78.7607241  62.8393030  69.8682117  78.5614967  64.3664455  71.0815287
  78.7477446  65.6381893  71.1339760  78.6559820  66.0983276  70.2395725
  78.5081244  66.0785341  72.0107746  78.6082554  63.6236620  72.1298075
  78.1592417  62.7336311  71.9675112  79.0464020  63.9751244  72.9692125
  78.9941406  62.4336576  64.6668482  80.1185513  62.7588558  65.1058292
  78.8065052  61.3408852  63.9330816  77.9797506  61.2817526  63.3559513
  79.7276974  60.2237940  63.9074850  79.2510939  59.3150711  63.5398340
  80.9863949  60.5967760  63.0575895  81.6682816  61.2626410  63.5865068
  81.8552780  59.3655014  62.6165199  81.3051510  58.4256268  62.5707102
  82.3425102  59.5959759  61.6691065  82.6992702  59.2324972  63.2933474
  80.5899429  61.2313318  61.8258572  80.1107883  60.5160713  61.4011145
  80.2952862  59.8358774  65.3274488  81.5430355  59.7366476  65.5465460
  79.2992544  59.5184898  66.2857580  78.3624363  59.3884611  65.9314013
  79.5852089  58.9670706  67.5805473  80.2595520  59.6556377  68.0896997
  78.2637739  59.0240717  68.3873558  77.7494192  59.9586487  68.1635284
  77.7076483  58.1552601  68.0352306  78.4616232  58.9252663  69.9364471
  77.5786686  58.4247780  70.3339434  79.3758106  58.4416485  70.2806568
  78.5993910  60.3359270  70.4492569  78.0093813  60.6925201  71.4903069
  79.2867184  61.1854267  69.8537207  80.3274918  57.6557207  67.5892639
  79.8691177  56.6973495  66.9108534  81.4183235  57.5018597  68.3965683
  82.2950268  58.5105419  68.9385891  81.7289543  59.2836237  69.4582176
  82.8738308  58.9187956  68.1100893  83.2446289  57.8150034  69.9893570
  82.7204037  57.7479744  70.9426641  84.2577076  58.2036161  70.0931072
  83.2964516  56.3902569  69.5149469  83.2583809  55.7562160  70.4007483
  84.1973591  56.2354660  68.9212227  81.9919395  56.2308693  68.6451483
  82.3059845  55.8854961  67.6601648  80.9896755  55.2210999  69.2662477
  80.0785732  55.5431890  69.9632215  81.1548042  53.9662933  68.7978125
  81.8867779  53.7665892  68.1311512  80.2224827  52.8291273  68.9977169
  79.5474386  53.1405497  69.7948551  79.3965626  52.4831486  67.6910305
  80.1494789  52.3463726  66.9148159  78.5984945  51.1949921  67.7703381
  77.9521084  51.2662506  68.6451006  77.9840088  51.0680628  66.8790483
  79.3202496  50.3966951  67.9432344  78.5032606  53.7023354  67.4116516
  77.6014757  53.6172199  68.0179882  79.0443134  54.6311569  67.5923491
  77.9949379  53.8821554  65.9484482  77.3117971  54.7267914  65.8589745
  78.8293457  54.0993643  65.2815962  77.4833202  52.9827452  65.6057930
  80.9784126  51.5611458  69.4828844  82.0775414  51.3093901  68.8963413
  80.3839207  50.8695745  70.4742813  79.6009111  51.2771940  70.9650421
  81.1048603  49.8486948  71.2264490  81.7144108  49.2779589  70.5258751
  82.2014236  50.5135536  72.0713091  82.5021172  49.6729946  72.6967239
  82.9710865  50.8274698  71.3661957  81.8023014  51.7620420  72.8373003
  80.7546425  51.7326021  73.4487677  82.5360394  52.8482199  72.7435923
  82.3956013  53.5754728  73.4302425  83.4450817  52.7995729  72.3061323
  80.1687431  48.9153337  71.9927788  79.2521858  49.3979788  72.6184464
  80.4329586  47.5894356  71.9608068  81.2974072  47.2191525  71.5924072
  79.4945002  46.5456200  72.4423409  79.8005247  45.5754566  72.0508814
  79.4626093  46.4159489  73.9871502  79.1066885  45.4015636  74.1672945
  80.8095837  46.2431574  74.7187662  81.3813019  45.3854895  74.3642807
  81.4414787  47.1158266  74.5536280  80.6904888  46.2735128  75.8018160
  78.6228895  47.2239399  74.7397280  78.9517879  48.1203985  74.6408224
  78.1140089  46.7027283  71.7735624  77.9688454  47.2102118  70.6475353
  77.0536613  46.2307262  72.4834871  77.2093868  45.9178495  73.4310913
  75.5986595  46.4996672  72.1173716  75.5952263  47.2232437  71.3021898
  74.9593687  45.1738882  71.5495348  75.5716896  44.7726727  70.7419491
  74.5636129  44.1400337  72.6269293  75.4586267  43.8969135  73.1995916
  73.8654137  44.6048450  73.3230400  74.0846729  43.2256985  72.2766352
  73.7269402  45.7035875  71.0655499  73.3246374  45.0536346  70.4847574
  74.7609043  47.1660089  73.2126188  75.2309084  47.5083637  74.2824984
  73.4910154  47.5571823  72.8579855  73.2056284  47.3244667  71.9175100
  72.6493692  48.5487080  73.5187435  73.1328297  48.8839865  74.4363213
  72.5504923  49.7834110  72.6105356  72.1905327  49.4736958  71.6294098
  71.8703318  50.5252218  73.0290985  73.8363028  50.5179405  72.2603512
  74.4645786  51.3847446  73.2100725  73.9346457  51.6575718  74.1107082
  75.7687569  51.8750525  72.9307556  76.1011744  52.5713778  73.6864233
  76.4988756  51.6017294  71.7274237  77.6437998  52.3303127  71.4091873
  78.0792761  52.8049088  72.1210337  75.7568169  50.7796097  70.7703495
  76.1552238  50.5999565  69.7827291  74.5111084  50.2162504  71.0661411
  74.0060520  49.6287298  70.3137207  71.2617874  47.9443026  73.7093544
  70.7047510  47.2867012  72.8454113  70.6893778  48.2894182  74.8460579
  71.1502695  49.0660954  75.2982140  69.3544054  48.0389595  75.2795076
  68.9422703  47.1839333  74.7436237  69.4127512  47.7640963  76.7548132
  68.4779930  47.3049831  77.0766020  70.2539873  47.0758581  76.8369675
  69.7627687  48.9551878  77.4722290  70.6985378  48.9621496  77.6864433
  68.3130217  49.1721392  74.9633646  68.6839294  50.2967834  74.5020676
  67.0344353  48.9861536  75.1715183  66.6096497  48.1381607  75.5187559
  66.0231638  50.0364494  74.9169922  66.1772442  50.4159784  73.9068794
  64.5966482  49.4385576  74.9687719  64.3463659  49.0240765  73.9922142
  64.4138384  48.6384153  75.6860304  63.5544443  50.5677271  75.1547861
  63.1267738  51.3357258  74.0696526  63.5313940  51.0658741  73.1053543
  62.1631145  52.3129892  74.3235493  61.9199276  52.8849030  73.4402752
  61.7073631  52.6437664  75.6612253  60.9389877  53.7440681  75.9193897
  60.7249212  54.2035913  75.1041508  62.1860600  51.8553066  76.6668558
  61.8753719  52.1776104  77.6497030  63.0999899  50.8035612  76.4565802
  63.5721493  50.2300692  77.2405243  66.2549973  51.2568045  75.8480692
  66.2386274  52.3814821  75.3161860  66.6045666  51.1049604  77.1320152
  66.7348003  50.1498652  77.4335670  67.0974874  52.1814299  78.0160379
  66.3674068  52.9888582  78.0720901  67.3160362  51.5989780  79.4524288
  67.6215839  52.4077702  80.1162052  65.9754229  51.0745907  79.9291039
  65.9931993  50.9045315  81.0056114  65.1792860  51.7472029  79.6099472
  65.6211424  50.1325178  79.5106745  68.2509661  50.5511475  79.5112705
  69.0926886  51.0126591  79.5217896  68.2662487  52.9296064  77.4439430
  68.4534740  54.1089964  77.7481651  69.1414022  52.3532104  76.6628885
  68.8873005  51.4299488  76.3417721  70.2315187  52.9625082  75.9562826
  70.5595922  53.7647724  76.6172218  71.4025354  51.9795513  75.7643890
  71.0334587  51.1195850  75.2055216  72.1274519  52.4938679  75.1334476
  72.0880556  51.5943146  77.1384144  72.2470093  52.4895334  78.0412388
  72.4576521  50.4421711  77.2870541  69.7949266  53.6544085  74.6591043
  70.0193119  54.8227310  74.4056845  69.1297626  52.9578209  73.7123775
  68.9527988  51.9759655  73.8696909  68.5315752  53.5279465  72.4833488
  69.2270422  53.9558125  71.7612934  67.6752710  52.3789835  71.8023634
  68.3712149  51.5914774  71.5132236  66.9096947  51.9785309  72.4669123
  67.0272923  52.8255892  70.5243778  67.8413200  53.5532618  69.6200228
  68.9100266  53.5776234  69.7738981  67.2757483  54.1153145  68.4457874
  67.8222752  54.5450926  67.6193476  65.9261322  53.9012146  68.1784534
  65.5083990  54.3757105  67.3028088  65.1603651  53.0914831  69.0193748
  64.1656208  52.8009605  68.7152433  65.6795073  52.6005173  70.2346230
  64.9767494  52.0557594  70.8476210  67.6393557  54.6933794  72.7290106
  67.9930878  55.7700109  72.2978258  66.6238928  54.6235323  73.6439943
  66.5897942  53.7416220  74.1350937  65.8058977  55.7175827  74.0761852
  65.1654434  55.9896803  73.2371998  64.9107742  55.2843475  75.2700377
  64.2710400  54.4966030  74.8721743  65.4693222  54.8594427  76.1040545
  64.0076637  56.4281607  75.8656645  64.5726013  57.3516607  75.9925032
  63.1591892  56.4874411  75.1839876  63.4687853  56.1302042  77.1970940
  63.5278702  55.0713778  77.7772856  62.5941801  56.9719076  77.5981426
  62.1330214  56.9169378  78.4950352  62.4612522  57.7821064  77.0099163
  66.6678047  56.8682814  74.5195961  66.3861847  57.9794550  74.1390085
  67.7870274  56.6995716  75.3311157  67.8121090  55.8788061  75.9191799
  68.7497044  57.7316284  75.7165718  68.2016277  58.4780407  76.2915468
  69.8780727  57.1254826  76.6402769  69.3642378  56.3901567  77.2594452
  70.6272030  56.5555286  76.0906792  70.6904984  58.1233215  77.5458908
  71.4991665  57.5934887  78.0493164  71.1803770  58.8453770  76.8926191
  69.7869492  58.7663651  78.5952997  69.0709925  59.3865108  78.0559206
  69.2299080  57.9235220  79.0044785  70.6317425  59.4000578  79.7373438
  71.1429882  58.6711025  80.3661060  71.4578247  60.0347090  79.4165516
  69.7656775  60.1288891  80.6972313  69.4024467  60.9610939  80.2549553
  69.0599298  59.5154190  81.0789108  70.2978182  60.3761148  81.5193081
  69.4512987  58.3436298  74.5250416  69.6168423  59.5794964  74.5486736
  69.9729729  57.5563812  73.6183214  70.0159979  56.5751457  73.8537598
  70.5157089  58.1051493  72.3210478  71.3207436  58.8193941  72.4939108
  71.1422634  56.9968891  71.4847088  71.6601658  57.3687172  70.6006098
  71.8168116  56.4405966  72.1355724  70.3297663  56.3182688  71.2250566
  69.4700670  58.9273262  71.5124226  69.9020243  59.9647570  70.9021616
  68.1895733  58.5332537  71.5391970  67.9652882  57.7257347  72.1028519
  67.0679903  59.1374540  70.7407570  67.4622154  59.3824530  69.7545195
  65.8921528  58.1261873  70.5281687  65.6689739  57.7445126  71.5244722
  64.7046375  58.9348936  69.9070740  64.9396563  59.4620085  68.9824009
  63.8184595  58.3388805  69.6889973  64.3416071  59.7156477  70.5754519
  66.1930799  56.9691992  69.5853710  65.4410744  56.1801577  69.5879078
  66.2039757  57.2649288  68.5363102  67.1148109  56.4097261  69.7450399
  66.7122650  60.5133915  71.4198828  66.7068863  61.5612125  70.7321596
  66.6129112  60.5649614  72.7757454  66.6315937  59.7077179  73.3094931
  66.4903784  61.7689133  73.5580635  65.5044413  62.1834564  73.3478594
  66.4508009  61.3757420  75.0257778  67.0956516  60.5132008  75.1939583
  66.7236042  62.1317387  75.7620859  64.9920559  60.9373331  75.5121136
  63.9861679  61.6268396  75.3315067  64.8407316  59.8616171  76.2854910
  63.9543390  59.8143291  76.7673445  65.6958914  59.3779755  76.5197802
  67.5456381  62.8018761  73.2281685  67.1697712  63.9023447  72.7086782
  68.8402367  62.4906492  73.3240414  69.0116167  61.5154839  73.5234976
  70.0398874  63.2433796  72.8525352  70.1247358  64.1832733  73.3979702
  71.2735271  62.4296427  73.2867146  71.3034344  61.4361382  72.8393364
  72.1214628  63.0509233  72.9984045  71.3146925  62.3303509  74.8340178
  71.0663700  63.3349800  75.1762915  70.5763912  61.5842628  75.1278877
  72.6352215  61.7142057  75.3722191  73.4794903  62.2799063  74.9781513
  72.6199770  61.6717815  76.4612865  72.7914667  60.2737999  74.9056387
  72.0461416  59.6325541  75.3761673  72.4629307  60.2142859  73.8680315
  74.1260767  59.7009373  75.2692413  74.2763281  59.6189117  76.2646294
  74.1485405  58.7635565  74.8938513  74.9359560  60.1359940  74.8510027
  70.1228285  63.6491013  71.3209105  70.6951141  64.7270441  71.0170650
  69.6692467  62.8876305  70.3815079  69.5245123  61.9350958  70.6845474
  69.4371557  63.2573318  68.9563179  70.3937387  63.5645151  68.5335875
  69.0933657  61.9820976  68.2333851  69.8124504  61.1713314  68.3503294
  68.1302786  61.6527843  68.6234093  68.7646723  62.2190714  66.7472458
  67.9995298  62.9831982  66.6102266  70.0795698  62.6832581  66.0393572
  70.7943869  61.8732882  66.1845589  69.8170567  62.8692198  64.9979162
  70.3865099  63.6783171  66.3614655  68.1782293  60.9358072  66.1664820
  67.3539257  61.1909866  65.5005169  68.9267111  60.4411745  65.5474472
  67.7632666  60.2628851  66.9168711  68.4114742  64.3473768  68.7125635
  68.5811186  65.2977037  67.9172754  67.2977734  64.2211962  69.4352484
  67.1357918  63.3374500  69.8966074  66.2458372  65.2496672  69.4833517
  66.0596466  65.5481005  68.4516716  64.9619246  64.6428347  70.0423479
  65.2726221  64.1523457  70.9648418  64.2152691  65.3770494  70.3448963
  64.3013334  63.5317326  69.2812014  65.0953388  62.8983593  68.8856030
  63.5087824  62.6279259  70.3181982  64.1226149  62.1633053  71.0898495
  62.7273083  63.2465982  70.7593870  62.9889154  61.8644905  69.7393990
  63.3778954  63.8476229  68.0250740  62.9336929  62.9502678  67.5943184
  62.5464582  64.4550276  68.3826733  63.9261770  64.4388008  67.2915888
  66.7210722  66.4912844  70.2488613  66.4090395  67.6217842  69.8373508
  67.5426769  66.3658857  71.2734079  67.5829601  65.4200697  71.6254139
  68.1268835  67.5082827  72.0727015  67.3310232  68.1825352  72.3890686
  68.6301851  67.0354080  73.4762764  69.5456886  66.4585543  73.3451319
  68.7540531  68.2085514  74.4217825  69.0382957  67.8800583  75.4214859
  69.4929457  68.9479971  74.1129732  67.8018379  68.7216425  74.5564032
  67.6379824  66.3479090  74.1574717  67.4236727  65.4959202  73.7704515
  69.1213655  68.3274317  71.2512589  69.1637135  69.5663357  71.2529087
  69.9579191  67.6207447  70.4141521  70.0107384  66.6176701  70.5198050
  70.8431005  68.2349586  69.4389248  71.4423370  68.9932442  69.9429226
  71.7380905  67.1576500  68.8692188  72.2545576  66.6649723  69.6930122
  71.2004328  66.4081144  68.2885122  72.6284313  67.5769758  68.4006500
  70.0318098  68.9753675  68.3372736  70.4149818  70.0195551  67.8344440
  68.8893270  68.3832026  67.9831314  68.7650061  67.4809122  68.4196091
  67.9204988  68.9300776  66.9882107  68.4315634  69.4733953  66.1934042
  67.0349693  67.8078127  66.4334249  66.2743759  67.4854040  67.1445179
  66.3992786  68.1930113  65.6361675  67.7529335  66.7184067  65.8575249
  68.1789827  66.2807560  66.5981627  66.9481182  69.9866915  67.5311422
  66.1204481  70.4556227  66.6985464  66.8944407  70.2366161  68.8233089
  67.5085211  69.7214127  69.4377756  65.9187794  71.1132288  69.4179583
  64.8694181  70.9283257  69.1882658  65.9754086  71.0055923  70.9317446
  65.8101416  69.9634504  71.2051058  67.0186996  71.1997795  71.1806059
  65.0384855  71.9061708  71.8139315  65.2707338  72.9334927  71.5332699
  63.5484886  71.6267061  71.5432405  63.2836437  71.8488979  70.5095148
  63.2214165  70.6011152  71.7143631  62.9812145  72.2403574  72.2430515
  65.3404951  71.7061520  73.3154011  66.3296366  72.0622921  73.6032581
  64.5453119  72.2047281  73.8696671  65.2694035  70.6219816  73.4027052
  66.2009859  72.5698376  69.0139627  65.2121353  73.2050610  68.6575937
  67.3889256  73.0580997  69.1242075  65.2910852  45.8875513  73.8883448
  51.8147230  77.9779625  30.3656578  51.6692448  77.8183556  31.3523006
  51.0057592  78.4119701  29.9445629  52.5525522  78.6434937  30.1846099
  52.1183825  76.7569828  29.5781851  52.2710800  77.0125484  28.5296297
  53.3928728  76.0633373  30.1262999  54.0614462  76.9115162  30.2736235
  53.2389975  75.3370237  31.4510679  54.1828251  75.1093626  31.9465041
  52.5389910  75.8091021  32.1404433  52.8080130  74.3661451  31.2066317
  53.9580917  75.0806570  29.2534447  54.2479944  75.5818796  28.4877157
  50.9513140  75.7845449  29.5132256  50.1005983  75.7314634  30.3592157
  50.9703636  74.9991989  28.4690189  51.7564964  75.0063848  27.8349543
  49.9655247  73.9906406  28.2189608  48.9816570  74.4373465  28.0755591
  50.4262447  73.2221794  26.9419456  50.6037092  73.8014317  26.0358167
  51.4281750  72.8721857  27.1904206  49.6485090  71.9640684  26.6171169
  49.3602180  71.1079884  27.4691844  49.2062283  71.8286848  25.4415369
  48.4302664  71.1857700  25.3733826  49.3454504  72.5761318  24.7766709
  49.7972059  72.9675341  29.3962145  50.7785797  72.4957609  29.9204350
  48.5473537  72.7533102  29.8427320  47.7791071  73.2157135  29.3778849
  48.3042383  72.1197557  31.1349988  48.8836288  72.6622248  31.8820858
  46.8231058  72.2686481  31.5420461  46.2584209  71.6776609  30.8209538
  46.6612434  71.8912745  32.5517416  46.2872839  73.7374401  31.5379357
  46.8827868  74.4234371  32.1403337  46.4318180  74.1225529  30.5285311
  44.8502398  73.8351536  31.9566941  44.1059971  72.8761196  31.8925190
  44.3642950  75.0129986  32.3614550  43.3919144  75.0655603  32.6294374
  44.8815393  75.8766890  32.2802401  48.7147570  70.6406260  31.1479425
  49.3267870  70.1689386  32.0691943  48.3058405  69.9744368  30.0475693
  47.8480721  70.3986645  29.2534781  48.5650921  68.5702515  29.8897338
  48.3017635  68.0162048  30.7907295  47.6694632  68.0069351  28.7930369
  47.7747583  68.6413670  27.9129767  48.0074692  66.9780159  28.6698198
  46.1542034  67.8775692  29.1688371  45.8137798  68.8343811  29.5647264
  45.3166819  67.5557327  27.9377556  45.4222536  66.5403843  27.5556350
  44.2684031  67.6758099  28.2112455  45.5304813  68.2881451  27.1593213
  45.8718014  66.7497110  30.2090359  46.2704086  67.0446682  31.1797166
  44.8488617  66.3903713  30.3211117  46.3753414  65.8249474  29.9273396
  50.1156998  68.2241917  29.7393560  50.5616188  67.2474146  30.2717996
  50.8525753  69.1629887  29.0429354  50.4534340  70.0546217  28.7864590
  52.3085546  69.2256260  29.0100169  52.6114893  68.2013512  28.7927723
  52.8291464  70.0364017  27.9263997  52.3569155  71.0150957  28.0115509
  53.9084721  70.1543617  28.0224824  52.5524855  69.5554781  26.5117240
  51.5329933  69.1698551  26.5055656  52.6246881  70.3612804  25.7812691
  53.3724785  68.4007597  25.9562254  54.1419792  67.7130079  26.6457915
  53.3170271  68.1407976  24.6241713  53.8753796  67.3406363  24.3632364
  52.8105783  68.8036251  24.0547228  52.8780508  69.5495129  30.4377413
  53.8199759  68.9114761  30.7810903  52.2377253  70.4654646  31.2276816
  51.5345955  71.0233974  30.7646227  52.6316214  70.6588888  32.7066207
  53.6958504  70.8930969  32.7322268  51.9813633  71.9277334  33.3108306
  52.3457766  72.7341747  32.6744699  50.8952141  71.8766260  33.2348180
  52.3583555  72.1703863  34.7890902  53.6008120  72.8124380  35.1278877
  54.2740917  73.1621599  34.3592572  53.8230562  73.1285334  36.4907074
  54.6561050  73.7426186  36.7994571  52.9467249  72.6812077  37.4936938
  53.2011652  72.9021978  38.7774229  52.3928452  72.8291655  39.2901540
  51.7473555  72.1267080  37.0854807  50.9937811  71.9869804  37.8464079
  51.4361238  71.8606520  35.7435513  50.4847002  71.4200497  35.4845905
  52.3994398  69.4296980  33.5274220  53.3361912  69.0141773  34.2024970
  51.2620592  68.7315464  33.4554124  50.4359961  69.1079330  33.0126381
  51.0842609  67.4649572  34.1953206  51.2144327  67.5489044  35.2742600
  49.7618532  66.9115639  33.6757088  49.6551275  66.8711853  32.5916982
  49.6689653  65.9179163  34.1140389  48.4836149  67.6154804  34.2201257
  48.2039833  68.4737873  33.6092114  47.3802376  66.6101027  34.0627575
  46.4267540  66.9955254  34.4238973  47.1633863  66.3367558  33.0301094
  47.5682163  65.7282352  34.6751904  48.5586500  68.1014395  35.6941056
  47.5900507  68.5391140  35.9356809  48.8444376  67.2535467  36.3166046
  49.2875862  68.9077950  35.7750392  52.1925735  66.5201092  33.8571763
  52.6267242  65.8543634  34.8102570  52.6332569  66.3147593  32.5999451
  52.2085190  66.8119049  31.8301749  53.6943674  65.3412294  32.2473836
  53.4906149  64.4441175  32.8319979  53.5759640  64.9943018  30.7740593
  52.5851679  64.6178102  30.5197334  53.7350416  65.8720207  30.1476407
  54.5939970  63.9836645  30.2430606  55.6150150  64.3121195  30.4373431
  54.4249058  62.6776648  30.9576035  53.4094048  62.3432732  31.1698532
  54.7879267  61.9437790  30.2380753  54.9367762  62.7550793  31.9168210
  54.4227457  63.7281132  28.7222242  55.2310133  63.1525993  28.2710171
  53.5005426  63.2339096  28.4165835  54.3018007  64.7084284  28.2612991
  55.0827932  65.8633614  32.5853205  55.9301519  65.2548122  33.2478499
  55.4151821  67.0825052  32.2081566  54.7342491  67.6055765  31.6763401
  56.7528105  67.5676441  32.2700572  57.4469185  66.7363453  32.1464944
  56.9813442  68.6528826  31.2378979  56.2872028  69.4502306  31.5034080
  57.9795837  68.9932060  31.5132141  57.0269299  68.4471846  29.7223043
  58.0121899  68.1382895  29.3730974  56.3641787  67.6409388  29.4079375
  56.7085171  69.7186899  28.9270830  55.6809807  69.9342728  29.2200089
  57.3378277  70.5474043  29.2515850  56.6608429  69.6338511  27.4223256
  56.7068148  68.7245226  26.9851661  56.2888956  70.5599165  26.5725088
  55.9901190  71.7995834  26.9399619  56.1751842  72.0446396  27.9021454
  55.9726572  72.5474453  26.2613678  56.3086271  70.3049421  25.2992630
  56.5095615  69.3763971  24.9564242  56.0375071  71.0494661  24.6729422
  57.1886444  68.1302023  33.6221933  58.3302689  68.5149813  33.7701631
  56.2609625  68.3196831  34.6103430  55.3130674  68.1290483  34.3183613
  56.5890980  68.8682890  35.9240150  57.6659441  68.7994766  36.0781837
  56.2127256  70.3479242  36.0622358  55.1386404  70.4211617  36.2327766
  56.9602966  70.9469700  37.2682881  56.7734098  70.4925442  38.2412601
  58.0259848  70.9696484  37.0404863  56.7060709  71.9864607  37.4755001
  56.4697170  71.1380386  34.8052835  56.2700224  72.1985912  34.9584579
  57.5159883  71.0768700  34.5058322  55.7450390  70.8149433  34.0579224
  55.8599138  68.0719519  36.9966650  56.5645933  67.6139116  37.8414536
  54.5624304  67.8383493  36.9480848  54.0479946  68.1988430  36.1572003
  53.8868904  67.2958040  38.1767869  54.2286730  67.7962780  39.0827727
  52.3711777  67.5436926  38.1547499  51.7976189  66.9801998  37.4188042
  51.7598629  67.0916986  39.4596052  50.7030439  67.2481680  39.2434001
  51.6940403  66.0090685  39.5676661  52.1055126  67.5143337  40.4030132
  51.9988155  68.9774847  37.8420186  52.5783777  69.7256517  38.3828163
  52.2115040  69.1833019  36.7929721  50.9859371  69.2887735  38.0975080
  54.1656065  65.8308029  38.4244609  54.5659828  65.4626846  39.4821119
  54.0152216  64.9700117  37.3663354  53.6024714  65.2876997  36.5009952
  54.2896986  63.5306215  37.5426388  53.7357998  63.2263708  38.4307408
  53.7685347  62.7285004  36.2686110  52.8305960  63.2240486  36.0180116
  54.4817352  62.9467916  35.4737473  53.5080194  61.2068319  36.4256930
  53.0455923  61.0624790  37.4021268  52.6744795  60.7216215  35.2944088
  52.4275541  59.6636343  35.3826547  51.7527819  61.2836361  35.1436853
  53.2354498  60.7771635  34.3615007  54.7744751  60.3805017  36.2645626
  55.4013443  60.6248713  35.4069972  55.4029846  60.6092691  37.1252298
  54.4970036  59.3306160  36.1704850  55.7799864  63.3803415  37.8885102
  56.0603523  62.7150631  38.8984132  56.5953159  64.0846682  37.1570778
  56.0997057  64.5555258  36.4135981  58.0668211  64.2016411  37.3216057
  58.5666561  63.2459927  37.1634674  58.7041569  65.1830339  36.2693858
  58.6778116  64.7357607  35.2757287  58.1419992  66.1146116  36.3345623
  60.2557802  65.5409575  36.3559747  60.5546093  65.7127666  37.3900366
  60.7979536  64.6759701  35.9739590  60.4095602  66.8450069  35.4971504
  60.0211287  66.6207218  34.5037127  59.7457886  67.6073027  35.9050894
  61.8812275  67.2142649  35.4564357  62.1959209  67.5421143  36.4471841
  62.4638271  66.3424301  35.1588106  62.1250629  68.2194185  34.3835878
  63.1135178  68.3959866  34.2745829  61.8723774  67.9252529  33.4510016
  61.7765665  69.1539335  34.5427513  58.4378481  64.5244026  38.6974764
  59.3715525  63.9446115  39.2702127  57.7106953  65.5017090  39.3014145
  57.0347548  65.9863281  38.7283969  57.8522348  65.9807110  40.6899071
  58.8959932  66.2025118  40.9123421  57.1584749  67.3181963  41.0191488
  56.0743570  67.2745466  41.1234999  57.6939297  67.8704071  42.3419189
  57.1678591  67.2772408  43.0899143  58.7750292  67.7592325  42.4253750
  57.3908949  68.9154005  42.4071789  57.4175406  68.3671713  40.1003790
  56.9535923  68.2391882  39.2697334  57.6073837  64.8720694  41.7136288
  58.4751511  64.5282412  42.5606203  56.4461327  64.2856359  41.5707397
  55.8243942  64.6020126  40.8403683  55.9852219  63.1664944  42.3890734
  56.0094833  63.3594179  43.4615898  54.5559978  62.7908468  42.0608091
  54.5468855  62.5062656  41.0086536  54.2200089  61.8931818  42.5798607
  53.5441494  63.8299036  42.3206043  53.6266470  64.4754696  41.4462233
  52.1401310  63.3113241  42.3384619  51.4069366  64.1044283  42.4851608
  51.8213034  62.8826237  41.3883734  52.0409918  62.5889349  43.1486607
  53.5826731  64.5605993  43.6844492  54.4671297  65.1964521  43.7235689
  52.7558517  65.2550316  43.8335705  53.6102533  63.7449408  44.4069719
  56.9263983  61.9562149  42.2371769  57.0768356  61.2298203  43.2077312
  57.6132870  61.7117596  41.1113930  57.3227549  62.2509146  40.3082705
  58.4874201  60.6101751  40.7489729  57.9691267  59.6960783  41.0386419
  58.8454771  60.6313372  39.2747688  58.0754375  61.1874151  38.7400532
  59.6913338  61.3148785  39.2012835  59.2322683  59.3497896  38.6233521
  60.5260229  58.8634968  38.5134077  61.4634371  59.2714739  38.8615727
  60.4444885  57.6940870  37.8156185  61.2672567  57.1779203  37.5386381
  59.1248655  57.2606277  37.5587511  58.6688471  56.0251331  37.1151829
  59.3727636  55.2761221  36.7837071  57.2576904  55.8385134  37.0995665
  56.8272400  54.8698044  36.8928671  56.4368105  56.9060659  37.5221372
  55.3750277  56.7172813  37.4639821  56.9731045  58.1277323  38.0074859
  56.4383125  58.9329481  38.4891796  58.3237314  58.3577919  38.0318308
  59.8115826  60.4526472  41.6071844  60.1660872  59.2775393  41.7956066
  60.3604794  61.5497208  42.1038675  59.8368216  62.4127340  42.0707512
  61.6567135  61.5887880  42.8179169  62.2178555  60.7552195  42.3955679
  62.3940277  62.8722048  42.3445272  62.3849535  62.8926802  41.2547588
  61.7784548  63.6996508  42.6974010  63.8042688  63.1494617  42.8207541
  64.1605854  64.0516567  42.3235846  63.8496876  63.3665466  43.8879538
  64.7512436  62.0397997  42.4795151  64.6069288  61.1250210  43.0543613
  64.5327425  61.7721939  41.4457130  66.2073469  62.4736834  42.6647043
  66.8324518  61.6616917  42.2932100  66.4642859  63.2320642  41.9251442
  66.5898323  62.9292631  44.0343666  66.1337471  63.8054514  44.2450428
  66.5218878  62.1723509  44.6996260  67.5419950  63.2537317  44.1249371
  61.5934467  61.4901114  44.2851734  62.5910997  61.1185551  44.8985672
  60.3872442  61.7603731  44.8709726  59.6024275  61.9447756  44.2625666
  60.1320982  61.6413927  46.2974167  60.7993984  62.2638369  46.8935490
  58.6723661  62.0477009  46.5470505  58.3168364  62.8763533  45.9346485
  58.0468321  61.1967325  46.2774849  58.4588146  62.5159073  47.9550076
  58.3476782  61.6555119  49.0269613  58.1731796  62.4798298  50.0813389
  57.9426718  62.2468090  51.1104012  58.0481529  63.7523556  49.7201109
  57.9498672  64.4965696  50.3958273  58.3616734  63.8527250  48.3572435
  58.3675861  64.7571611  47.7670240  60.3346395  60.2394485  46.8713570
  60.1866627  59.2347097  46.1430025  60.7418633  60.2125549  48.1461954
  60.7543087  61.0752773  48.6712265  61.0110664  58.8507605  48.6344719
  61.5975332  58.3106041  47.8912401  61.8994808  59.0959263  49.9457550
  61.4648724  59.8766661  50.5699873  61.9788837  58.2149649  50.5826998
  63.3997917  59.4034576  49.8482561  63.8442898  58.5350752  49.3620110
  63.5738468  60.3139639  49.2748642  64.0719318  59.3370724  51.2379169
  63.9837027  58.3321333  51.9247913  64.8267174  60.3464651  51.6357136
  65.3277349  60.3546238  52.5126505  64.8031569  61.2620306  51.2099314
  59.7684526  57.9990816  49.0519524  59.7846222  56.8241739  49.2477512
  58.6074543  58.6419153  49.0110302  58.7221479  59.6403503  48.9106798
  57.3097420  57.9609346  49.0339041  57.3937893  57.1113539  49.7115803
  56.3395929  58.8859320  49.7109222  56.3213539  59.7959709  49.1112661
  55.3330564  58.4705782  49.6613312  56.5672588  59.4792366  51.0618067
  57.3392820  58.8349104  52.0482302  58.1082487  58.1226158  51.7879820
  57.1736383  59.1824627  53.3680725  57.6948881  58.5857677  54.1020012
  56.3271570  60.2472019  53.7907267  56.1689043  60.4300213  54.8433113
  55.6028748  60.9476471  52.8066444  54.9607515  61.7638969  53.1029844
  55.7331657  60.6355286  51.4540482  55.1975584  61.2801170  50.7728434
  56.7607307  57.4777126  47.6484060  55.7578373  56.7780161  47.6287937
  57.4454975  57.7893066  46.5669346  58.3115864  58.2704258  46.7631721
  57.1955919  57.4334192  45.1337671  56.2487841  57.8821945  44.8333359
  58.1921148  58.1775904  44.2527294  58.3257723  59.2386580  44.4633818
  59.2022991  57.7724743  44.3119478  57.8727341  58.0623341  43.2169628
  57.1804905  55.9151506  44.8369408  56.4066982  55.5578756  43.9280701
  58.0328321  55.0742626  45.4466438  58.5100603  55.4264164  46.2641668
  58.3541012  53.7811422  44.8599148  58.5895061  53.8722754  43.7995434
  59.5912743  53.2021761  45.4688740  59.8083496  52.3286343  44.8541260
  60.3801298  53.9314699  45.2846670  59.6581221  52.8437090  46.8974304
  60.0909758  53.5719395  47.9252911  60.3588486  54.6140242  47.8319263
  59.9904728  52.8120184  49.1090727  60.2249670  53.1938934  50.0142193
  59.4931316  51.6077948  48.8808918  59.0545702  50.6085396  49.7702026
  59.0654087  50.8607340  50.8202887  58.6804295  49.3479776  49.2158604
  58.2858992  48.5988665  49.8863697  58.7038183  49.1798878  47.8161240
  58.2910395  48.2467127  47.4622869  58.9550734  50.3142118  46.9820976
  58.6448669  50.2853775  45.9480047  59.3163490  51.5318251  47.5027037
  57.1791744  52.7658892  44.8387671  57.2701120  51.9627810  43.8884735
  56.2447214  52.7400541  45.7943535  56.3100290  53.2808971  47.1821308
  55.7971764  54.2316484  47.3275948  57.3540974  53.4210968  47.4620676
  55.6165648  52.2068405  47.9928732  55.2563524  52.4195910  48.9993954
  56.3126659  51.4147854  48.2688999  54.5098829  51.7392874  47.0860147
  53.6408997  52.3972225  47.0952368  54.3376493  50.7052946  47.3848343
  55.0897884  51.8005276  45.6745195  55.4999971  50.8181429  45.4405212
  54.0702009  52.2824526  44.6486712  53.2455635  51.4472628  44.1865110
  54.0315342  53.5836697  44.3784189  54.6230125  54.1697598  44.9500465
  53.0781507  54.1545105  43.3933020  52.2665548  53.4287310  43.3417273
  52.5504398  55.5215073  43.7511444  53.3519459  56.2534523  43.6514091
  51.7081738  55.8327627  43.1332445  51.9905281  55.5986309  45.1617908
  52.8379250  56.1481571  46.0744333  53.6665201  56.7062521  45.6641150
  52.5170374  56.2536716  47.4386024  53.0204964  56.8754148  48.1641150
  51.3331509  55.6265736  47.8721714  51.1527157  55.5837965  48.9361286
  50.4120588  55.0876904  46.9404078  49.5211506  54.7005177  47.4124050
  50.6845331  55.0546598  45.5491590  50.0091934  54.5240593  44.8943377
  53.5943508  54.1745806  41.9403601  52.7807236  54.3356705  41.0463238
  54.8490429  54.0246391  41.6218328  55.4803228  54.0549040  42.4096584
  55.5084848  53.9687634  40.2815771  55.2368784  54.8633289  39.7211480
  57.0207214  53.8980913  40.5079412  57.3021126  53.3444262  41.4036894
  57.5444412  53.4201002  39.6800852  57.6098347  55.2473021  40.7247829
  57.7694798  55.7990742  39.7984147  56.9948196  55.7580805  41.4657021
  59.0073013  55.0782585  41.3445520  59.5343590  54.0276384  41.6157103
  59.5720196  56.2223816  41.6134596  60.5464649  56.1757708  41.8749666
  59.2290831  57.1485662  41.4020872  55.0044250  52.7818108  39.3901038
  55.1117468  52.9352999  38.1885195  54.3440199  51.7330265  39.9382854
  54.3132067  51.6918802  40.9469748  53.9496422  50.5437040  39.2156553
  53.4892750  50.9847450  38.3315468  55.2316523  49.7253275  38.8635039
  54.9811029  48.9201307  38.1728649  55.9349823  50.3976107  38.3721137
  55.9299183  49.0106916  40.0129986  55.1716185  48.4447956  40.5541515
  56.7494392  48.3202505  39.8135614  56.5886307  49.9706173  40.9840870
  57.4651909  50.7005739  40.6817293  56.1991167  49.9965286  42.2364902
  56.6955185  50.6162214  42.8607273  55.4751062  49.4328642  42.6586199
  52.8578520  49.7490311  39.9254775  52.7523756  49.9835491  41.1357784
  52.0974970  48.9111471  39.2343283  52.2015762  48.5186481  37.8071356
  53.0856943  47.9090691  37.6204586  52.3578882  49.4018650  37.1877885
  50.8257818  47.8859997  37.3327160  50.8391237  47.2057533  36.4811373
  50.2061749  48.7369871  37.0498681  50.4029846  47.2936487  38.6542654
  50.7939148  46.2811995  38.7553930  49.3214846  47.2128630  38.7634778
  50.9506941  48.1934500  39.7618556  50.1095533  48.8024902  40.0929976
  51.2721014  47.2721243  40.9402084  52.3050785  46.6152573  40.9142923
  50.3109026  47.0879889  41.8879080  49.4510889  47.5942564  41.7313385
  50.2372074  46.0608149  42.9908848  51.1225605  46.3283205  43.5676813
  48.9905548  46.1480713  43.8384819  48.1417465  46.2558365  43.1631947
  48.8250494  44.9627924  44.8578358  49.6411228  44.8800135  45.5756569
  47.9147339  45.0470829  45.4514027  48.8689566  43.9825249  44.3832397
  49.0992546  47.4441051  44.7112894  50.0701523  47.4835682  45.2051592
  48.8533306  48.2298374  43.9969730  48.3446932  47.4521446  45.4978466
  50.3424597  44.5902205  42.4583006  49.6862745  44.1688442  41.4965105
  51.1236620  43.7626886  43.1126356  51.6150904  44.1518021  43.9045906
  51.4651108  42.4029779  42.7036476  51.1852169  42.3872232  41.6503096
  52.9723740  42.1759367  42.7556658  53.4793949  43.0217314  42.2912741
  53.2647800  42.1054125  43.8033438  53.4006500  40.8998156  42.0129347
  52.4858522  40.2290058  41.4687204  54.6335602  40.7154942  41.7466784
  50.7021523  41.3496017  43.5444355  51.2824488  40.4626656  44.2178440
  49.3677568  41.5025711  43.6157751  48.8938999  42.1449900  42.9970169
  48.5691166  40.6739855  44.5474958  49.0001106  40.8491993  45.5332232
  47.0808268  41.1650324  44.4690180  46.4985228  40.6507969  45.2336025
  47.1376944  42.2340775  44.6739817  46.6118193  40.9256411  43.5146475
  48.7537956  39.1556191  44.4502068  48.5924911  38.4725285  45.4590559
  49.0038157  38.6277032  43.2347584  48.8732862  39.1833854  42.4015236
  49.0555334  37.1839190  43.0475473  48.1312656  36.7200875  43.3920622
  48.9185143  36.8460822  41.5123177  48.0670547  37.4008584  41.1181879
  50.1098728  37.2121477  40.6924438  50.0280571  37.1273041  39.6088362
  50.3708935  38.2184267  41.0201311  50.9265900  36.5114713  40.8660030
  48.5836172  35.3354526  41.3221741  49.4622374  34.8100328  41.6964245
  47.7172899  35.1489997  41.9568443  48.3099127  35.0990677  40.2939224
  50.2878189  36.6536999  43.7842417  50.3048325  35.5751944  44.3472815
  51.3817120  37.4872661  43.8529015  51.2696791  38.4062934  43.4492445
  52.6642704  37.1808195  44.4349670  52.9118299  36.1200714  44.4753695
  53.7559509  37.9489017  43.5189533  53.5705328  37.7389741  42.4655485
  53.5792780  38.9981484  43.7555313  55.1483297  37.3405290  43.9123774
  55.3347301  37.2792816  44.9845743  55.2636099  36.2842226  43.6694098
  56.2465429  38.2048965  43.2663059  56.0770416  39.2590356  43.4857655
  57.1535254  37.8192449  43.7318707  56.3321972  38.0250597  41.7373085
  55.4328680  38.3994317  41.2482786  57.0947695  38.6841130  41.3222885
  56.6773272  36.7008638  41.1904478  55.8978558  36.0675335  41.2973070
  57.0223331  36.6110086  40.2454615  57.3097610  36.1989069  41.7972136
  52.8367615  37.6400375  45.9452724  53.5584021  36.9969273  46.6951656
  52.1308231  38.7044120  46.3671160  51.7070484  39.2585015  45.6367016
  51.9966221  39.1836715  47.7012777  52.9270458  38.9615941  48.2238674
  51.6060209  40.6511497  47.7883959  50.7564974  40.7913828  47.1200085
  51.3420391  40.8896160  48.8187075  52.7211571  41.5882444  47.3432207
  52.7994347  41.4349556  46.2668943  52.2210026  43.0462408  47.4728107
  51.3510227  43.0677700  46.8164730  51.8858242  43.3165264  48.4741592
  52.9752302  43.7897253  47.2150040  53.9505529  41.5833235  48.2653427
  53.6383820  41.8540907  49.2739773  54.3622875  40.5772638  48.1852531
  54.6714354  42.3326492  47.9383278  50.9504080  38.2986259  48.4104919
  50.7220221  38.4408689  49.6046543  50.2880669  37.4055552  47.6577187
  50.4832935  37.4902654  46.6703939  49.2265320  36.4076638  47.9432487
  48.9045286  36.1331081  46.9387436  49.8458242  35.1735473  48.7248039
  50.0384188  35.4237938  49.7680616  49.1070080  34.4120240  48.9744806
  51.0525370  34.5173502  47.9978418  50.9752369  33.9811182  46.9129848
  52.1898270  34.5018530  48.6479568  52.9629087  33.9613986  48.2869101
  52.2142267  34.8121047  49.6088123  47.9742193  37.0707798  48.6290884
  47.2828770  36.4175129  49.4601393  47.6593828  38.3150387  48.2539034
  48.1943560  38.7969637  47.5456285  46.4147997  38.9744091  48.7832499
  46.3150740  38.9565754  49.8685312  46.4338303  40.4228067  48.3625650
  46.0701323  40.5998278  47.3503971  45.6569815  40.9102011  48.9516735
  47.7074814  41.2592268  48.5231972  48.5378408  40.9082842  47.9104614
  47.4043608  42.6357412  47.9719877  48.2787752  43.2393742  47.7288246
  46.9791746  42.5349903  46.9734049  46.7052364  43.2848501  48.4992218
  48.2199669  41.2549210  49.9339056  48.6505318  40.2834606  50.1767826
  48.9563274  42.0577240  49.9709320  47.4531746  41.4929581  50.6711054
  45.1638937  38.1696248  48.2369995  45.1893759  37.7877665  47.0302868
  44.0891886  38.0251598  49.0290117  44.0539932  38.3199430  50.4893494
  44.1864586  39.3537450  50.8084202  44.8181152  37.6857281  50.9387779
  42.6864386  37.8709912  50.9886408  42.0537281  38.6893988  50.6451416
  42.7397776  37.6724386  52.0590734  42.4202585  36.6922116  50.0536776
  41.3613272  36.4844894  49.9000168  42.8638744  35.7386494  50.3400707
  43.0496836  37.0798016  48.7184000  43.5023403  36.2108850  48.2407141
  42.0278406  37.6726890  47.8007364  41.4185286  36.9585299  47.0086050
  41.8040514  38.9835286  47.8050566  42.3700428  39.5333815  48.4354734
  40.6747723  39.6500301  47.2905588  40.1749039  39.0192127  46.5555048
  39.7427082  39.9120975  48.5248947  38.8334274  40.3932953  48.1646729
  39.4304323  38.9043212  48.7987041  40.3844118  40.7459641  49.6838999
  41.6116047  41.0527706  49.6889067  39.7888350  40.9129286  50.7517529
  41.0076475  41.0127974  46.6942024  40.1962042  41.9407845  46.6929293
  42.1951151  41.2626171  46.1585283  42.9027176  40.5471468  46.0719109
  42.6052189  42.6404095  45.6891203  42.4575949  43.2410240  46.5866566
  44.0778923  42.8329420  45.3614140  44.6186638  42.4865675  46.2421513
  44.3087292  42.2091722  44.4978619  44.4711018  44.2736101  44.8941278
  44.6018648  45.3031015  45.8369160  44.3799400  44.9509001  46.8334675
  45.0203753  46.5876150  45.5432272  44.9728584  47.3289537  46.3271666
  45.4135323  46.8701410  44.2069387  45.7083654  48.1530094  43.8036776
  45.7484818  48.6829662  44.6031380  45.2729893  45.8822250  43.2220650
  45.5408859  46.1988449  42.2248745  44.7473717  44.5915365  43.5677147
  44.5772076  43.8623190  42.7894545  41.7234659  43.3140755  44.6245003
  41.2396574  44.3837166  44.8649502  41.5026426  42.5079203  43.5724688
  41.8328905  41.5588999  43.6744356  40.8048534  42.8027868  42.3748064
  40.9814024  43.8621998  42.1888590  41.3586807  42.0607138  41.1362123
  41.2273359  40.9948778  41.3228893  40.7499409  42.4059153  40.3005314
  42.8616047  42.2283697  40.7907248  43.7549210  41.1416483  40.9482002
  43.3814287  40.2316284  41.3940382  45.1274633  41.2374163  40.7344151
  45.7969999  40.4360485  41.0099840  45.5566597  42.5211716  40.2493715
  46.8736029  42.6399612  39.9532008  46.9681740  43.5507584  39.6649122
  44.7458601  43.6376858  39.9291468  45.1437092  44.5700550  39.5565701
  43.3634806  43.4674215  40.2554083  42.6203823  44.2459679  40.1655722
  39.3353391  42.5854015  42.4947071  38.5351276  43.2040930  41.7431116
  38.8576984  41.6604996  43.3692360  39.5315528  41.1593723  43.9303970
  37.4341893  41.5986490  43.9174366  36.7529678  41.1487579  43.1951904
  37.5116062  40.6203079  45.0830650  38.3579302  39.9768353  44.8426962
  37.7949977  41.1535597  45.9905005  36.2608838  39.7517729  45.2297544
  35.4519534  40.4780769  45.3085756  36.1243987  39.0116072  44.4413233
  36.3563466  38.8815212  46.4327383  37.1291471  38.1283545  46.2790442
  36.4976192  39.4300270  47.3640203  34.9549985  38.2477903  46.6923428
  34.5759630  37.9827857  45.7053232  35.1379633  37.3262024  47.2448826
  34.1498828  39.1325808  47.4570084  33.1830096  38.8736796  47.5920248
  34.5878720  39.3826270  48.3320761  34.1520000  39.9873376  46.9189692
  36.9061732  42.9729986  44.4279861  35.7191253  43.2356310  44.2185068
  37.7458262  43.7503624  45.1384687  38.6766005  43.3758593  45.2547264
  37.3887157  44.9544334  45.8882236  36.3352418  45.0204086  46.1601353
  38.1726456  44.8759556  47.2366858  39.2009568  44.5626116  47.0564365
  38.2857943  46.1758947  47.9834080  38.9244604  46.1409140  48.8660145
  38.8779736  46.8555641  47.3706484  37.2939515  46.5707016  48.2035923
  37.6475716  43.7608862  48.2170820  37.6914287  42.7974272  47.7092218
  38.2894731  43.6956215  49.0956068  36.2470675  43.9855289  48.8474035
  35.4629540  44.1126919  48.1010056  35.9155083  43.1551218  49.4707775
  36.1620378  44.8686314  49.4806480  37.7532244  46.1694956  45.0255108
  36.9711208  47.1155405  44.9524832  38.9323401  46.1703110  44.4341898
  39.5413160  45.3898954  44.6346855  39.4487906  47.2434711  43.5480309
  38.8592339  48.1498384  43.6859798  40.9274578  47.6110220  43.8412952
  41.4071131  46.6578865  43.6186600  41.5204000  48.7474251  42.9426622
  40.9509420  49.6657610  43.0857801  42.5448275  48.9771318  43.2357264
  41.5236187  48.4436750  41.8958473  41.3015223  47.8148413  45.2945805
  40.9118223  46.9719267  45.8653069  42.3819351  47.8007412  45.4381609
  40.5164766  48.9676571  46.0053873  39.5151901  48.6995029  46.3424635
  41.0239220  49.3127012  46.9062424  40.5593681  49.9172401  45.4719496
  39.1236329  46.9370461  42.1208715  39.9463296  46.4476728  41.3503885
  37.8725195  47.1745586  41.7918444  37.2217870  47.5988340  42.4373150
  37.4025202  47.0287132  40.4258156  37.6718354  46.0540295  40.0189209
  35.8218241  47.0830393  40.5026817  35.4686928  48.0536985  40.8508587
  35.5279589  47.0124292  39.4554186  35.1063251  46.0530233  41.2597752
  35.3681064  45.9329176  42.3110342  34.0441704  46.2978220  41.2581348
  35.4000616  44.6946621  40.5772114  35.4312086  44.8318672  39.4963312
  36.3611507  44.3665457  40.9731293  34.2686296  43.6132765  40.8765745
  34.5315027  42.6358509  40.4720497  34.1241908  43.5261059  41.9534397
  33.0312753  43.9826822  40.2580214  32.4210382  43.2083082  40.4772472
  32.5152993  44.7662163  40.6321192  33.0760813  44.1435814  39.2619276
  38.0173826  48.0548906  39.4072914  38.1484509  47.7628946  38.2347989
  38.5248637  49.1988611  39.8570919  38.3413982  49.4598150  40.8153963
  39.4338083  50.1136351  39.0499401  39.6325040  49.6426392  38.0872416
  38.7208652  51.4345646  38.6718774  38.2534099  51.9658422  39.5009303
  39.4541979  52.3573971  37.6860619  39.5851183  52.0345449  36.6532373
  38.7041283  53.1134129  37.4537945  40.3838396  52.7449465  38.1028056
  37.7330208  50.9751511  37.8116202  37.0286703  50.7067013  38.4061146
  40.8024454  50.4519176  39.7155643  40.9583378  51.4788294  40.3424358
  41.7780066  49.5268202  39.6083832  41.6650248  48.2251930  38.8991117
  41.0278177  48.3446836  38.0228734  41.1115980  47.5276756  39.5278382
  43.1692076  47.7887440  38.6536574  43.5116053  48.1600285  37.6877308
  43.2881927  46.7079258  38.5777068  43.9515972  48.5028124  39.6895790
  44.9990320  48.6124325  39.4085717  44.0004158  47.9405832  40.6221104
  43.1824636  49.8265123  39.9396348  43.3008718  50.1413488  40.9764385
  43.8035679  50.9362459  39.0139222  43.4103346  50.9559202  37.8587532
  44.8208046  51.6404295  39.5271182  45.0797033  51.5434265  40.4985428
  45.6163073  52.4771690  38.6551476  45.8698034  51.8980360  37.7672005
  44.8451996  53.7538576  38.5053396  43.8178968  53.6164188  38.1679034
  44.7485256  54.2599869  39.4658566  45.4853630  54.7678900  37.6089191
  44.7425413  55.5460787  37.4336052  46.3858652  55.2392292  38.0026579
  45.9687376  54.0967655  35.9578419  44.3941975  53.7329435  35.1546264
  44.5503330  53.3779955  34.1359305  43.8851213  52.9053354  35.6485987
  43.8444185  54.6728992  35.1063609  46.9660902  52.8099442  39.3197799
  47.1618605  52.6704693  40.5300856  48.0125284  53.0655432  38.5088205
  47.8288269  53.1883574  37.5232887  49.3892717  53.2708740  38.8870072
  49.5791578  53.4658432  39.9424839  50.2470827  51.9213057  38.6485624
  51.2156868  52.0727634  39.1249847  49.6845293  51.2228727  39.2681003
  50.5134773  51.5671635  37.2012186  49.5845652  51.0411167  36.5623331
  51.6526079  51.7260122  36.7025232  49.9816465  54.4278765  38.0746651
  49.5847416  54.6701574  36.9269013  51.0690784  55.0403166  38.5526848
  51.3558245  54.6880960  39.4548059  51.7751598  56.2437153  37.9756141
  50.9973335  56.9381523  37.6580453  52.6234055  56.9117546  39.1172147
  51.9869232  56.9149399  40.0020742  53.5214138  56.3114500  39.2632127
  53.0371332  58.3976364  38.8597870  53.8893986  58.4448624  38.1819153
  52.1718931  58.8696194  38.3942866  53.3510113  59.3402338  40.3583860
  54.4129372  58.2814741  41.2933016  53.9022827  57.3631716  41.5832043
  55.2595234  58.0153942  40.6603765  54.7876120  58.8033772  42.1738338
  52.4483156  55.9121656  36.6415930  52.6360703  56.7462969  35.7722187
  52.8931952  54.6910048  36.5666246  52.9035139  54.1589212  37.4250484
  53.3740854  54.1246605  35.2924156  54.3145895  54.5757341  34.9760485
  53.6684036  53.1052876  35.5421424  52.3583651  54.2135239  34.2021585
  52.6005173  54.7721338  33.1175518  51.1940670  53.6582279  34.4305921
  51.0726595  53.0223417  35.2058434  50.0923491  53.7399530  33.4529257
  50.4874468  53.3181047  32.5287819  48.9378023  52.8078890  33.8471508
  48.5332966  53.2001495  34.7802162  47.8499889  52.7862740  32.8108954
  48.3643055  52.6183224  31.8646550  47.0472336  52.0774412  33.0140066
  47.3534298  53.7565947  32.8140187  49.3463850  51.4157295  33.9957643
  49.5185995  51.2782574  34.9301338  49.6521378  55.2369785  33.1435275
  49.6874619  55.6296015  31.9768071  49.3480635  56.0879278  34.1522789
  49.3585730  55.7142448  35.0905490  49.1872406  57.6029921  33.9907432
  48.2328129  57.7514648  33.4856462  49.1033840  58.3437586  35.4211426
  50.0461292  58.1980848  35.9485006  48.8769245  59.8535728  35.1701975
  47.8468704  60.0819445  34.8964357  49.1554070  60.4670620  36.0270405
  49.5540380  60.3263283  34.4587779  48.0815268  57.9041100  36.4469934
  47.0604277  58.1429815  36.1496854  48.1470966  56.8250513  36.5864277
  48.3065701  58.4231043  37.9098129  48.1978369  59.4996691  38.0412817
  47.5719213  57.8916073  38.5147071  49.2810202  58.1022930  38.2780957
  50.2872562  58.3399296  33.2046866  49.9632645  59.2310190  32.4155498
  51.5966702  58.0076981  33.3733153  51.8273211  57.3481417  34.1026163
  52.6455402  58.4323454  32.4958754  52.7136230  59.5186377  32.4372745
  54.0507555  58.0004215  33.0065417  54.1881180  58.4086275  34.0078402
  54.0643644  56.9183111  33.1367254  55.1383877  58.4983158  32.1007228
  55.3172064  57.7612877  31.3178349  54.9186993  59.4131851  31.5504003
  56.4248037  58.6900949  32.8763866  57.1684599  58.9926243  32.1391249
  56.3098049  59.5353937  33.5548735  56.9261932  57.5151014  33.6864257
  56.2182856  57.2929621  34.4849396  56.9996452  56.6613770  33.0127311
  58.2858086  57.7804995  34.2538762  58.3001947  58.7086678  34.6518779
  58.5722208  57.1144772  34.9570704  58.9924288  57.7505445  33.5328412
  52.3740435  58.1204510  30.9896588  52.2211170  58.9981365  30.1732802
  52.1350718  56.7983341  30.7538700  52.2087955  56.1487341  31.5237331
  51.7645121  56.2633657  29.4536471  52.4777555  56.4773512  28.6576605
  51.7011070  54.7807169  29.5456266  51.8855143  54.3639088  30.5357623
  50.7466650  54.4300747  29.1529608  52.6968622  54.0143967  28.6530781
  52.6388788  54.3096542  27.6054335  53.6627197  54.2571020  29.0961409
  52.4708033  52.5060987  28.5837221  52.2975588  52.0198154  29.5437336
  51.6048908  52.2627592  27.9680252  53.6546755  51.9330215  27.7925634
  53.5835934  52.4550962  26.8383694  54.6255779  52.1390629  28.2431245
  53.5520935  50.4516029  27.5528932  53.8095427  49.8602247  28.3301258
  52.5959778  50.2303171  27.3141956  54.1776609  50.1556396  26.8172479
  50.4678822  56.9021082  28.8727880  50.3449678  57.0483923  27.6380658
  49.4557858  57.1723413  29.7521758  49.5508337  56.8619394  30.7085848
  48.2445288  57.9347706  29.3282819  47.7709723  57.3881483  28.5127759
  47.1885252  57.8057909  30.4830837  47.6383734  58.0268049  31.4510155
  46.3298607  58.4303856  30.2367496  46.5852737  56.4103651  30.5962443
  46.2231112  56.0535669  29.6320701  47.3811340  55.6933117  30.7976031
  45.5774975  56.2809944  31.7362046  45.9883022  56.4166164  32.7366781
  44.7700357  57.0058346  31.6326618  44.8588800  55.0543594  31.6169095
  45.2435589  54.3284941  31.0293388  43.6368084  54.7565079  32.0508122
  42.9745436  55.4710960  32.9131126  43.4384155  56.2051249  33.4289813
  42.0734549  55.1490450  33.2362533  43.0739832  53.5978889  31.8898821
  43.4337664  53.0125856  31.1495614  42.1111155  53.4027910  32.1242380
  48.4877300  59.3326950  28.8444304  47.9164314  59.7502995  27.8850365
  49.3123007  60.1073265  29.5964456  49.7579288  59.5802879  30.3338361
  49.8154593  61.3788080  29.1521120  48.9092922  61.9564915  28.9697742
  50.6327438  62.1491528  30.2223182  51.3835526  61.4665699  30.6203914
  51.2504673  62.9237843  29.7679257  49.7272825  62.5630903  31.4128947
  48.9410162  61.8213844  31.5534329  50.5260944  62.6548767  32.7374506
  50.8709764  61.6251564  32.8314972  51.3503313  63.3681297  32.7347493
  49.8565197  62.7899551  33.5868764  49.1642427  63.9795160  31.1355877
  50.0006485  64.6665859  31.0072994  48.4566927  64.0445709  30.3090000
  48.6109543  64.2839098  32.0240259  50.5637693  61.1774206  27.7322602
  50.2871895  61.9373369  26.7741227  51.5553904  60.2895737  27.7253652
  51.8153334  59.8616409  28.6025214  52.5063944  59.9662828  26.6311026
  53.0665445  60.8582020  26.3503671  53.5337162  58.9008045  27.1328950
  54.3926954  59.3780899  27.6045489  53.0170727  58.2906628  27.8737760
  54.0886784  57.9714203  26.0401058  54.6664858  57.1934700  26.5391445
  53.1834269  57.5801468  25.5758619  55.0597334  58.5255575  24.9753952
  55.2186251  57.8390265  23.9275789  55.4316711  59.7281361  25.0864458
  51.8533802  59.5506716  25.3417945  52.3107815  59.9658155  24.2791176
  50.7583189  58.7864256  25.3931260  50.5409861  58.4606981  26.3241315
  49.8243380  58.4501839  24.3340874  50.4101419  58.4978247  23.4161186
  49.2301321  57.0453644  24.5159435  48.6184835  56.9946623  25.4167295
  48.4577894  56.7325735  23.8132691  50.1871967  55.8945608  24.5065904
  50.9841442  55.7380247  23.6218500  50.1455355  55.0154448  25.4964876
  50.7551956  54.2131948  25.5658627  49.4884872  55.2409506  26.2296557
  48.6347342  59.4190025  24.0572762  47.7267456  59.1891909  23.2432866
  48.5834312  60.5671310  24.7984862  49.3741751  60.6602001  25.4199028
  47.5520849  61.6386509  24.7040367  47.8458786  62.4306345  25.3929138
  47.5681973  62.3624611  23.2845068  47.2379684  61.6604519  22.5188446
  46.8972349  63.2214689  23.2887697  48.9279413  62.9848480  22.9312396
  49.5963144  62.6419830  21.9876862  49.2530012  64.0430689  23.6498523
  49.9987316  64.6504164  23.3414412  48.6323452  64.3736839  24.3748236
  46.1165762  61.2844324  25.0571299  45.1323843  61.8192959  24.5614934
  45.9341955  60.2568960  25.9229183  46.7825508  59.7295713  26.0723329
  44.6241570  59.6591711  26.2520695  44.0129185  59.4578743  25.3723145
  44.9574566  58.3546638  26.9894028  45.7338285  57.7407169  26.5328717
  45.4235840  58.6191273  27.9385591  43.7427044  57.4652100  27.2676802
  43.2344103  56.5453386  26.3504839  43.5646200  56.4988708  25.3232479
  42.1917677  55.6850004  26.7115045  41.7458010  55.0274944  25.9799337
  41.6156149  55.7624531  28.0012965  40.3555727  55.2244997  28.1943274
  40.1928806  55.1984358  29.1400814  42.1837997  56.6899395  28.9579725
  41.6815281  56.7109823  29.9138427  43.2406902  57.4974060  28.5534430
  43.5889292  58.2197523  29.2768693  43.6959219  60.5120897  27.0887065
  42.4554443  60.2609587  27.1144724  44.2580175  61.4959335  27.7789044
  45.2670050  61.4606047  27.7506518  43.5332584  62.4920559  28.5418487
  42.6564026  62.0172405  28.9820504  44.3236256  63.0068445  29.7064185
  45.1473618  63.6100769  29.3247509  43.6758232  63.7297964  30.2021909
  44.7301579  61.9345284  30.6881857  43.7935209  61.1293840  31.3396978
  42.7639580  61.3568687  31.1059117  44.1694975  60.2209854  32.3345733
  43.3945274  59.7371721  32.9105425  45.5250645  59.9661827  32.6322103
  45.8870792  59.0884686  33.5493016  45.1000834  58.6462498  33.8759184
  46.4710951  60.7192945  31.9372177  47.5218821  60.5117750  32.0757079
  46.0664415  61.6386604  30.9531832  46.8192339  62.2961378  30.5439925
  43.0273771  63.6230564  27.6395273  43.8210917  64.3710709  27.0569825
  41.7113352  63.7213945  27.5353336  41.1286163  63.1396103  28.1202054
  41.0589170  64.8089123  26.8068552  41.6400671  65.1669693  25.9570551
  39.5797825  64.4087696  26.4368939  39.5855331  63.5643673  25.7476544
  39.1062784  63.9598989  27.3100543  38.8062358  65.5510759  25.7982469
  37.9249668  66.4303684  26.3579226  37.6144528  66.4444733  27.3922253
  37.4766111  67.2844887  25.4035091  36.8478560  68.0680609  25.5073619
  38.1010437  67.1327877  24.2025685  37.9876113  67.6952457  22.9915452
  37.2862148  68.5068464  22.8660703  38.8190413  67.3132944  21.9400644
  38.6909771  67.7223873  20.9487796  39.7655845  66.3292933  22.1054983
  40.4310179  66.0396099  21.3056946  39.8439860  65.6371832  23.3040524
  40.5033016  64.7891092  23.4157515  39.0280986  66.0532188  24.4337320
  41.0978508  66.1481047  27.6027322  40.9247112  67.2399664  27.0579100
  41.2615633  66.0402393  28.9134431  41.2494326  65.1322508  29.3556070
  41.4189339  67.2807980  29.7270250  41.7880583  68.1132317  29.1279411
  39.9964619  67.5585365  30.2397633  39.3431020  67.5582743  29.3672800
  39.6927524  66.8138075  30.9754539  39.8081899  68.8440609  30.9912443
  40.0343275  68.9050817  32.1895194  39.5336819  69.9611759  30.3522277
  39.4844890  70.8385658  30.8500862  39.1878653  70.0072670  29.4043946
  42.2660351  66.9767046  31.0148168  42.3194027  65.8364582  31.4373040
  43.0077839  67.9868984  31.5092158  42.9470968  68.9180231  31.1226702
  43.7045288  67.9380274  32.8290200  44.6101093  67.3378944  32.7403355
  44.1053009  69.4368982  33.2652760  44.7567844  69.2972898  34.1279316
  44.7148180  69.8212719  32.4474454  43.2478285  69.9922132  33.6453700
  42.9710674  67.3174763  34.0168285  43.5837412  66.5082073  34.7789240
  41.6770649  67.4869919  34.1443825  41.2584686  68.1095314  33.4681273
  40.8399153  66.8418121  35.1037192  41.3518715  67.0066071  36.0517931
  39.5160770  67.5820446  35.0669789  39.7272968  68.6494017  35.1320457
  39.0853834  67.4709654  34.0718579  38.6059189  67.1671820  36.2026477
  37.8360629  67.9382992  36.1742330  38.2500386  66.1557436  36.0065866
  39.2194176  67.1234322  37.6405478  40.1278496  67.8733206  37.9849052
  38.7052178  66.3574266  38.5389137  39.1640615  66.3247013  39.4380736
  37.9410315  65.7482195  38.2839894  40.6499338  65.3233051  34.9475622
  40.7123041  64.6235991  35.9551978  40.6058884  64.7671509  33.7961817
  40.7642698  65.3828001  33.0113244  40.5898142  63.2858515  33.6050582
  39.7255039  62.8611135  34.1156030  40.5272150  62.9047775  32.0961905
  41.4212179  63.2370758  31.5685225  40.5340862  61.8174314  32.0204854
  39.3281388  63.5569286  31.4803290  38.3872390  63.5145760  32.0289779
  39.4985318  64.6297598  31.3902855  39.0351081  63.0001307  30.1136160
  37.8536344  63.1064892  29.6940541  39.9281216  62.4976683  29.4294930
  41.8213415  62.7096319  34.3226528  41.7181206  61.6112471  34.9614239
  42.9779100  63.3187485  34.1834998  42.9759932  64.1017675  33.5455537
  44.2665243  62.8943157  34.7261143  44.4503069  61.8413973  34.5123625
  45.4375458  63.7041950  34.1900158  45.4181910  63.8677979  33.1125402
  45.3960943  64.7288513  34.5594358  47.0605707  63.1086874  34.6661210
  46.7504025  61.8425846  34.3734145  44.2059612  62.9669094  36.2436604
  44.5392990  61.9351435  36.8574715  43.7749481  64.0744305  36.7478442
  43.6392689  64.8284197  36.0896683  43.5953999  64.3675089  38.2224941
  44.6247387  64.2503834  38.5613728  42.9123497  65.7323074  38.3829784
  42.0888472  65.8280993  37.6753283  42.3841095  66.1490345  39.7810268
  43.2147121  66.1782265  40.4862547  41.8778992  67.1085119  39.6749783
  41.6920996  65.3850269  40.1352930  43.9097118  66.8658924  38.0295062
  44.7565174  66.8780327  38.7157083  44.2142153  66.5976810  37.0178556
  43.5308743  68.2950115  37.9297137  42.6123810  68.4502125  37.3636985
  43.3681965  68.7002707  38.9284134  44.1531324  68.9167929  37.2860622
  42.7362585  63.2491350  38.9085174  43.0841446  62.8035688  40.0107431
  41.6336632  62.8881311  38.2775283  41.3994598  63.3146811  37.3924828
  40.6920099  61.8681574  38.7621307  40.3802633  62.0607471  39.7886944
  39.3955445  62.1292448  37.9925847  39.2005825  63.2010126  37.9551387
  39.6661520  61.8745327  36.9678926  38.1915784  61.2294102  38.4568620
  38.3729076  60.2594376  37.9938579  38.1644678  61.0181379  39.5258474
  36.8016338  61.9354820  38.1542301  36.1791539  62.5642109  38.9874697
  36.3115716  61.8285704  36.9375420  35.5010009  62.3229504  36.5930581
  36.8193841  61.1967134  36.3350606  41.3332987  60.4352331  38.7259960
  41.1444283  59.7221375  39.7074008  42.2236586  60.0688410  37.7991152
  42.4371433  60.8055449  37.1420097  43.1122589  58.8977098  37.9185605
  42.5718689  57.9658604  38.0850887  43.8557529  58.6930609  36.5436459
  43.9938307  59.6820784  36.1067438  44.8124552  58.1915951  36.6897678
  43.1652975  57.8490114  35.4876685  41.9857311  57.4228716  35.6578183
  43.6922216  57.7717400  34.4038177  44.1695213  58.9222050  38.9870286
  44.3798304  57.8834057  39.6510458  44.8663282  60.0672865  39.1637754
  44.7276735  60.8526516  38.5440326  45.7696486  60.3045845  40.2544308
  46.5394163  59.5348072  40.1996040  46.3542461  61.7109585  40.2657270
  45.6250381  62.3790264  39.8074293  46.5843296  62.0614576  41.2718678
  47.7284765  61.8141937  39.5809460  48.8634872  61.5310526  40.3178072
  48.6942053  61.1556530  41.3162184  50.0915241  61.7043591  39.6670628
  51.0492992  61.4759111  40.1107788  50.1858807  62.3363400  38.4084296
  51.1778069  62.4671602  38.0017734  49.0546560  62.6188755  37.6577044
  49.2068338  63.0281973  36.6699314  47.8131771  62.3005056  38.2773685
  46.8834734  62.4368906  37.7449703  45.1326084  60.0329733  41.5890074
  45.6700754  59.2400455  42.4442720  43.8789368  60.5769539  41.7515612
  43.6281109  61.2634993  41.0545397  43.0358934  60.5349827  42.9137135
  43.6051321  60.7774925  43.8110781  41.9148779  61.5786076  42.7636528
  42.3305750  62.5816822  42.8592491  41.4091825  61.4622164  41.8050957
  40.7008982  61.4297485  43.7549877  39.5898938  61.1588669  43.2821369
  40.9089184  61.5746403  45.0450039  40.1520443  61.5127516  45.7108974
  41.7861891  61.8458986  45.4656076  42.5452232  59.0910053  43.1427050
  42.6894808  58.5809469  44.2095947  41.9183350  58.4112024  42.1658278
  41.8458176  58.8567734  41.2623310  41.5200377  56.9830465  42.2006178
  40.8531284  56.9713926  43.0627060  40.8654737  56.6017437  40.8522654
  41.6975927  56.6564894  40.1503515  40.3172064  55.1603317  40.9424591
  39.7393656  55.0627136  41.8615246  39.7001243  54.9648190  40.0654888
  41.1591911  54.4722414  40.8670139  39.8349881  57.4617910  40.4344749
  40.1667500  58.3626032  40.4258299  42.6145601  56.0675097  42.6650763
  42.4150085  55.3372717  43.5850763  43.8060427  56.1960554  42.1206760
  43.9629698  56.8108082  41.3348293  45.0254536  55.6411743  42.7250671
  44.7738695  54.5815182  42.6810694  46.3031292  56.0105610  41.8406630
  46.2837219  55.4751539  40.8914185  46.3466930  57.0906591  41.7007160
  47.7102518  55.5289602  42.4858809  47.8096962  56.0601139  43.4325027
  47.5501966  54.4607401  42.6321554  49.2393351  55.8424044  41.5658903
  49.1719580  57.6963186  41.5507936  49.2622042  58.1098270  42.5552654
  50.0348711  58.1880188  41.1016607  48.2563257  58.0385590  41.0685158
  45.2957582  55.9407377  44.1877794  45.3795862  54.9236155  44.9180365
  45.3515530  57.2133303  44.6682739  45.4738235  58.0379009  44.0979767
  45.3811169  57.3857975  46.1124563  46.2492895  56.8178415  46.4468336
  45.6078386  58.8355494  46.5120506  44.7311687  59.4321489  46.2598276
  45.7829714  58.9578819  47.5809097  46.8371153  59.4878483  45.8144331
  48.0923939  58.8162374  45.8407784  48.2021046  58.0153942  46.5570307
  49.1627502  59.4071627  45.2461243  50.1020527  58.8757420  45.2873945
  48.9728689  60.5383348  44.3981600  49.7884464  60.8927631  43.7852859
  47.7078104  61.2264538  44.3587160  47.5876045  62.1324539  43.7832880
  46.6389084  60.6276178  45.0002956  45.6277180  60.9901810  44.8887348
  44.2215347  56.6920614  46.8178320  44.3799829  56.1227560  47.9147863
  43.0045366  56.7278099  46.2667847  42.9259491  57.2184086  45.3874493
  41.8369246  56.1767197  46.8849707  41.7525721  56.5832043  47.8928185
  40.6112623  56.6444016  46.0092402  40.6163359  56.1487007  45.0384903
  39.3234086  56.4205742  46.5931606  38.5881305  56.7727852  45.8696795
  39.2603660  55.3766632  46.9003630  39.3282819  56.9343233  47.5544739
  40.5927801  58.0942774  45.8077717  41.3583088  58.3556890  45.2908278
  41.8722820  54.6325636  47.0418692  41.5912390  54.0567589  48.1021023
  42.4878979  53.9240503  46.1014843  42.8546524  54.3841839  45.2805853
  42.7916384  52.4812508  46.2215185  41.8448544  52.0214987  46.5049267
  43.3327913  51.9866371  44.8398495  44.3150854  52.4376917  44.6993160
  43.3358002  50.9109306  45.0157785  42.3550034  52.1616268  43.6565018
  41.1367512  52.3428679  43.7671471  42.8612328  51.9335222  42.4664068
  42.3054409  51.8703985  41.6254473  43.8640976  51.8469048  42.3835707
  43.7448406  52.1050930  47.3240471  43.4730864  51.1640739  48.0751610
  44.8205900  52.9376602  47.5482225  45.0297022  53.6619473  46.8760729
  45.6243753  52.8575563  48.8313198  45.8879566  51.7999268  48.8237762
  46.7886400  53.8448524  48.6582899  47.3040342  53.6551762  47.7167511
  46.4423609  54.8631382  48.4814310  47.7319145  53.8487911  50.2145910
  47.5740957  55.1609564  50.4100943  44.7882318  53.0712843  50.0695086
  44.9234676  52.3392296  51.0245848  43.9728212  54.1088438  50.1289129
  43.8414860  54.6730804  49.3015766  43.1079006  54.4868040  51.3145971
  43.7191343  54.6362448  52.2046328  42.3591614  55.8526373  51.2750340
  41.5928936  55.7031441  50.5143881  41.8126822  55.9862661  52.2086382
  43.1848145  57.0668221  50.7795525  44.4852734  57.2501755  51.1820316
  44.9831581  56.5637493  51.8508625  45.1534271  58.4091806  50.7708979
  46.1339331  58.5430717  51.2034273  44.4940090  59.4246149  50.0168133
  45.1050997  60.6675482  49.7670269  44.4983006  61.3043165  49.3824148
  43.1632757  59.2219400  49.6203470  42.6385164  60.0810957  49.2293549
  42.4996328  58.0848074  50.0255919  41.4813757  57.9095840  49.7111702
  41.9383574  53.4871006  51.6985083  41.4917517  53.4042263  52.8867531
  41.4348555  52.8227520  50.6605339  41.7849827  52.9734373  49.7252226
  40.4974079  51.6829824  50.8048010  39.7622943  52.0220184  51.5347052
  39.7451138  51.3001156  49.4686127  40.5416155  51.1604023  48.7377501
  39.0422130  49.9150229  49.5987129  38.5705900  49.9166107  50.5813932
  38.2949185  49.6337986  48.8567114  39.7638249  49.0986204  49.5692730
  38.7515974  52.3383856  49.0139771  37.8025675  52.2338772  49.5398331
  39.1421175  53.3410263  49.1880560  38.4895349  52.1541739  47.5170231
  39.2215371  52.6073647  46.8485212  38.4065533  51.1343956  47.1411657
  37.5558710  52.6296997  47.2166061  41.2805271  50.4881668  51.3682270
  41.0153103  50.0601339  52.4843836  42.1239996  49.8610640  50.5433273
  42.0885372  50.1698828  49.5823526  42.7322102  48.5521793  50.9160566
  41.9053936  47.9173040  51.2344933  43.2376385  47.8928566  49.6245289
  42.5558853  48.0443335  48.7876511  44.0957403  48.5065460  49.3504095
  43.4586668  46.4473152  49.6772718  42.3594952  45.6200218  49.4936943
  41.4338827  46.1031771  49.2176294  42.4828720  44.2240906  49.6727848
  41.6416597  43.6271191  49.3528032  43.7435055  43.6625957  49.9724340
  43.9253759  42.2973156  50.0771999  43.2247734  41.7288256  49.7492170
  44.8010969  44.5341921  50.3455925  45.7815599  44.1313028  50.5524158
  44.6837997  45.8880424  50.1918507  45.5176306  46.5124273  50.4769278
  43.6880445  48.5611153  52.0860243  43.7409258  47.5678778  52.8328609
  44.5726967  49.6087551  52.2864962  44.5560169  50.3775120  51.6316366
  45.6297827  49.6887350  53.2943821  45.7801962  48.7141514  53.7587786
  47.0067215  50.1042604  52.8456020  46.9034433  51.1302614  52.4923944
  47.7287674  50.3367233  53.6283588  47.5496054  49.3505573  51.6727161
  47.8191137  48.1666517  51.6930628  47.9983950  50.0955725  50.6470203
  48.4315872  49.6227789  49.8666954  47.8807783  51.0985136  50.6662273
  45.2371597  50.4669619  54.5930719  44.2330122  51.1724997  54.6590090
  45.8726072  50.1091862  55.6925631  46.7092037  49.5507908  55.6009007
  45.5428982  50.2858210  57.1045113  44.6695423  49.6786833  57.3426962
  46.7463303  49.6884441  57.9662275  47.0824194  48.7296963  57.5713348
  47.5905704  50.3763294  57.9195452  46.3748121  49.4793177  59.4493103
  46.2441635  50.4927874  59.8286533  45.4287291  48.9515448  59.5696640
  47.4511576  48.7844515  60.2195072  47.4900675  47.7412367  59.9059868
  48.3835316  49.2695332  59.9305725  47.2952032  48.7916374  61.7298079
  46.2634134  48.5479546  61.9830513  47.8499222  47.9728317  62.1880054
  47.7129316  50.0473738  62.3332596  46.9885445  50.7508039  62.3098946
  48.0748940  49.8773146  63.2607079  48.5572529  50.3431749  61.8645048
  45.2008390  51.7591667  57.3797131  45.9601068  52.6152468  56.9189692
  44.1112661  52.1243668  58.0989647  43.0179453  51.2402344  58.5376930
  43.3805275  50.2601385  58.8475895  42.3396015  51.0982323  57.6963949
  42.3438406  51.9704008  59.6570826  42.8801966  51.8093872  60.5922270
  41.2979889  51.6781521  59.7513103  42.3860693  53.4415722  59.1031694
  42.5009823  54.1471148  59.9260330  41.4775705  53.5360670  58.5083580
  43.7206745  53.4767199  58.3870792  43.6002970  53.9864826  57.4311733
  44.7820997  54.1277075  59.2661667  45.2404976  53.5830545  60.2650928
  45.1347923  55.3087807  58.9573908  44.7110605  55.7199192  58.1379271
  45.8794975  56.2173557  59.7889280  45.9076166  57.1715975  59.2628765
  45.4068661  56.2474060  60.7706690  47.3210669  55.6341028  60.0491953
  47.9461384  55.8412743  61.1391163  47.9981375  54.9900389  59.0876818
  47.5780439  55.0039005  58.1692982  49.3667173  54.3018961  59.1252422
  49.9837637  54.8208857  59.8587370  49.2073059  52.7916479  59.4766569
  48.2256508  52.7342606  59.9469423  49.1155624  52.2031689  58.5637665
  50.2118778  52.3073626  60.5029345  51.3481808  52.9099941  60.6127310
  49.9478865  51.2585926  61.1754751  50.1557875  54.4256401  57.7845430
  49.5527220  54.4791222  56.7425585  51.5214825  54.3529892  57.8227234
  51.8843699  54.2757130  58.7621117  52.5163984  54.5516586  56.8008566
  53.0235434  55.4686880  57.1007919  53.6002445  53.4615326  56.8384981
  54.2673302  53.4712887  55.9765244  54.2931890  53.7875843  57.6141405
  53.1239271  52.0386410  57.1828556  53.6278200  51.3928270  58.1255722
  52.3404837  51.5634155  56.4052820  51.9332886  54.8054600  55.3856087
  51.8099260  55.9685373  54.9974632  51.7296743  53.7784576  54.5494318
  51.7192316  52.8587961  54.9668169  51.4348841  53.8840055  53.1391144
  52.2640133  54.4369936  52.6976967  51.3209820  52.5600195  52.3851681
  52.1833181  51.9123554  52.5433016  50.0150013  51.7794847  52.6563311
  49.9676657  51.7509127  53.7449265  49.2483044  52.4588203  52.2837925
  50.0309086  50.8006668  52.1769953  51.6251659  52.7650261  50.9077930
  51.0108995  53.5711861  50.5066872  52.6087856  53.2315922  50.9617329
  51.7298937  51.5984631  49.9593687  52.5509691  50.9371090  50.2360487
  50.7616663  51.0997915  49.9150515  52.0286703  51.9566202  48.9742041
  50.2362347  54.8046207  52.9202032  50.1658535  55.5587435  51.9507217
  49.2402697  54.8191404  53.8303709  49.3398285  54.3330956  54.7101164
  48.1051016  55.7487583  53.7188768  47.8336668  55.8179760  52.6654863
  46.9556522  55.1741791  54.6899319  47.3832607  54.8219442  55.6286478
  45.9709930  56.2079811  55.1373482  46.4465952  56.8314362  55.8944511
  45.6415510  56.8553829  54.3246698  45.1275349  55.7361221  55.6413651
  46.2920046  54.0019083  53.9649487  47.0557213  53.2570744  53.7411833
  45.4896355  53.5329866  54.5345211  45.8608770  54.4225025  53.0564737
  48.4343815  57.1952581  54.0763092  47.9172230  58.1504917  53.4919643
  49.3348551  57.3382139  55.0210285  49.6660328  56.4542294  55.3801823
  49.8788643  58.6757994  55.4277802  49.0473366  59.3805122  55.4343224
  50.5736542  58.5824680  56.7453718  51.4110279  57.8898954  56.6602802
  51.0559273  59.5318317  56.9782352  49.7858047  58.0507183  57.9782248
  49.5099449  57.0595884  57.6181316  50.6458807  57.9896259  59.2565346
  51.6144037  57.5200129  59.0846825  50.7903671  58.9863014  59.6735048
  50.1485252  57.3827410  60.0131226  48.5182142  58.9360046  58.2447290
  47.8240776  58.9464092  57.4043894  48.0504179  58.5777235  59.1617393
  48.9035988  59.9430180  58.4044218  50.8095932  59.2628670  54.3001127
  50.8421326  60.4620504  54.0188169  51.6473484  58.3657551  53.7090302
  51.6578579  57.4648094  54.1654205  52.4448156  58.6061668  52.4718618
  53.1702614  59.3638182  52.7681589  53.2793760  57.3204374  52.1073008
  52.5978994  56.4865732  51.9388962  53.7687969  57.5111628  51.1522150
  54.3820286  56.8735886  53.1001329  55.2958679  57.3982000  52.8212309
  54.1565371  57.2592402  54.0943813  54.8044300  55.1702499  53.1087351
  55.5078173  55.0572348  51.3427687  56.0762691  55.9769630  51.2046766
  56.1572123  54.1863871  51.2532473  54.7236490  54.9671412  50.5910635
  51.6884947  59.0529108  51.2687397  52.1075296  59.9177742  50.5589199
  50.5729771  58.4037352  51.0672045  50.4173183  57.6288939  51.6960907
  49.6922016  58.5523033  49.9393225  50.4460621  58.6434317  49.1573429
  48.7808847  57.3763561  49.7533894  49.3342876  56.4469051  49.6193409
  48.2113171  57.1407080  50.6523752  48.1543493  57.4606943  48.8654470
  48.8722229  59.8739481  49.9632835  48.6326551  60.5366850  48.9986801
  48.3494997  60.1775789  51.1263037  48.5040998  59.5279503  51.8840551
  47.7734137  61.4996767  51.4434671  46.9703436  61.6931725  50.7323170
  47.3085880  61.3983202  52.9177809  46.7010117  60.4933691  52.9212284
  48.1321192  61.4315510  53.6310720  46.4407301  62.7199936  53.0395699
  47.0436668  63.6190414  52.9119396  45.6634998  62.7445078  52.2757483
  45.7573366  62.7136278  54.3451786  45.9396648  63.6174154  55.1813221
  44.9795151  61.7858028  54.6362448  48.8279486  62.6475143  51.2532616
  48.5338926  63.4996033  50.4166269  50.0205755  62.5787592  51.8165779
  50.2262831  61.7441082  52.3468065  51.1285925  63.5053349  51.6125250
  50.8402061  64.4393301  52.0947981  52.3776674  62.9615736  52.3894930
  53.2155561  63.6586666  52.4004745  52.1833706  62.8857565  53.4593534
  52.6217604  62.0217419  51.8942785  51.4638376  63.6788130  50.1608038
  51.6806650  64.7988939  49.7191572  51.4255047  62.6878977  49.2754936
  51.3331318  61.7854357  49.7194862  51.6020060  62.7716923  47.8468227
  52.3855639  63.4721518  47.5578642  51.9147015  61.3850498  47.2518206
  51.1734915  60.7263184  47.7043486  51.7771244  61.3725424  46.1706114
  53.2786036  60.8321190  47.4766016  53.4805727  60.4909897  48.4919548
  53.4413624  59.4867849  46.6937304  53.2312632  59.7003555  45.6457090
  54.4537544  59.0969992  46.7996788  52.7368164  58.8092184  47.1760368
  54.3711376  61.6871929  46.9032907  55.3673601  61.2709856  47.0529985
  54.2692184  61.6914701  45.8180714  54.3844700  62.6383352  47.4355030
  50.3274632  63.4303522  47.2279406  50.4976416  64.3276310  46.4746428
  49.1047621  63.0747080  47.6144648  48.9170218  62.2922564  48.2248974
  47.8809500  63.7675190  47.1479750  47.8632021  63.6115932  46.0693312
  46.6709518  63.0720711  47.6847219  46.7182636  62.0148087  47.4238253
  46.5161276  63.2293081  48.7521505  45.3924131  63.5103941  46.8022346
  45.2288485  64.5740080  46.9756413  45.6621027  63.3751392  45.7548189
  44.1495466  62.7262354  47.2663593  43.3717918  62.3576832  46.3721657
  43.8734865  62.6645088  48.4871149  47.8497839  65.2891016  47.3874044
  47.6064777  66.1303139  46.5247059  48.2019091  65.7123899  48.6050987
  48.2957411  64.9455500  49.2556763  48.4707737  67.0695305  49.0283203
  47.5456285  67.6243210  48.8720751  48.8572121  67.1106863  50.5017281
  49.5718241  66.3674784  50.8553886  49.2976761  68.0862761  50.7074308
  47.5958490  66.9778013  51.3952971  47.0631456  67.9286289  51.4110708
  46.9257641  66.2134600  51.0017729  47.9052162  66.7225409  52.8965282
  48.3244658  65.7180262  52.8392029  48.6655140  67.4331713  53.2206488
  46.6171169  66.7779493  53.6701679  46.2024069  67.7855587  53.6410761
  45.8775616  66.0444164  53.3491039  46.8614054  66.4116287  55.0495434
  46.0077190  66.4474344  55.5880976  47.2345209  65.4760027  55.1236534
  47.5026941  67.0658398  55.4748201  49.5561266  67.7851534  48.1962490
  49.3254280  68.8507175  47.7508545  50.6710672  67.1503544  47.8569651
  50.7962608  66.2054634  48.1910372  51.7461109  67.5894594  46.9823074
  52.0820284  68.5865879  47.2669029  52.9596710  66.6493034  47.2618723
  53.0219030  66.6312170  48.3499432  52.6372480  65.6871557  46.8638468
  54.3401146  66.9110632  46.6757298  54.3622112  66.9009209  45.5859995
  54.6780157  68.3006907  47.1694946  54.1212606  69.0690804  46.6331100
  54.3887234  68.3437824  48.2195234  55.7207203  68.5919142  47.0427513
  55.3676367  65.8964443  47.1935177  55.2328682  64.8277092  47.0269632
  56.3231993  66.0920572  46.7069578  55.5145741  66.0869312  48.2566404
  51.2661457  67.6718807  45.5249166  51.6049004  68.6233521  44.8262978
  50.4792881  66.6522932  45.0710869  50.1667976  66.0400963  45.8111286
  49.8066282  66.6546392  43.7650776  50.6136036  66.5971518  43.0346060
  49.0088749  65.3489971  43.5407162  49.6550226  64.4749880  43.6225653
  48.2209015  65.2642918  44.2890644  48.4051037  65.2870750  42.1636629
  47.0155668  65.1136112  41.9679785  46.3537550  65.0966740  42.8212833
  46.4533472  64.9702930  40.6900978  45.3967667  64.7558022  40.6265974
  47.3655081  65.1101780  39.5650649  46.9451523  65.0750780  38.5708499
  48.7191725  65.2697945  39.7903681  49.4167519  65.3280497  38.9679337
  49.2347002  65.2720261  41.0992193  50.2893114  65.4192162  41.2795877
  49.0090704  67.9427290  43.6949778  49.2945719  68.8355589  42.9232740
  48.0284214  68.1618977  44.6294737  47.8545427  67.4117708  45.2830648
  47.0860147  69.3690014  44.6966553  46.4291811  69.3827295  43.8268995
  46.3435698  69.2308474  46.0312939  47.0398712  68.8488817  46.7778683
  46.0731888  70.1976395  46.4559174  45.0525284  68.3101177  46.0484791
  45.2168894  67.2940445  45.6897640  44.5673132  68.0631447  47.4837065
  45.3844213  67.6189184  48.0521202  44.3804789  69.0458488  47.9167128
  43.6212254  67.5224113  47.4586535  43.8093376  68.7567234  45.1927042
  42.9641533  68.0722380  45.2651501  43.4259033  69.6697950  45.6480980
  44.1166782  68.9522505  44.1653728  47.8876877  70.6722450  44.7930670
  47.5045824  71.6685581  44.1300964  49.0303707  70.5955029  45.4284668
  49.2804813  69.7157574  45.8569431  49.9529123  71.7273140  45.4902697
  49.3668795  72.6070786  45.7561350  51.0438442  71.5432501  46.5371847
  50.4927969  71.1758089  47.4028873  51.8940878  70.9389544  46.2209463
  51.7034769  72.8827381  46.9251299  50.9741497  73.6917973  46.9652891
  52.0500183  72.8496218  47.9580450  52.9182816  73.2570267  46.0255527
  53.9514732  72.5744534  45.9940386  52.9085827  74.3872452  45.3951359
  53.6791325  74.5384312  44.7599268  52.1112728  74.9755573  45.5908108
  50.6025219  72.1131277  44.1123581  50.5564642  73.2761574  43.6351156
  51.1673403  71.0438585  43.5147762  51.1772633  70.1145697  43.9102840
  51.8190432  71.2915707  42.2572136  52.5527334  72.0948839  42.3241615
  52.7434015  70.1234627  41.9761229  52.1555853  69.2195463  42.1358299
  53.1150675  70.1216412  40.9514475  54.0121984  70.1708317  42.9200792
  53.7028408  70.4425859  43.9293098  54.4439173  69.1746092  42.8238106
  55.0791979  71.2367058  42.5456524  55.4216194  71.0161209  41.5346193
  54.5704079  72.1945429  42.4371052  56.2568998  71.2899256  43.4778261
  55.9199333  71.5239429  44.4876719  56.5816116  70.2856684  43.7500858
  57.3497438  72.1805668  43.0025005  57.0502472  73.1290770  42.8271770
  58.1556511  72.2265339  43.6095524  57.7266026  71.7998123  42.1462870
  50.7499647  71.6767645  41.1845732  51.0855198  72.5298882  40.3703594
  49.4673157  71.1715317  41.1431789  49.2277098  70.5368805  41.8914509
  48.3977365  71.5455675  40.1676178  48.8237667  71.4135885  39.1730404
  47.0765638  70.8179426  40.3902578  46.8016768  70.9675455  41.4343643
  45.9132957  71.4132643  39.5652556  45.6992102  72.3607492  40.0597572
  46.2271261  71.5411663  38.5292745  44.9572945  70.8903360  39.5385218
  47.1460867  69.2371798  40.1944590  47.7346706  68.7387896  40.9646988
  46.1531162  68.7894011  40.1544380  47.8277445  69.0200043  38.8709188
  47.3482895  69.5246983  38.0321646  48.9075565  69.1636705  38.8325810
  47.7526140  67.9554844  38.6489868  48.1414604  73.0851746  40.2814817
  48.1593418  73.8247204  39.2798877  47.9459333  73.6151409  41.5226316
  47.7082491  72.9418516  42.2369814  47.9662275  75.1067209  41.9137621
  47.0739508  75.5934572  41.5200233  47.8759193  75.3300333  43.3812428
  47.0804739  74.6805096  43.7466002  48.7848663  74.9908686  43.8781166
  47.6142073  76.7882681  43.7277651  48.5401440  77.3883438  44.2134047
  46.4125395  77.2919750  43.6098766  46.3178015  78.2516956  43.9099741
  45.6601238  76.6972208  43.2932758  49.1049767  75.9361267  41.3929605
  48.9461517  77.0573473  40.9593868  50.3557491  75.3747034  41.4672279
  50.5692291  74.4795895  41.8835115  51.5807009  76.1621332  41.1746550
  51.5170050  77.1372795  41.6575050  52.8526878  75.4848146  41.7535543
  52.6208401  75.0791168  42.7383137  53.2208729  74.6975660  41.0956907
  54.0651369  76.3399887  42.0772648  54.4535112  76.8329859  41.1860704
  53.7797642  77.0718527  42.8329420  55.1661682  75.4628849  42.7072620
  55.3881502  75.5621815  43.9217949  55.8614254  74.6664906  41.9767904
  51.7481756  76.3350487  39.6180701  52.6077795  77.0831108  39.1160321
  50.9592247  75.7037544  38.6853933  50.3653240  75.0035572  39.1062355
  50.8750582  75.7741022  37.2239923  51.6872835  75.1643944  36.8282080
  49.5199585  75.1613951  36.6547441  49.3247938  74.2724848  37.2546220
  48.7022305  75.8690596  36.7912722  49.4127464  74.6727037  35.1964545
  50.3743029  74.2939043  34.8500156  48.2791805  73.7251520  34.9038744
  48.3594847  73.3282804  33.8918734  48.4154892  72.8981447  35.6007123
  47.3137665  74.2166519  35.0243092  49.2780924  75.9227943  34.2767048
  49.2202950  75.5611134  33.2500863  48.5100174  76.6549587  34.5258999
  50.2483797  76.4179993  34.2389679  51.0482502  77.2481537  36.6836929
  50.2591085  78.1448889  37.0376420  51.9553375  77.5884056  35.7166910
  53.0597448  76.7396307  35.1838326  52.6469040  75.8524132  34.7037220
  53.6782932  76.3533878  35.9939671  53.9594364  77.6252270  34.3255615
  53.6131716  77.6135778  33.2920885  55.0275373  77.4083376  34.3107700
  53.6852503  78.9754820  34.8512840  53.8148022  79.7853899  34.1333938
  54.3742228  79.2254782  35.6580806  52.2684002  78.9408350  35.3039312
  52.0710564  79.6890306  36.0716271  51.3177109  79.2543745  34.1428614
  51.0324001  78.4077024  33.2921338  50.9613752  80.5104828  34.0218735
  51.4043665  81.0807610  34.7280264  50.2186394  81.1222553  32.8415036
  49.1701126  80.8635616  32.9890347  50.3197861  82.6096725  32.9840183
  51.3863230  82.8252697  32.9198742  49.4045830  83.3290100  31.9886661
  49.1865921  84.3364143  32.3432684  49.8965645  83.3916855  31.0180330
  48.4988642  82.7674484  31.7597222  49.8612022  82.9733181  34.2744470
  49.0153027  82.5359631  34.3960357  50.8056211  80.8019161  31.5153456
  52.0464754  80.8927822  31.2694383  50.0368309  80.2009869  30.7537889
  82.4557304  42.1917629  25.8804798  82.2452545  42.9922152  26.4593458
  81.8418884  41.3951874  25.9741402  82.3801422  42.4320555  24.9023962
  83.8136768  41.7518902  26.1631274  83.8448524  40.7268333  25.7938194
  84.8892117  42.5921774  25.5104494  84.7858810  43.6023617  25.9066176
  85.8665943  42.2098827  25.8048487  84.8454571  42.5112581  23.9595914
  85.0743198  41.5073109  23.6020947  83.8237858  42.7360535  23.6533880
  85.7871723  43.4199810  23.2823467  86.7833900  43.3029985  23.7089300
  85.8511066  43.2834005  22.2028279  85.3346157  44.9275160  23.5119438
  84.3895531  44.9381065  22.9689455  85.2628899  45.1069117  24.5846868
  86.3342857  45.9061289  23.0485177  86.0027409  46.8592596  23.0069757
  87.2078514  45.8784103  23.5547090  86.5027142  45.6500626  22.0861435
  84.1232395  41.7181778  27.6323032  83.7299347  42.6634979  28.3528519
  84.7996712  40.6668758  28.1197715  84.9532223  39.9334884  27.4425220
  84.7819138  40.4016495  29.6298480  83.7671375  40.2973080  30.0138283
  85.3577137  39.0084863  29.9093127  85.0119495  38.2468367  29.2104316
  86.8984222  39.1221380  29.6996450  87.2634411  38.0953360  29.6763682
  87.1475506  39.6321845  28.7691116  87.3518276  39.7159195  30.4933405
  85.0739193  38.5155964  31.3521314  84.0140724  38.6839771  31.5431023
  85.1907635  37.4425220  31.5036559  85.6269360  38.9333987  32.1933937
  85.3356647  41.5076113  30.5696082  84.6783638  41.7502069  31.5745211
  86.4521694  42.2117043  30.2427125  86.8989849  42.0329809  29.3547273
  87.0210934  43.2892942  31.0506105  87.0796871  42.9259825  32.0766091
  88.4417629  43.5584450  30.7040215  88.8925648  42.5896311  30.9191585
  88.6257458  43.8657475  29.6745467  89.0192604  44.5431232  31.5912867
  89.0366077  44.0544844  32.4174428  86.2047005  44.5202351  31.0195136
  85.8814716  45.0924969  32.0530868  85.7294941  44.9143410  29.8515534
  85.9694862  44.3312836  29.0625358  84.8128414  46.0560942  29.6225071
  85.3367901  46.8698788  30.1238465  84.7616482  46.3195276  28.1330085
  84.7997570  45.3066921  27.7319980  83.8151455  46.7699814  27.8341532
  85.9576702  47.0946121  27.6049852  86.8903637  46.5450764  27.7322364
  85.9487057  47.2686481  26.5290070  86.0076618  48.4510899  28.3116531
  87.1299839  48.9616489  28.4019518  84.9210739  49.0812778  28.5215425
  83.4293652  45.9383154  30.2035832  82.9462242  46.8933678  30.8034587
  82.8645229  44.7094679  30.1212978  83.3434677  43.9810944  29.6112132
  81.7670059  44.3639755  30.9978771  80.9331894  45.0486231  30.8426189
  81.2702465  42.9674149  30.6794548  82.0444202  42.2121668  30.5439830
  80.5201721  42.6628971  31.4093542  80.4028511  42.9936314  29.4099116
  79.7150564  43.8283873  29.5448828  81.0301876  43.1503153  28.5324121
  79.4993591  41.7883110  29.1925812  79.6511936  40.7547426  29.8143768
  78.6266851  41.8720341  28.2871747  78.0675364  41.0982370  27.9574919
  78.4897232  42.7923870  27.8943729  82.0842171  44.5968056  32.5096464
  81.2947941  45.1733494  33.2355881  83.2019043  44.0650177  32.9775596
  83.7613487  43.5462236  32.3157668  83.6271381  44.2963648  34.4079781
  82.7885914  43.9450741  35.0092578  84.9061394  43.4804249  34.6820354
  85.5613518  43.6018515  33.8194513  85.4067230  43.8451529  35.5789661
  84.5625973  41.9726658  34.9401951  83.8058472  41.6773558  34.2134070
  85.8658218  41.2006855  34.7549987  86.4686871  41.1983156  35.6631017
  85.6328011  40.1390409  34.6730852  86.3700867  41.4109755  33.8118172
  83.9980412  41.7316818  36.3790417  83.1310940  42.3674488  36.5587807
  83.8191223  40.6582355  36.4406586  84.7417641  42.0726919  37.0992398
  83.8289547  45.8141136  34.8279142  83.6490917  46.1457825  35.9852743
  84.2092896  46.6713238  33.8564944  84.2656612  46.3189077  32.9116488
  84.1252708  48.1499434  34.0132999  84.5229721  48.4486008  34.9832153
  85.0061417  48.7929153  32.9456949  85.9436512  48.2408476  33.0120635
  84.6693802  48.5225105  31.9449043  85.1065922  50.3348207  33.1841087
  84.1052437  50.7654142  33.1824684  85.4218864  50.5606222  34.2027831
  86.0179329  50.9583378  32.1016884  87.0224571  50.5699158  31.9338918
  85.6729889  50.6606007  31.1115003  85.9073830  52.4808645  32.2517300
  84.8764324  52.6944685  32.5339031  86.5713596  52.8015137  33.0544925
  86.2922668  53.1272364  30.9873843  85.9643269  54.0782690  31.0773396
  87.2883511  53.1390476  30.8207011  85.9126949  52.7237606  30.1428485
  82.7385712  48.7051678  34.0355563  82.4452114  49.5289803  34.8766589
  81.7926979  48.1984711  33.2594943  82.0623112  47.4868345  32.5954294
  80.3883171  48.6637831  33.3439326  80.0602531  49.6810055  33.1300592
  79.6318388  47.8615808  32.3127127  79.9195862  46.8120766  32.3747492
  78.5687923  47.8611946  32.5536156  79.9530220  48.4631348  30.6279278
  81.0360813  47.7096224  30.4179049  79.7880220  48.3074474  34.7548270
  78.8063812  48.9427710  35.2249885  80.3378963  47.3952579  35.4297447
  81.1912251  47.0088863  35.0520611  79.8729277  46.9488811  36.7791343
  78.7870073  46.8551397  36.7887068  80.4655170  45.6267691  37.1035767
  81.5510654  45.5782938  37.0178747  80.1626110  45.3105927  38.1017661
  79.7437000  44.4182444  35.9746766  80.4885674  44.8597527  34.9572587
  80.1411343  48.1032562  37.8203130  79.3946505  48.3497381  38.7411618
  81.1200809  48.9715195  37.5265384  81.6106415  48.8091373  36.6587400
  81.3395786  50.2466774  38.2080269  81.4626408  50.0308752  39.2693424
  82.6380920  51.0244322  37.6674390  83.4765720  50.3280163  37.6750255
  82.5493240  51.2887239  36.6136956  82.9094410  52.1591759  38.3868885
  83.4870243  51.9675016  39.1293621  80.1700115  51.2327957  38.0596614
  79.5098400  51.7382526  39.0177488  79.7872400  51.4790964  36.8085527
  80.3637028  51.1122513  36.0647678  78.6620426  52.2171545  36.3725090
  78.7255144  53.2307673  36.7683148  78.5972929  52.1906614  35.2847528
  77.2539949  51.7315102  36.7963290  76.3543892  52.5062561  37.0602584
  77.0387554  50.3786707  36.8304062  77.7177095  49.7816133  36.3802505
  75.7930326  49.7447538  37.2819901  75.0688267  50.4204941  36.8270087
  75.5550957  48.2873917  36.6960096  76.3232803  47.6216555  37.0894432
  74.1883278  47.7385473  37.1681857  73.2548714  48.2113838  36.8629074
  74.0219259  46.7045212  36.8661857  74.1434956  47.7283859  38.2572150
  75.4008245  48.2209110  35.1709819  74.3523693  48.1702375  34.8772693
  75.7182026  49.1447830  34.6874094  76.1250067  46.9837284  34.5122957
  75.5829811  46.0516500  34.6721005  76.2592649  47.1015882  33.4370327
  77.1052361  46.8311787  34.9639297  75.6848621  49.8362398  38.7467003
  74.5937729  50.1485062  39.2022681  76.7959785  49.6944761  39.4595528
  77.5762892  49.2323208  39.0149999  76.8224192  49.8432207  40.9424400
  75.9713602  49.2912865  41.3414001  78.0852604  49.2006016  41.5572834
  78.1251335  48.1804371  41.1754847  78.9427662  49.7389984  41.1536503
  78.1583357  49.1858292  43.1031370  78.0293846  50.2109861  43.4503078
  77.0336485  48.3511782  43.7278414  76.8979168  47.3825121  43.2468367
  77.2210217  48.2820177  44.7993851  76.1275625  48.9541435  43.6683035
  79.5220089  48.6343384  43.5280466  80.4047203  49.0787315  43.0682039
  79.5759869  48.8810015  44.5883989  79.6458435  47.5729370  43.3131123
  76.6188812  51.2601948  41.4418411  75.9139776  51.4999533  42.4097347
  77.3120928  52.2155857  40.8303118  77.9324865  51.9558430  40.0768232
  77.2527599  53.6765051  41.1663151  77.3116159  53.9041901  42.2306442
  78.3825922  54.4751883  40.4231310  78.3489895  54.1120434  39.3959522
  78.3534479  55.5613661  40.5095816  79.7357178  54.2398214  41.1473560
  79.6407318  54.6425581  42.1557617  79.8497486  53.1562281  41.1170435
  80.8848000  54.8983192  40.3423405  80.9479332  54.4618750  39.3455267
  80.7121754  55.9732151  40.2884388  82.1741390  54.6199512  41.0165453
  82.0808983  54.7921133  42.0888186  82.3124790  53.5398006  41.0638618
  83.3275127  55.2946234  40.4320908  84.0925598  55.0545788  41.0462427
  83.5781288  55.0454950  39.4859266  83.1266785  56.2764454  40.3064346
  75.8938837  54.2986441  40.8478355  75.5420399  55.2515793  41.4804602
  75.2209234  53.6593771  39.9197173  75.5975962  52.8825569  39.3955350
  73.8349867  53.9873838  39.6708965  73.8171482  55.0743484  39.5915174
  73.5339594  53.3588696  38.3015370  74.1485643  53.8152313  37.5255871
  73.8111973  52.3051596  38.3321524  72.0660591  53.3795595  37.8914714
  72.0635986  52.9666424  36.8827081  71.5923691  52.6775885  38.5777354
  71.3055658  54.6310949  37.8575945  71.8070841  55.6148767  37.2812390
  70.1341343  54.5525742  38.2471609  72.8789759  53.5944223  40.7849026
  71.8997717  54.3782711  40.9741068  73.1163216  52.4212790  41.3701868
  73.9483738  51.8942261  41.1465788  72.3131418  52.0097256  42.4830389
  71.2862110  52.3040342  42.2664833  72.3520756  50.4673004  42.5419283
  73.3922434  50.2482462  42.7831078  71.7434406  50.0919867  43.3646059
  71.8704939  49.8358202  41.2041712  70.8042145  50.0427103  41.1128664
  72.4274349  50.2628088  40.3701448  72.2176075  48.0733299  41.1580467
  71.5732241  47.5086117  42.7367926  72.1060562  47.9771805  43.5642147
  70.5199146  47.7887344  42.7235079  71.6770029  46.4239645  42.7663279
  72.5523806  52.8065825  43.7396574  71.6905594  52.7456999  44.5977688
  73.7199640  53.4967470  43.8603258  74.4808340  53.1986332  43.2667780
  74.0815163  54.3350172  44.9833536  73.5080338  54.1435719  45.8903122
  75.6029367  54.1868973  45.3386259  76.1833382  54.2296410  44.4169950
  75.9471130  55.0939846  45.8354616  75.9300184  53.0165815  46.2428474
  76.6542530  51.9078445  45.7683802  76.8742514  51.8757677  44.7115088
  77.1773767  50.9893894  46.7256069  77.7971315  50.1529121  46.4381790
  76.8000078  51.0323000  48.0677509  77.1888351  50.3449345  48.8044643
  76.0390139  52.1178675  48.5177612  75.7992887  52.1046734  49.5707369
  75.5277777  53.0760956  47.6258945  74.8176575  53.8194466  47.9568815
  73.6853838  55.7939672  44.6587896  74.0328074  56.6417599  45.4709148
  72.9830885  56.0975552  43.5649014  72.9302120  55.3362417  42.9033089
  72.2995853  57.2930384  43.3245945  73.0836582  58.0446625  43.2329845
  71.6132689  57.3032427  42.0053196  70.8030081  56.5917349  42.1644926
  71.3024950  58.3166599  41.7513418  72.2579622  56.9883299  41.1847687
  71.2707949  57.6750612  44.3396616  70.6263876  56.7737961  44.9063826
  71.0340786  58.9958906  44.6039248  71.6492271  59.6395302  44.1270399
  69.9987793  59.5218468  45.5059385  70.1604795  59.0690422  46.4841652
  70.0045156  61.0171127  45.6933308  71.0683012  61.2529802  45.7221413
  69.6116114  61.5390158  44.8207808  69.3271351  61.6646290  46.9255638
  69.2969131  62.7486801  46.8159103  68.2888222  61.3415623  46.8505096
  69.8783970  61.2154913  48.2550621  69.6691179  60.1723194  48.4919024
  70.9582901  61.3617897  48.2779932  69.2309046  62.0560932  49.3364048
  69.4272184  63.1019306  49.1002131  68.1594229  61.8695164  49.2641449
  69.6949291  61.7938328  50.6797791  69.4034147  62.4748373  51.3663292
  69.4426680  60.8493042  50.9334135  70.6995010  61.7767477  50.7829571
  68.5667324  59.0480900  45.2597475  67.9343605  58.5560560  46.2138987
  68.1586170  58.9291620  43.9624834  68.7277889  59.3296623  43.2305384
  66.9163799  58.4502649  43.3446264  66.1217070  59.1034746  43.7050676
  66.9804955  58.5296583  41.8952894  65.9835339  58.2079220  41.5942001
  67.1947813  59.5663881  41.6357183  68.0000067  57.6099777  41.1908293
  68.9507866  57.6319647  41.7234039  67.5563574  56.6154099  41.1448860
  68.1973743  58.0823898  39.7639108  67.2142267  57.9411507  39.3149304
  68.6293888  59.0661812  39.5805645  69.0000296  57.0594978  39.0447545
  69.8839808  56.9552135  39.6739244  68.5814381  56.0568380  39.1316915
  69.4103956  57.4310875  37.6692438  68.5894680  57.3365545  37.0885205
  69.7230005  58.3903408  37.6222110  70.1166487  56.7622852  37.3971891
  66.4281654  57.0439959  43.7748909  65.2348232  56.7621279  43.6285782
  67.2891378  56.1955690  44.3765640  68.2433414  56.5251732  44.4074440
  66.9442272  54.8253870  44.8392296  65.9429598  54.5393944  44.5170927
  67.9650068  53.7803793  44.2876911  68.9601707  54.0628862  44.6311140
  67.7176762  52.7998352  44.6944666  68.0195236  53.8676882  42.7779150
  66.9471502  53.4339523  41.9196796  67.4411297  53.6558723  40.6868601
  66.9429350  53.6107445  39.7296953  68.7405205  54.1232777  40.7441568
  69.3181276  54.1561222  39.9162698  69.0940380  54.2253733  42.0432186
  70.0651407  54.4418526  42.4633408  67.0006084  54.6593571  46.3491821
  66.3886309  53.6680126  46.8008184  67.6084089  55.5877972  47.1007252
  68.2131481  56.2673855  46.6619110  67.9115152  55.4787302  48.5227346
  68.6191368  54.6580410  48.6404037  68.5659790  56.8202066  48.8773203
  69.0091181  56.7924166  49.8727894  69.3692255  56.9684267  48.1555653
  67.8766441  57.6607895  48.9569950  66.7407179  55.0302458  49.4017744
  66.9032621  54.2844200  50.3364420  65.5027533  55.4579306  49.0879965
  65.3724241  56.0972643  48.3170414  64.2423534  55.0557613  49.7203207
  64.0576363  55.6118298  50.6394386  63.1604338  55.4449081  48.7874794
  62.1953726  55.4945660  49.2917538  63.2120705  56.4711618  48.4238386
  63.1052876  54.8986149  47.8458691  64.0150547  53.6112833  49.9138689
  63.4915304  53.2214403  50.9435749  64.4072485  52.7369785  48.9906931
  64.9804688  53.1125736  48.2487726  64.3702602  51.2444735  48.8892984
  63.9450693  50.8668280  49.8191881  63.4091139  50.8445406  47.7385664
  63.5813427  49.7715330  47.8227615  62.3873758  51.1210775  47.9987240
  63.7508297  51.3346577  46.3548756  64.5173788  50.4811525  45.5663443
  64.8361969  49.5480633  46.0069036  64.6377325  50.7445049  44.1993523
  65.0867939  50.0595570  43.4953594  64.1121864  51.9193983  43.6837912
  64.2151260  52.2544003  42.3789978  65.0652742  52.0880508  41.9652605
  63.3622551  52.8008175  44.4407654  62.9582119  53.7024546  44.0046501
  63.2192230  52.5328636  45.8623266  62.6225233  53.1901407  46.4774179
  65.7249165  50.4865026  48.8858938  65.7782698  49.3414879  49.2463017
  66.7502117  51.1459589  48.4425163  66.6522408  51.9349909  47.8196669
  68.1206512  50.6276608  48.5542679  68.1035519  49.5430660  48.4471893
  68.8602495  51.3296700  47.4887705  68.9670753  52.3986197  47.6732445
  69.8358107  50.8609581  47.6179886  68.4524584  51.1124897  46.5015316
  68.7365150  50.7512093  49.9332762  69.6859980  50.0620174  50.2016115
  68.2402277  51.5337515  50.9010124  67.4409151  52.1137667  50.6893921
  68.9255524  51.7290640  52.1861029  69.8833990  52.1135807  51.8357134
  68.2353115  52.8476000  53.0089331  68.8690472  53.1418133  53.8455486
  68.0386209  53.7446308  52.4217844  67.0097733  52.4335718  53.5699749
  65.7796097  52.4404573  52.9654694  65.6060553  52.8376436  51.9762611
  64.8081732  51.9584942  53.7767267  63.8187742  52.1138000  53.6460686
  65.3772354  51.4087439  54.9701357  64.8934221  50.8921766  56.1638832
  63.8258314  50.7454443  56.2354517  65.7755756  50.3577089  57.0959997
  65.3985548  49.8366547  57.9636145  67.1354675  50.4492712  56.8824816
  67.6851177  50.0128365  57.7033377  67.6366568  51.0859299  55.7405901
  68.6673164  51.3935471  55.6430292  66.7704582  51.6427040  54.7986841
  69.1754580  50.3513145  53.0428362  70.2621698  50.2610159  53.6623001
  68.3763409  49.2784691  53.0501270  67.1064901  49.1934919  52.4203968
  67.1308613  48.5858774  51.5157890  66.5281820  50.0962496  52.2236967
  66.2894535  48.2578468  53.4197140  65.5458021  47.7097940  52.8411579
  65.9466934  48.9364100  54.2008495  67.4243689  47.2837925  53.9769077
  67.3182154  46.3654327  53.3994627  67.3147535  47.1000290  55.0457001
  68.7191105  47.9682493  53.7254953  69.1220617  48.3004284  54.6822548
  69.7752476  47.1371222  52.8959894  70.4326105  46.2149858  53.3422375
  70.0653076  47.4746609  51.6080046  69.5378017  48.2444143  51.2215853
  70.9988260  46.7826176  50.7757902  71.2509060  45.8095455  51.1973238
  70.3751802  46.4066982  49.3548155  70.0269890  47.3161221  48.8651085
  71.0471725  46.0398483  48.5789585  69.0396976  45.6664324  49.4403505
  69.1179276  44.3699598  49.8543072  70.0404787  43.8301373  50.0088739
  67.9470968  43.6284685  50.1539087  67.9850054  42.5748444  50.3880835
  66.6838551  44.2733765  50.0998116  65.8001184  43.7822771  50.4795885
  66.6049290  45.6129026  49.7756624  65.6566477  46.1260509  49.7136879
  67.7678442  46.3499498  49.3534374  67.7554369  47.4121189  49.1584110
  72.2954035  47.5575781  50.7034683  73.3240795  46.9844341  50.4374695
  72.4228191  48.8211203  51.1951923  71.5405989  49.2992592  51.3099670
  73.6835527  49.6062136  51.2800837  74.1754341  49.4878674  50.3146076
  73.2896471  51.0864353  51.4369535  72.6519012  51.1642313  52.3174810
  74.1756964  51.6951036  51.6173363  72.5425482  51.7485428  50.2749538
  72.5838280  51.2591600  48.9524126  73.0319118  50.3228188  48.6542606
  72.0586586  52.0344448  47.8763390  72.2559595  51.7816830  46.8450403
  71.4061356  53.2082415  48.1468058  70.8861923  53.9604425  47.1118450
  71.1778545  53.6547470  46.2498188  71.3914394  53.7269640  49.4670582
  70.9869480  54.7167206  49.6192884  71.9107866  52.9674768  50.5614948
  71.9487667  53.3824682  51.5578556  74.6073198  49.2082644  52.4027252
  75.7173204  49.7520351  52.5090265  74.1113138  48.3739710  53.3170938
  73.1333923  48.1234884  53.2850266  74.8010159  47.9120302  54.5057392
  75.8723688  47.9531527  54.3092203  74.2785549  48.7309551  55.7418156
  73.2014465  48.8968611  55.7619715  74.5798445  48.2185221  56.6554546
  74.8679399  50.1578188  55.7357979  75.9319353  50.0842381  55.5108356
  74.4472170  50.8332443  54.9908924  74.9067497  50.9653378  57.0646000
  73.9294481  51.3156223  57.3966932  75.4678679  50.3635788  57.7795315
  75.6450176  52.3319292  56.7215633  76.5538216  52.1832085  56.1384153
  75.0515318  52.9138327  56.0163927  75.9265137  53.1004095  57.9456854
  76.4889431  52.5143766  58.5459661  76.4488363  53.9439249  57.7565718
  75.0585079  53.3017254  58.4212255  74.6280193  46.4329243  54.7884226
  73.5533667  45.8881617  54.5586920  75.5902958  45.7764912  55.4712677
  76.8128347  46.2706470  56.0939169  76.6186571  47.0594120  56.8207216
  77.5047016  46.6788483  55.3571701  77.3845053  44.9551058  56.7670250
  76.9365740  44.8192310  57.7514029  78.4732628  44.9035263  56.7612696
  76.7942286  43.7890673  56.0180521  76.7334509  42.9345465  56.6920042
  77.4434090  43.5543251  55.1745129  75.4565001  44.3135214  55.6706858
  75.1882076  43.8474798  54.7225714  74.4583750  43.9131498  56.8094587
  74.1763735  44.6168280  57.7504015  73.9018345  42.6998472  56.7363214
  73.9587450  42.2391796  55.8393002  73.0025101  42.1153975  57.8173494
  72.4714851  42.9976606  58.1747389  71.8549109  41.1258936  57.3657656
  72.2341061  40.1678991  57.0100069  70.8372021  40.8065844  58.4423542
  70.0913954  40.1088095  58.0615854  71.2946272  40.4146576  59.3507910
  70.1422930  41.6236782  58.6361599  71.0412407  41.7443228  56.2081146
  70.3414774  40.9261560  56.0377216  70.4190540  42.6030540  56.4602232
  71.6803265  41.8516111  55.3316641  73.7448215  41.4940453  58.9871502
  74.0589237  40.3178835  59.0759563  74.0971756  42.4431229  59.8775387
  73.9783573  43.4020424  59.5834970  74.9284267  42.2980022  61.0462427
  75.8161449  41.7379665  60.7522726  75.5730629  43.6812782  61.3502836
  76.0161209  43.9703178  60.3972626  74.7488260  44.3324280  61.6413975
  76.6598654  43.6651945  62.4210739  77.2397566  42.5572014  62.7668333
  76.8663979  44.6854544  63.1287193  74.1537714  41.5352201  62.1811676
  73.4504509  42.1224022  62.9810333  74.2279768  40.1911449  62.1865225
  74.5937538  39.7267270  61.3676023  73.1911898  39.4084406  62.8512335
  72.2178507  39.7463703  62.4955463  73.2874584  37.8358507  62.5416183
  72.4574089  37.2557211  62.9448128  73.0020332  37.5486088  61.0815620
  73.8083649  37.8049731  60.3943920  72.9766083  36.4606452  61.0200071
  72.0651913  38.0127645  60.7733488  74.7245359  37.1825314  62.6163721
  75.1348305  37.2869945  63.6207914  74.6763182  36.1079931  62.4398947
  75.3214598  37.7307415  61.8875027  73.1557846  39.5858407  64.3779182
  72.0854568  39.2823458  64.9432182  74.2513514  39.9932194  65.0240135
  75.0879097  40.0673485  64.4629622  74.4495487  40.4859352  66.3371229
  74.3620634  39.6833229  67.0694208  75.9262514  40.8104134  66.5083361
  76.4604759  39.9181128  66.1819839  76.0485649  41.6216326  65.7906580
  76.4246178  41.2390518  67.9244375  76.1165237  42.2764397  68.0548191
  76.0554886  40.5451107  68.6796093  77.9472542  41.2918997  67.8547335
  78.6547565  41.1985493  66.8327808  78.4762287  41.3715363  69.0226984
  73.5870695  41.6510963  66.7753601  72.8447819  41.6115570  67.7639484
  73.6644173  42.7020550  65.9776545  74.1276360  42.6049662  65.0854063
  72.9012918  43.9558411  66.1817455  73.0158567  44.2203474  67.2329426
  73.5684681  44.9984407  65.3249645  73.4401178  44.6772766  64.2912960
  73.0568266  45.9599400  65.2820730  74.5780230  45.2423954  65.6556892
  71.4112949  43.8824368  65.8590078  70.6128073  44.3617868  66.6336250
  71.0188532  43.2893896  64.7717905  71.7858791  42.8726673  64.2637444
  69.5851135  42.9169798  64.5135593  68.9861107  43.7736130  64.8225546
  69.4172239  42.7130508  62.9930592  70.1594782  41.9882870  62.6585722
  68.4258080  42.2782373  62.8660631  69.5730972  43.9203978  62.0383501
  70.3275967  44.5932007  62.4459887  70.0212002  43.5333586  60.6332159
  71.0620689  43.2697105  60.8207703  69.4784355  42.6456451  60.3084564
  69.8759937  44.3320799  59.9058580  68.2253551  44.6811724  61.8902969
  67.9000235  45.0856304  62.8487730  68.2793856  45.5661583  61.2562799
  67.5076914  43.9227915  61.5773726  69.0734434  41.7956066  65.3938198
  67.9055548  41.5351725  65.4213810  69.9478197  41.0950136  66.1052322
  70.9321785  41.3163996  66.1513567  69.7201586  39.8834705  66.8313599
  70.6667042  39.4222665  67.1132040  69.0911055  40.1568079  68.2004547
  69.6111012  40.9416437  68.7497616  68.0586767  40.4510689  68.0117846
  68.9931059  38.9583611  69.2275667  68.3601189  39.3070769  70.0435495
  68.5257721  38.0302572  68.8984442  70.4443216  38.5187531  69.6981144
  71.0417223  39.0185261  70.7250881  71.0840702  37.7244806  68.9878082
  68.8428974  38.8733625  66.0454702  67.9393101  38.2654142  66.5408611
  69.0989208  38.6369276  64.7331047  69.7911978  39.2111230  64.2735910
  68.3201456  37.6781535  63.9261961  67.2751665  37.6683736  64.2360735
  68.3296204  38.0891013  62.4224138  69.3602180  37.8922653  62.1270561
  67.6957464  37.3650575  61.9104958  67.9381323  39.5174837  61.9645548
  68.7841368  40.1484585  62.2370481  67.8727150  39.4690061  60.4493093
  67.7934742  40.4831076  60.0576210  68.8130713  39.1304469  60.0143290
  67.1066904  38.7799215  60.0936842  66.5374756  39.9161410  62.5253248
  66.1274958  40.8821344  62.2305965  65.8174944  39.1190910  62.3397493
  66.6842318  39.8993373  63.6052656  68.8406086  36.1905670  64.1047049
  69.6847200  35.7267380  63.3687592  68.3273983  35.5294180  65.1331758
  67.6550198  36.0242081  65.7016850  68.8664341  34.3798590  65.8891821
  69.8070002  34.6804833  66.3507748  67.8124094  34.0555644  66.9750404
  68.1081247  33.1575012  67.5173855  67.7952337  34.8390007  67.7326870
  66.4183855  33.7544489  66.4611626  65.4960060  34.6029615  65.9758234
  64.3725586  33.8771367  65.7599449  63.3735657  34.2589355  65.6094599
  64.5607710  32.6213622  66.2447882  63.7691259  31.9962502  66.2961292
  65.8741570  32.4860549  66.5318251  66.3416910  31.5621495  66.8387651
  69.1088009  33.1598830  64.9799967  69.9855042  32.3458266  65.2646446
  68.3856201  33.0585909  63.8546324  67.6805115  33.7516975  63.6483955
  68.5283899  31.9736433  62.8940821  69.3624401  31.3171387  63.1420040
  67.4123335  30.9569049  63.0480623  67.6356173  30.1033640  62.4079704
  67.4844313  30.6122065  64.0796089  65.9678078  31.5208554  62.8289413
  65.0304127  30.7097983  63.0091286  65.6619501  32.6648831  62.4313259
  68.6841536  32.4298882  61.4045000  68.7276697  31.6116214  60.5203009
  68.8565969  33.6943889  61.1581039  68.7558794  34.2943335  61.9643450
  69.3533897  34.2820883  59.8555040  68.5854959  34.0886807  59.1064787
  69.5086575  35.7362604  59.9118567  68.5600042  36.0920453  60.3138161
  70.3325081  36.0067296  60.5723238  69.7194529  36.3780212  58.5120344
  68.6831617  36.7215037  57.6258373  67.6552439  36.7339635  57.9569530
  68.9544487  37.3356175  56.3907290  68.1287670  37.5445700  55.7266521
  70.2792645  37.6238942  56.0494566  70.5508900  38.2204843  54.8680830
  69.8486328  38.6922526  54.4143534  71.3167191  37.2400904  56.9469976
  72.3251486  37.3764729  56.5852451  71.0692835  36.5667820  58.1291580
  71.8774700  36.2921762  58.7908363  70.5974483  33.5630560  59.3669701
  70.5566311  32.9846025  58.2318497  71.6991091  33.4125781  60.1402235
  71.6222239  33.8753247  61.0346794  73.0273533  32.8217340  59.7160816
  73.2261181  33.1695032  58.7023544  74.1355133  33.2763481  60.6898022
  74.0461445  34.3459368  60.8797836  73.9782047  32.7642345  61.6390657
  75.8602142  32.8267407  60.2201414  76.0300446  33.9178395  59.4681025
  72.9451895  31.2608123  59.6093273  73.8151884  30.6399679  58.9294863
  71.8691587  30.6411958  60.1666594  71.1313391  31.2009096  60.5696964
  71.3766813  29.2870760  59.9312401  72.3005152  28.7088394  59.9145842
  70.5936766  28.9085317  61.1539173  71.0710335  29.3483496  62.0295811
  69.5775414  29.2945838  61.0730696  70.6657553  27.3710728  61.3450527
  69.6831274  26.7841864  61.8579960  71.6918659  26.6485810  61.0899067
  70.5388403  29.2013144  58.6575651  70.7822800  28.2308841  57.9552794
  69.5205164  30.0605464  58.4252262  69.1961432  30.6157613  59.2040825
  68.6276770  30.0347042  57.2920704  68.2419634  29.0195513  57.1983051
  67.4495220  31.0190248  57.5481653  67.8730774  31.9144130  58.0031157
  66.6555357  31.4321423  56.2957907  67.2953224  31.9826436  55.6060696
  66.1788225  30.5872226  55.7988453  65.8490133  32.1041107  56.5891886
  66.5040112  30.3834987  58.5981703  65.9339571  29.6100354  58.0834913
  67.0506477  29.7412014  59.2886353  65.5830717  31.3723207  59.2888165
  66.2549591  32.1401978  59.6722651  64.9286222  31.8021154  58.5304832
  65.1350307  30.8232212  60.1169825  69.3382072  30.3867984  56.0184813
  68.9801407  29.9254680  54.9398088  70.4766512  31.1154199  56.0950375
  70.6609440  31.5684128  56.9787455  71.2745571  31.6840625  55.0083351
  70.7898092  31.3591480  54.0877056  71.2233734  33.1545258  54.9843502
  71.7990398  33.4696770  55.8546257  72.1653271  33.7387943  53.9204264
  71.8490791  33.3403969  52.9563904  72.0675659  34.8241663  53.8976526
  73.2075405  33.4852338  54.1143370  69.8796463  33.9229250  55.1467371
  69.4106722  33.6638761  56.0959768  69.9898195  35.0039530  55.2324438
  68.8772869  33.8568711  54.0424776  68.7392950  32.8126979  53.7618399
  67.9533148  34.3689632  54.3110752  69.3987370  34.3459964  53.2197094
  72.6335716  30.9767389  55.0565577  73.4513998  31.2563515  55.9121513
  72.9925156  30.1568842  54.0264416  72.4094868  29.9067664  53.2405472
  74.3806791  29.6489310  53.8832092  74.6630192  29.0956402  54.7788954
  74.5895958  28.8043666  52.6373577  74.2562056  29.3937063  51.7831755
  75.6490755  28.5527587  52.5893784  73.8136911  27.5248098  52.6850986
  74.0319157  27.1745849  53.6939716  72.7302551  27.6225853  52.7537966
  74.0476227  26.5309620  51.5810919  75.1023960  26.2636304  51.6449785
  73.4285450  25.6640387  51.8119335  73.7750006  27.1658230  50.1951885
  72.7850485  27.6192355  50.1450300  74.5261478  27.9076433  49.9239206
  73.7568855  26.1828709  49.0832996  73.3112001  26.5464234  48.2530642
  74.6820402  25.8517671  48.8497210  73.2111311  25.3821492  49.3680811
  75.5013180  30.6524968  53.8288212  76.5715837  30.4099512  54.3253183
  75.2643013  31.7998314  53.2114744  74.4099617  31.9813633  52.7042770
  76.3309622  32.7932668  52.9886675  77.0242357  32.9143071  53.8210344
  77.1744776  32.3179722  51.8974113  77.4488211  31.2654328  51.9680977
  76.5403461  32.3788214  51.0129499  78.4971905  33.0451679  51.7123413
  79.5677853  32.9562640  52.6001692  80.4794693  33.8518643  52.2599983
  81.4322376  33.9262652  52.7630901  79.9711132  34.6696377  51.3584185
  80.4254436  35.4778504  50.9578276  78.7663889  34.1967368  51.0123301
  78.0984640  34.7209716  50.3449059  75.8018970  34.2261910  52.7114820
  75.5452347  34.5563340  51.5451193  75.5432224  35.0897956  53.7068748
  75.7420301  34.8961306  55.1154709  76.8073130  34.9981451  55.3224945
  75.3669691  33.9265633  55.4431438  75.0265741  35.9579086  55.8131742
  75.6294155  36.3124132  56.6492414  74.0975332  35.6541228  56.2955570
  74.7517490  37.0813155  54.7616053  75.3744984  37.9758525  54.7520542
  73.7327194  37.4589205  54.8458242  74.9278831  36.3566828  53.4587145
  74.0074253  36.1426663  52.9155207  75.7802439  37.2777486  52.5871038
  77.0209599  37.1137452  52.6233006  75.0792313  38.1955600  51.9650173
  74.1039991  38.1911016  52.2277021  75.5429602  39.2289782  50.9688950
  76.6061449  39.3331313  51.1854410  75.3164339  38.6288691  49.5770931
  75.5193996  37.5638795  49.4644070  74.2561626  38.7710714  49.3680382
  76.1939383  39.3671179  48.5070896  75.8988667  38.9496112  47.5444269
  76.0791111  40.4449320  48.3920431  77.9992485  39.0360379  48.6795092
  78.0128336  37.2674203  48.4022331  79.0568590  36.9624329  48.3308220
  77.6845312  36.6717649  49.2540073  77.5656700  36.9954109  47.4461174
  74.8847246  40.6315899  51.1056042  73.5860300  40.5849314  51.1917496
  75.5338717  41.7365885  50.8716249  76.5148735  41.6564417  50.6451035
  74.9590683  43.0919456  50.6733179  73.9293623  43.0239391  50.3223467
  74.9246883  43.8593149  52.0203638  74.2091227  44.6742153  51.9107962
  74.6290302  43.2306814  52.8603077  76.3147259  44.4115305  52.3067093
  77.3018742  43.6614323  52.4832249  76.5274191  45.6532574  52.3009872
  75.6831503  43.8648987  49.5262098  76.7304754  43.3886909  49.0889311
  75.2279663  45.0894022  49.1669083  74.4366407  45.4457617  49.6835423
  75.8394814  46.0077620  48.1371927  75.8243990  45.4551220  47.1977997
  75.0929165  47.3208284  47.9540539  74.9894094  47.9142046  48.8625097
  75.6655216  47.9490328  47.2717094  73.8287210  46.9847155  47.1649265
  74.0143871  46.6871023  46.1329079  73.3652973  46.1572695  47.7022171
  72.5477505  48.1992102  46.8976355  73.4051323  49.3315315  45.7535887
  74.2390633  49.8721600  46.2012196  73.9044333  48.8722420  44.9004459
  72.6886988  50.0561333  45.3665829  77.3261833  46.2622356  48.5293436
  78.1301785  46.2778187  47.6225328  77.7145767  46.5349770  49.7564173
  77.0722818  46.4860106  50.5343390  79.0786457  47.0490599  50.1887655
  79.3270063  47.8023767  49.4411469  79.0661669  47.8364611  51.4854288
  79.9698162  48.4270620  51.6361380  78.1241322  48.3817196  51.4273977
  78.9611721  46.9558859  52.5526428  78.0937099  46.5467072  52.5116491
  80.0992012  45.9377670  50.1998138  81.3173103  46.1300373  50.0259781
  79.6559429  44.6713161  50.3209114  78.6727524  44.5818329  50.5340528
  80.5177021  43.5376740  50.1339293  81.3966274  43.6370516  50.7708883
  79.7702456  42.2502947  50.5631590  78.8629293  42.1036005  49.9771881
  80.6262970  40.9831524  50.3841162  81.5646553  41.1812735  50.9021330
  80.0998592  40.1336336  50.8191872  80.8391762  40.7579374  49.3390942
  79.5378828  42.3018503  51.9623280  78.6966038  42.7638483  51.9824123
  80.9235954  43.5154104  48.7013721  82.0885849  43.4575272  48.2924366
  79.8985338  43.4776258  47.7893114  78.9902115  43.4550905  48.2303810
  80.0295639  43.3561373  46.2947798  80.4922199  42.3943329  46.0734606
  78.6377954  43.3257055  45.6605768  78.1205559  44.2579985  45.8872795
  78.8217974  43.2275391  44.1359949  79.2672634  42.2401810  44.0143919
  77.8944397  43.2593584  43.5640764  79.3755627  44.0109777  43.6186218
  77.8444958  42.0734215  46.0689116  78.2333851  41.1915779  45.5597734
  78.0093288  41.8129015  47.1144056  76.3561249  42.2468281  45.8191967
  75.9641027  43.1027460  46.3685846  76.0984516  42.2972059  44.7612858
  75.7960081  41.3775539  46.1637688  80.8934879  44.5802927  45.7816839
  81.8386555  44.3065071  45.0068951  80.5780697  45.8294582  46.2259102
  79.6997833  45.8139181  46.7243814  81.3240051  47.0871830  45.9893799
  81.1411572  47.5219059  45.0066900  80.8701038  48.1714106  47.0283365
  79.8472261  48.5398102  46.9501734  80.9300613  47.7432728  48.0289364
  81.7265987  49.4646740  47.0304298  82.6881981  49.4574928  47.5436401
  81.8158340  49.8434401  46.0122538  80.9173965  50.5671597  47.7060223
  79.9419594  50.6658316  47.2296858  80.7641029  50.3935003  48.7711287
  81.7848492  51.8416643  47.6347017  82.7948570  51.5920162  47.9597712
  81.8491364  52.1667004  46.5962791  81.2220287  52.9969597  48.3334827
  80.5599976  53.5462570  47.8042507  80.8605671  52.8476191  49.2646885
  81.9335365  53.7049198  48.4459734  82.8721523  46.8264151  46.1844683
  83.6410713  47.0953560  45.2655649  83.2752800  46.3993454  47.3868704
  82.6554680  46.3751125  48.1839561  84.6944427  45.9765625  47.7206755
  85.3457165  46.8341780  47.5520468  84.8217392  45.4727268  49.1404867
  84.3497467  46.1822176  49.8201513  84.3102169  44.5103645  49.1578674
  86.1145687  45.2725267  49.4709492  86.2944794  45.5795717  50.3625584
  85.1900196  44.9823284  46.6343689  86.1529064  45.1753998  45.9647226
  84.4192219  43.9256620  46.3512039  83.5123444  43.8867140  46.7941093
  84.8713017  42.8235149  45.4500151  85.8555031  42.5187302  45.8057404
  83.8893223  41.6107368  45.5470085  82.8683853  41.9764614  45.4372883
  84.2121792  40.9322929  44.7573376  84.1171169  40.7177734  46.8029976
  85.1232529  40.2989244  46.7837858  83.9716244  41.2898111  47.7193451
  83.0395126  39.6446681  47.0060158  83.1416798  39.2331386  48.0101633
  82.0574379  40.0879526  46.8413544  83.2812977  38.5043669  45.9954357
  83.0726719  38.8595748  44.9862766  84.3244457  38.2000780  46.0811615
  82.3477650  37.3412251  46.2926674  81.3891125  37.6550341  46.2415791
  82.4281979  36.4817262  45.7683659  82.4956512  37.0709872  47.2545433
  85.1075649  43.3264732  43.9631891  85.9820557  42.7840567  43.2814884
  84.3567085  44.3482637  43.4675598  83.6216545  44.7384357  44.0398788
  84.4828606  45.0956583  42.1853399  84.5484257  44.3484163  41.3944960
  83.1219006  45.8634615  41.9295502  82.3248100  45.1213360  41.8847752
  83.0142975  46.6624451  42.6631308  83.0441761  46.7014074  40.6441402
  81.9900894  46.8902826  40.4408360  83.7333488  48.0623770  40.6517076
  83.3442497  48.6674690  41.4705896  84.8168087  47.9874802  40.7445478
  83.5254097  48.5199690  39.6845055  83.3916283  45.8914948  39.3655109
  84.4544315  45.8119965  39.1369486  82.8750896  44.9377537  39.4735432
  82.9478359  46.3937092  38.5059023  85.7634163  45.9233904  42.1240568
  86.6324615  45.7218266  41.2499332  85.9358406  46.8137264  43.1451225
  85.1764393  46.8425798  43.8103867  87.1503544  47.6419783  43.3344793
  87.1234322  48.3985853  42.5503111  87.1099281  48.3816624  44.6802902
  86.7113686  47.7376890  45.4642248  88.1564045  48.6105680  44.8817253
  86.1822891  49.5640659  44.5099306  85.2434921  49.1876507  44.1036272
  86.0862350  49.9171257  45.5366802  86.6111660  50.7124186  43.5625982
  87.8172112  51.1478138  43.6911249  85.7650566  51.2443161  42.7998590
  88.4747601  46.8610430  43.1531143  89.2951775  47.3357344  42.3424435
  88.7286091  45.7518053  43.8378620  88.0144978  45.3045845  44.3947697
  89.9794579  44.9251127  43.7024879  90.7983875  45.6351805  43.5873270
  90.0788879  44.2013311  45.0440741  90.0210190  44.8889875  45.8878088
  89.2927742  43.4627962  45.2012014  91.0658646  43.7406826  45.0019407
  89.8612309  43.8782692  42.5369930  90.8366489  43.1007195  42.3581600
  88.7063694  43.6822367  41.9540262  87.9963303  44.3972015  42.0231533
  88.4248161  42.7340841  40.8339691  87.3498726  42.7731609  40.6576729
  89.2427349  43.0442715  39.5617986  90.2990437  43.0075836  39.8281980
  89.0937138  42.2231579  38.8606095  88.9999294  44.3505239  38.7877297
  89.1606998  45.1666403  39.4921517  89.6516037  44.2973661  37.9156089
  87.5457764  44.3772030  38.2322073  87.3889732  43.4007740  37.7738333
  86.8057919  44.4726753  39.0268183  87.2998238  45.4583645  37.2616553
  87.5228119  45.3374672  36.2840247  87.2309303  46.7322731  37.5455856
  87.4082184  47.2057199  38.7676334  87.4628258  46.5869236  39.5640087
  87.3554230  48.1991959  38.9417362  87.1695328  47.6411963  36.6183734
  87.1982193  47.3163843  35.6624579  87.1323872  48.6119747  36.8946099
  88.6311722  41.2288475  41.2703800  89.1924286  40.3460979  40.5949354
  88.0123711  40.8727503  42.3100090  87.4538612  41.5438461  42.8177547
  87.8335476  39.5172405  42.8114319  88.7996483  39.0158987  42.8697252
  87.3229408  39.5788789  44.2230844  86.3650417  40.0987291  44.2398214
  87.1061325  38.5700083  44.5741940  88.2727623  40.2964926  45.1623249
  88.2919693  41.3561392  44.9075985  87.7797508  40.2128124  46.1308479
  89.6661091  39.5849919  45.2282333  90.6956291  40.2864456  45.4026461
  89.7766590  38.3763862  45.2627802  86.8064594  38.6652708  41.9186544
  86.6946507  37.4512815  41.9949722  86.0490799  39.4116187  41.1377859
  86.3778591  40.3665066  41.1514664  85.1293755  38.9229822  40.1216555
  84.7643948  37.9422522  40.4267168  83.9443302  39.9097443  39.9346685
  84.2558384  40.9294558  39.7082877  83.3639336  39.5468020  39.0864253
  83.0475807  40.0650406  41.1469889  82.4077606  38.9546728  41.6970825
  82.5071144  38.0676103  41.0890961  81.4303017  39.0473318  42.6953793
  81.0174274  38.1268907  43.0810404  81.2241364  40.2387810  43.3049774
  80.5933666  40.3358078  44.4867611  80.2127743  39.4846511  44.7154331
  81.9346714  41.4051914  42.8859282  81.8026447  42.3025465  43.4722090
  82.8658772  41.3396645  41.7886496  83.3399200  42.2485590  41.4486694
  85.8462715  38.7426496  38.8070393  86.6335201  39.5394444  38.3476353
  85.5082512  37.6650333  38.1143498  85.0796509  36.9484043  38.6825466
  86.1981678  37.1193242  36.8638968  87.0976925  37.7053761  36.6754603
  86.6328621  35.6617975  37.0767307  85.8039474  35.0356555  37.4068022
  86.9354439  35.3386998  36.0806632  87.7827930  35.5857563  38.1116843
  88.6588573  35.5094600  37.4676490  88.0197430  36.5222955  38.6165118
  87.7647018  34.4289279  39.1213131  87.8681660  33.4582567  38.6363459
  88.6638927  34.4631314  39.7364402  86.4955330  34.5480800  39.8794055
  85.7165813  34.9966431  39.4188404  86.2983322  34.1262364  41.1222029
  87.2778988  33.6312222  41.8139505  88.1918430  33.7171531  41.3927364
  87.1145630  33.3366871  42.7661419  85.1063633  34.0538049  41.6140461
  84.3309307  34.3991542  41.0667467  85.0224972  33.8789320  42.6052475
  85.3410339  37.2852135  35.5705380  85.7864666  37.0836425  34.4511318
  84.0724659  37.5721264  35.8109784  83.8206768  37.8432131  36.7507792
  83.1009102  37.7836084  34.7260714  83.5656071  38.1747580  33.8209963
  82.5063610  36.4720464  34.3462610  83.2642937  35.7849717  33.9700007
  81.9694233  36.0861111  35.2127790  81.3919449  36.4619017  33.2697201
  80.9296036  37.5272512  32.7976370  80.8998775  35.3343749  32.8651953
  82.0247841  38.7186480  35.3499913  81.6106510  38.5908580  36.5224886
  81.4848995  39.6487689  34.6116757  81.6683102  39.7233510  33.6212730
  80.4245663  40.5955601  35.0478935  80.7713795  41.2531710  35.8449912
  79.8819208  41.4616537  33.9311647  80.6568146  42.0638943  33.4568787
  79.3931913  40.7453346  33.2707572  79.1517258  42.1571350  34.3449450
  79.3122101  39.7255063  35.7483196  78.9029169  40.0966787  36.8689466
  78.9703560  38.6023855  35.1419353  79.5087433  38.3521438  34.3248582
  77.9474545  37.6347828  35.6886601  76.9502878  38.0746460  35.6718802
  77.7648401  36.5195274  34.6900415  78.7010717  35.9930491  34.5045972
  77.0451736  35.7956243  35.0723314  77.3140097  36.8920088  33.2478857
  77.8802633  37.7614856  32.9140139  77.5125265  36.0425401  32.5943565
  75.8662319  37.3649311  33.0607009  74.9873209  36.8905115  33.7506723
  75.4637194  38.1046534  32.0539260  74.4587231  38.1918168  32.0040607
  76.0854149  38.4924507  31.3587976  78.3378601  37.0717216  37.0763874
  77.4350023  36.5450954  37.7368927  79.5490026  37.1946526  37.5648761
  80.2487755  37.4884653  36.8984675  79.9294853  36.8404412  38.9600897
  79.3834305  35.9235239  39.1818762  81.3772583  36.4874983  39.0411949
  81.9622898  37.3883438  38.8559413  81.6544151  36.3590837  40.0875235
  81.8514061  35.2551055  38.2527637  81.1619854  34.4301343  38.4322858
  81.7806053  35.5309606  37.2006273  83.2590008  34.8380923  38.6346841
  83.5498142  33.5974383  38.2996345  83.8981915  35.5250669  39.4881415
  79.5218420  37.9242873  40.0207281  79.2171717  37.6139331  41.1756659
  79.6530485  39.1817975  39.6082187  79.8394251  39.2620420  38.6188126
  79.1518736  40.3828287  40.3259277  79.4614553  40.3063965  41.3682413
  79.7049332  41.6282463  39.5928168  80.7687187  41.6786718  39.8250198
  79.7409391  41.5105104  38.5097885  79.0799809  42.9497290  39.9292541
  77.9975462  43.3188677  39.1666031  77.7065659  42.6356506  38.3824205
  77.4197245  44.5803022  39.3212318  76.6970110  44.7969103  38.5484552
  77.7371407  45.3884840  40.3426886  77.1108246  46.2291813  40.6022120
  78.8212156  45.0418854  41.1185980  79.0889072  45.6814623  41.9466591
  79.5836306  43.8952017  40.8184004  80.4744148  43.7279129  41.4057016
  77.5963020  40.3823614  40.2853537  76.9938087  40.7401991  41.3113832
  76.9688463  39.8228002  39.2494035  77.5067282  39.4516134  38.4793377
  75.5383968  39.5715237  39.0784001  75.1310587  40.5393505  39.3707919
  75.3966665  39.4006991  38.0112386  74.9117708  38.4723163  39.9015856
  73.9753389  38.8247108  40.6724644  75.5465126  37.3272467  39.9365544
  76.3846827  37.2601199  39.3770266  75.2306223  36.2207699  40.8298063
  74.1749430  36.0251307  40.6417561  76.1464405  35.0414681  40.5393600
  75.8520746  34.2229557  41.1962366  76.1424732  34.7580767  39.4868493
  77.1509504  35.3804326  40.7926559  75.3999710  36.6725588  42.3057079
  74.6687031  36.0409641  43.1123543  76.3838959  37.5599527  42.6688242
  77.0751858  37.9618859  42.0518398  76.3299131  38.1002307  44.0028000
  76.0997343  37.2319055  44.6201563  77.6142645  38.6477613  44.6134090
  78.0083656  39.4069004  43.9377689  77.3258400  39.0651011  45.5781603
  78.6515331  37.5679708  44.8810768  78.4581757  36.3574147  44.5462322
  79.7598267  37.9237700  45.3969336  75.1504755  39.0277743  44.2270088
  74.4180489  38.7599850  45.1840210  74.8340416  39.9939036  43.3669472
  75.4459953  40.2463388  42.6041317  73.5919905  40.7237244  43.4963894
  73.6424303  41.3343287  44.3978977  73.4928513  41.8288565  42.3436499
  73.5653400  41.4308596  41.3315058  72.1928549  42.5497246  42.4937391
  72.0561361  43.2662153  41.6837645  71.3270950  41.9081450  42.3296213
  72.1512413  43.0029821  43.4841537  74.6018076  42.8893042  42.4605989
  74.6709299  43.6472130  41.6802835  74.6304989  43.3260202  43.4588766
  75.5375290  42.3395872  42.3589277  72.4275494  39.7802734  43.6643505
  71.6804266  39.9443841  44.6067524  72.3461676  38.7144423  42.8495646
  73.0554581  38.6858273  42.1311045  71.2106276  37.7662373  42.8720188
  70.2321672  38.2465672  42.8748798  71.1748934  36.8735242  41.5354252
  72.1483183  36.3977647  41.4162588  70.4287863  36.0798454  41.4967823
  70.8073759  37.7142882  40.3067207  69.7253895  37.8459358  40.3159761
  71.2517929  38.7065315  40.3844452  71.2054443  36.9960546  39.0270805
  72.2929382  37.0603323  38.9906144  70.8439255  35.9678650  39.0422130
  70.6438875  37.6502943  37.8606749  70.2596569  38.5816956  37.9311442
  70.5442810  37.1581435  36.6330290  70.8774185  35.9350061  36.3456416
  71.2892771  35.3308272  37.0423794  70.7468653  35.6047416  35.4001355
  70.0752211  37.9126120  35.7000232  69.8844290  38.8929772  35.8503079
  70.0094652  37.6096535  34.7387791  71.2482882  36.8305922  44.1057825
  70.1547003  36.4870620  44.5730782  72.4688864  36.6077042  44.7206545
  73.3237267  37.0807981  44.4646645  72.5702763  35.9980226  46.0376167
  71.8882990  35.1543045  45.9320259  74.0260696  35.5126619  46.2266827
  74.1954803  34.8278594  45.3957558  74.7515440  36.3249278  46.1818504
  74.3120098  34.6144772  47.4762392  74.1683006  35.1827884  48.3951902
  73.4733295  33.3575583  47.5881672  72.4727583  33.7838912  47.6602411
  73.6035252  32.8024817  46.6591692  73.7410784  32.6573253  48.3794260
  75.7808304  34.2746544  47.4000740  76.1239767  33.8477349  48.3424616
  75.8640718  33.6269760  46.5273285  76.4034271  35.1410580  47.1768761
  72.1031427  36.9625735  47.1655464  71.2404537  36.4941263  47.8775692
  72.4512815  38.2298517  47.1728134  73.0170679  38.5046554  46.3825798
  71.8252516  39.2344856  48.0872297  72.0820141  38.9324570  49.1025877
  72.4853516  40.5575848  47.7830362  73.5082769  40.4623985  48.1472683
  72.3830891  40.7435846  46.7139053  71.8064833  41.7677546  48.4791565
  70.7500792  41.6511202  48.2372713  71.8056870  41.7035723  49.5672655
  72.4172592  43.4312534  48.0534792  71.8098354  43.5550356  46.3150787
  71.8211603  44.6136713  46.0557175  72.3896551  43.0181742  45.5642891
  70.7623672  43.2796764  46.1921787  70.2613306  39.3088174  48.0970716
  69.6049023  39.4539261  49.1008139  69.6612501  39.2567515  46.9162798
  70.2866220  39.3107748  46.1250162  68.2608032  39.1097713  46.7632198
  67.7709007  39.8654008  47.3773193  67.9954052  39.4561672  45.2842951
  68.7578297  38.8863754  44.7531176  66.9882870  39.0905380  45.0839424
  68.1737614  40.9166098  44.8723030  67.8471327  41.9508028  45.7421207
  67.4728155  41.8142796  46.7459393  68.0885744  43.2868910  45.3576040
  67.9111099  44.0689468  46.0809946  68.6315775  43.6163759  44.1068554
  68.9205933  44.6094084  43.7957954  68.9877367  42.5252104  43.2391787
  69.4124889  42.8151464  42.2894812  68.5987473  41.2508297  43.5220957
  68.9518356  40.5413342  42.7883768  67.7604055  37.7427816  47.1881914
  66.7710352  37.6736736  47.9147959  68.2420683  36.5998793  46.6490078
  69.0253544  36.6200733  46.0117006  67.8038931  35.3021383  47.0759106
  66.7748547  35.1774168  46.7388153  68.6231613  34.2277074  46.4081287
  68.3060837  33.9929748  45.3920269  69.6649837  34.5456553  46.4484119
  68.4846497  33.0362535  47.1546078  67.5993967  32.6841068  47.2725725
  67.8529167  35.1831269  48.6627150  66.9126987  34.7111797  49.2227459
  68.8606644  35.6751847  49.3042946  69.6477270  36.0824633  48.8197803
  68.9723873  35.6353736  50.7869959  68.9569807  34.5672989  51.0039663
  70.3309965  36.1401892  51.2750530  70.4206514  37.1964383  51.0212851
  70.3197813  36.1576962  52.3648548  71.5710688  35.3817916  50.8555508
  71.5067434  34.3421483  50.2343655  72.7416515  35.9372425  50.9705925
  73.6129189  35.4633713  50.7797050  72.7962494  36.8462157  51.4074993
  67.8330898  36.4010406  51.4849234  67.2712564  35.9741449  52.4766684
  67.4457741  37.5361156  50.9404135  67.9257298  37.8734851  50.1182652
  66.2259245  38.3647513  51.3447857  66.4294243  38.6379838  52.3801804
  66.3236904  39.7739029  50.6771469  67.3898840  39.9827886  50.7649279
  66.1665154  39.7622895  49.5986032  65.1397514  40.8889198  51.6326380
  65.7926512  40.6252670  52.7680302  64.9282455  37.6033688  51.0956955
  64.0459204  37.6190424  51.9444132  64.8593044  36.9320440  49.9148846
  65.6164217  37.0519066  49.2572260  63.7069893  36.0890627  49.4959068
  62.8873825  36.7570591  49.7607136  63.7354469  35.7286239  47.9996395
  64.6664000  35.1696658  47.9047871  62.9261208  35.0230312  47.8119564
  63.7540245  36.8800020  46.9877911  63.0020142  38.0584908  47.2255945
  62.3070049  38.0648136  48.0522251  63.0526114  39.1851020  46.3146830
  62.3965931  40.0322962  46.4499807  63.9743900  39.1911626  45.2156305
  63.9604568  40.2717972  44.3691730  64.5413399  40.0548935  43.6362886
  64.7308016  38.0168533  44.9928236  65.3271818  38.0568147  44.0933084
  64.5646667  36.8081307  45.8383369  64.9428177  35.8510756  45.5105400
  63.4728384  34.7801590  50.3297758  62.4032640  34.2087770  50.4272079
  64.6168804  34.2780519  50.8747768  65.4931116  34.6950603  50.5947256
  64.6927261  32.9589748  51.6798735  63.9611387  32.2302365  51.3308430
  66.1015701  32.3396897  51.4073133  66.1904812  32.0677185  50.3555393
  66.8384171  33.1188083  51.6025829  66.5438938  31.0165000  52.1429110
  67.6246500  30.8996749  52.0627356  66.2458706  31.1780572  53.1788588
  65.8954191  29.7487092  51.5722132  64.8117781  29.7430468  51.6896439
  66.1422348  29.6197820  50.5183792  66.5597343  28.5382700  52.2969151
  65.9665203  27.6725817  52.0023346  67.5435877  28.3769751  51.8563271
  66.6664362  28.6275816  53.7460279  65.7356310  28.7897778  54.1029501
  67.0819283  27.7861977  54.1195869  67.2025824  29.4337893  54.0335655
  64.5158195  33.1636643  53.2212639  63.8477421  32.3423839  53.9042807
  64.9532938  34.3164849  53.7666035  65.6352043  34.9761915  53.4203577
  64.5845461  34.6283221  55.2203274  64.8137379  33.7459636  55.8178329
  65.5834866  35.6848979  55.6778622  66.5969038  35.3570366  55.4463530
  65.3893042  36.5855765  55.0954771  65.4056263  35.9505105  57.1339273
  65.6612301  34.9552298  58.1058502  66.0784769  34.0117788  57.7861500
  65.4081774  35.1615238  59.4538975  65.6834078  34.3850112  60.1522350
  64.7245216  36.3042045  59.8683119  64.5555162  36.7387772  61.1483097
  65.1615953  36.3105083  61.7572880  64.3739986  37.3544717  58.8936758
  63.9215231  38.2483196  59.2970371  64.7558880  37.1340036  57.5459766
  64.4644547  37.8298497  56.7731476  63.1030941  34.8970294  55.3119850
  62.4540663  34.4476509  56.2154436  62.7495003  35.9239697  54.4793940
  63.3525753  36.2125349  53.7223387  61.4945126  36.6684055  54.6461964
  61.2606907  36.6588855  55.7107782  61.6311789  38.1215763  54.2603493
  61.9891930  38.2519031  53.2391024  60.6614828  38.6176729  54.3012810
  62.4762726  38.9535642  55.1486397  62.1635962  39.1586065  56.3047361
  63.6225605  39.4158697  54.6455526  64.1409016  40.0918388  55.1882219
  63.8521051  39.4073439  53.6620188  60.2949619  36.0100937  53.8759136
  60.4853010  35.1992154  52.9778671  59.0145350  36.1750388  54.3601465
  58.7022400  36.9615316  55.5304861  59.0816641  37.9774809  55.6399393
  59.0892220  36.4292026  56.3993740  57.1873569  36.9469333  55.6700563
  56.8833733  37.9731870  55.4639053  56.9012928  36.5403318  56.6400766
  56.6173506  36.1050963  54.5071220  55.7859564  36.5970659  54.0022945
  56.2453747  35.1840472  54.9558973  57.8260946  35.8067727  53.5737658
  57.7564812  34.7607732  53.2752037  57.7504396  36.6445088  52.2460079
  58.4747887  37.6224971  52.1314287  56.9593763  36.1987400  51.2773943
  55.8929920  35.2138734  51.4057016  55.1784039  35.5204725  52.1695423
  56.2494183  34.2597508  51.7939281  55.0959206  35.1386356  50.0728178
  54.2628241  35.8405280  50.0353670  54.8741961  34.1004348  49.8256731
  56.1174536  35.6767893  49.1098690  55.6613302  36.1814666  48.2581902
  56.7638969  34.8575282  48.7951899  56.8984652  36.7254066  49.9229479
  57.9077911  36.8607283  49.5342970  56.1268997  38.1083965  49.8490334
  56.0603619  38.7053728  48.8291693  55.6016588  38.5874319  50.9486580
  55.6610012  38.1026053  51.8326950  54.8241377  39.7877383  51.0267258
  54.9137020  40.3043413  50.0711107  53.3298159  39.5516253  51.1933756
  52.7985620  40.5033970  51.1945486  52.9591465  39.0961146  50.2751112
  52.9376554  38.6821961  52.3813772  51.8746424  38.9572310  53.0049229
  53.5769892  37.6340032  52.7010965  55.3741932  40.8195782  51.9991064
  54.7524309  41.8198204  52.1781731  56.5084410  40.5422068  52.6567125
  56.9063902  39.6243691  52.5177336  57.1426201  41.5581369  53.4078074
  56.5002823  41.8636227  54.2337561  58.3588648  40.9350872  54.1020536
  58.1356096  39.9523497  54.5173693  59.1951942  40.9136915  53.4033394
  58.9635229  41.7203665  55.3130341  59.3381786  43.0691385  55.1924372
  59.9735117  43.4420156  56.2763882  60.5663538  44.3307114  56.4350080
  60.1062250  42.3014736  57.0416498  60.8031273  42.2188187  57.7680063
  59.4666862  41.1891270  56.4693260  59.4569635  40.1829863  56.8617487
  57.5466585  42.7985477  52.5748348  57.9526091  42.6110220  51.4631557
  57.4992847  44.0810204  53.0738640  57.3097277  44.2167187  54.0565920
  57.9658127  45.2703905  52.3355532  57.4278784  45.4049444  51.3971424
  57.6381207  46.5409327  53.0804920  58.0577135  46.4980459  54.0855789
  58.2275581  47.3531628  52.6551247  56.0572767  46.9196177  52.9956198
  55.9980774  47.9223108  52.5722980  55.5138063  46.3318062  52.2558737
  55.2398300  46.8937778  54.2930317  54.3712091  45.9858227  54.5027685
  55.3520203  47.8193045  55.1665592  59.4535351  45.2215528  52.0613289
  59.8397207  45.6945705  51.0162640  60.3619289  44.5927095  52.8556204
  60.0220203  44.0753031  53.6536503  61.8205023  44.4320965  52.4964428
  62.2166491  45.3963852  52.1781445  62.5789881  44.1224813  53.7694836
  62.1403074  44.7009659  54.5825100  62.6462317  42.6975822  54.2184401
  62.4426603  42.6094532  55.2856302  61.7207909  42.2535372  53.8517094
  63.3886623  42.0698261  53.7256670  64.0344858  44.6471214  53.7770319
  64.0351868  45.7189751  53.5789871  64.4970083  44.3361473  54.7137642
  64.5766306  44.0859079  53.0159664  62.1475649  43.5267639  51.2875509
  62.9715252  43.8324738  50.4687452  61.2982655  42.5232887  51.0705853
  60.7219839  42.3307800  51.8773937  61.3064384  41.5568447  49.8931074
  62.3503828  41.3606930  49.6485567  60.5406332  40.2813196  50.2747488
  59.9012613  40.5607414  51.1121416  59.5924044  39.7240281  49.2354918
  58.8866329  40.4953480  48.9271927  60.0733042  39.4168901  48.3067799
  59.1130543  38.7900496  49.5287657  61.5003395  39.2636943  50.7699394
  62.3998976  39.5740485  51.3015127  60.9204292  38.5463762  51.3506842
  61.8999100  38.7292552  49.9080753  60.6306887  42.2259521  48.6864758
  61.0987759  42.0691299  47.5603580  59.5537281  43.0002213  48.9032936
  59.1927958  43.1463099  49.8352194  59.0217447  43.8544989  47.8557205
  58.9454031  43.2461357  46.9545221  57.5368977  44.2166853  48.1258774
  57.0889854  43.2601309  48.3950901  57.5873899  44.8158932  49.0349960
  57.0463705  44.8356867  47.3746586  60.0230503  45.0254679  47.4701023
  60.1062155  45.4045153  46.2694263  60.8376169  45.5233049  48.3991432
  60.5974007  45.3010035  49.3546438  61.9521856  46.4173698  48.1269503
  61.6570234  47.2655201  47.5091934  62.6578760  47.0080757  49.3735409
  62.6862669  46.1991596  50.1035738  63.6928034  47.2697306  49.1531849
  61.9740200  48.1698370  49.9932337  61.5427399  48.8520384  49.2606401
  61.0438347  47.8773546  50.4803848  62.9494953  48.9533329  51.2989187
  61.8950272  50.4044008  51.4259386  60.9185553  50.1330853  51.8271828
  62.3352957  51.1028337  52.1375990  61.8173456  50.8003759  50.4133844
  62.9866362  45.7891989  47.3067665  63.3995581  46.3052320  46.2663555
  63.4213591  44.6020126  47.6987982  63.0326986  44.1162491  48.4944582
  64.2848682  43.8064384  46.8220472  65.2438307  44.3202877  46.7553568
  64.4864130  42.4328995  47.4670362  64.6294069  42.5787735  48.5377264
  63.6178207  41.8039322  47.2719717  65.3612995  41.9350910  47.0488787
  63.8467503  43.5673714  45.4195595  64.6093464  43.9197779  44.5235586
  62.6396084  43.1533289  45.1244593  62.0699501  42.8535271  45.9027338
  62.0744085  43.0792379  43.7913752  62.6591253  42.3241520  43.2659674
  60.6582117  42.4976587  43.8380814  59.9903202  43.1038046  44.4501305
  60.2092648  42.4861002  42.8448963  60.4846478  41.1198664  44.4825983
  61.0788012  40.3961897  43.9245939  60.8129930  41.0878372  45.5214739
  59.0513134  40.6419230  44.4489813  58.3552361  41.4308977  44.7337484
  58.8492203  40.4384041  43.3973932  58.7182617  39.4158244  45.1765156
  59.2055750  38.5777593  44.8931837  57.8248405  39.3370056  46.1649609
  56.9567108  40.2718782  46.5287971  56.7621279  41.0710526  45.9426594
  56.4069653  40.1276302  47.3637056  57.8790665  38.2772779  46.9075918
  58.3411360  37.4383521  46.5869761  57.4113512  38.3663297  47.7983284
  62.1720171  44.3249321  42.9768085  62.7740860  44.2654943  41.8740654
  61.8119431  45.5100393  43.5594225  61.4449978  45.4993057  44.5003462
  62.0681572  46.9502306  42.9923391  61.6416502  47.0788956  41.9975328
  61.2521648  47.9610968  43.9038992  60.2065802  47.6642179  43.9859104
  61.6472864  47.8334236  44.9117088  61.2387371  49.4448948  43.4014177
  60.7899761  50.1039076  44.1446590  62.2588015  49.8289871  43.3952141
  60.6100321  49.6942949  42.0209074  60.9766245  48.9559126  41.3078165
  59.5364380  49.5070982  42.0422602  60.8106422  51.1162806  41.5766048
  60.4458904  51.7545176  42.3814058  61.8629360  51.3847733  41.4833832
  60.1194239  51.4190865  40.2903318  60.3054094  52.3954153  40.1106119
  60.4286385  50.9041929  39.4783139  59.1236210  51.2506866  40.3013086
  63.5533524  47.3502445  42.7498579  63.8623285  48.0457783  41.7108822
  64.4421673  46.9872427  43.6385393  64.1974688  46.4585447  44.4635820
  65.8603334  47.3331833  43.4449768  65.9752321  48.3023119  42.9594994
  66.5028143  47.2311735  44.8436975  66.0856628  47.9440022  45.5550051
  66.4078712  46.2377167  45.2820206  67.9995537  47.5868750  44.8076487
  68.4809542  46.9469881  44.0681171  68.2186556  49.0219641  44.4094467
  67.6941490  49.7600079  45.0163126  69.2889118  49.2228222  44.3614101
  67.7398348  49.1651869  43.4407759  68.5794592  47.3858833  46.1743021
  68.5186863  46.3520098  46.5141630  69.6588469  47.5375319  46.1700153
  68.2449389  48.0774784  46.9475412  66.5256929  46.3672447  42.4383211
  67.2797441  46.7469263  41.5539122  66.1796141  45.0603485  42.5165415
  65.5329800  44.7850990  43.2419348  66.4310789  44.0186453  41.4716768
  67.5147104  43.9594841  41.3700056  65.7775927  42.6592827  41.9112062
  66.1388826  42.4566603  42.9194307  64.6893787  42.7203894  41.9239950
  66.3945580  41.6148520  40.9133959  65.9511471  41.7562342  39.9277472
  67.4418545  41.8416309  40.7137871  66.2647724  40.2061796  41.4069843
  65.4779148  39.8799109  42.2754049  67.0835114  39.2640734  40.9924698
  66.8222284  38.3393645  41.3035011  67.8079557  39.2765021  40.2888203
  65.9157324  44.5065260  40.0943136  66.7289591  44.4508266  39.2047238
  64.7548008  45.1267052  39.9616361  64.1045141  45.1250124  40.7344437
  64.2125893  45.5267572  38.6936712  64.2157507  44.7197342  37.9610038
  62.7624512  45.9238052  38.9355636  62.1050453  45.0948477  39.1977596
  62.6406956  46.6303968  39.7565532  62.1686506  46.5606165  37.7094746
  62.0604944  47.8163958  37.5890255  61.9186687  45.8475971  36.7267060
  65.0176096  46.6489124  37.9659724  65.2398872  46.4977312  36.7910004
  65.5348587  47.7369356  38.6294007  65.4014635  47.7199173  39.6304083
  66.4230442  48.7378597  38.0080509  66.0071039  49.1060734  37.0702243
  66.5872622  50.0011301  38.9618373  65.6648207  50.5628586  39.1090178
  67.2251320  49.7435808  40.3659678  66.4816809  49.2020082  40.9508371
  68.1043100  49.0992737  40.3609371  67.4574709  50.7353067  40.7540417
  67.5893927  50.9628630  38.3438420  68.6008930  50.5726528  38.2311153
  67.2294378  50.9628105  37.3149896  67.6584768  51.9747734  38.7430477
  67.8405523  48.1934023  37.6896524  68.4642315  48.6291647  36.6711235
  68.3723640  47.3186207  38.5724545  67.8439331  47.1933126  39.4240165
  69.6222019  46.5513277  38.4648657  70.4645538  47.2217894  38.2944942
  69.8305893  45.6788540  39.7991180  69.9381161  46.3029385  40.6862783
  68.8996792  45.1428986  39.9842262  70.8770561  44.6502590  39.6766973
  72.1546316  45.0140667  39.3444824  72.4112415  46.0610104  39.2776608
  73.0290318  44.0050077  38.8801908  74.0203094  44.2040110  38.5004854
  72.6636171  42.6388597  38.9915276  73.4605169  41.9589281  38.7287736
  71.3857126  42.2369862  39.4348145  71.1876965  41.1892796  39.6065569
  70.4906082  43.2910585  39.7248983  69.4564962  43.0653906  39.9395943
  69.6526814  45.6698799  37.2482085  70.5387592  45.7996845  36.4139366
  68.7634325  44.7308207  37.0920658  68.1825972  44.5628834  37.9010963
  68.6779404  43.8017893  35.9704900  69.6437740  43.3050966  35.8779049
  67.5889730  42.7325153  36.2220788  66.6150808  43.2218075  36.2372422
  67.4905300  42.1752453  35.2904892  67.6802349  41.7996550  37.4786186
  68.0971622  42.4166727  38.2745814  66.7008924  41.4000559  37.7418876
  68.5858250  40.5782747  37.2596931  68.6830711  39.7518015  38.1702638
  69.2652321  40.5346251  36.1873484  68.3378792  44.5307350  34.6813178
  68.6511087  43.9689016  33.6469173  67.7445507  45.7315350  34.6831679
  67.5302935  46.1195612  35.5907083  67.5840569  46.5731096  33.4737110
  67.2077417  45.8812094  32.7202106  66.4566803  47.5742674  33.7296104
  65.5293322  47.0299816  33.9081645  66.7232323  48.1690073  34.6033001
  66.3861370  48.6360931  32.6258326  66.6526842  48.1162930  31.7055798
  65.4122066  49.1115665  32.5096560  67.5476122  49.9463367  33.0009437
  66.7132425  51.0857725  34.1409135  65.9932518  50.4282141  34.6280766
  67.4990463  51.4103794  34.8230052  66.2944460  51.9059181  33.5577536
  68.9293623  47.1021366  33.0373645  69.3635511  46.8883991  31.9105697
  69.6682262  47.8363085  33.8430929  69.4004488  47.9351091  34.8119235
  70.9985352  48.5022163  33.4209299  70.8308887  49.1084480  32.5307178
  71.5887785  49.3957663  34.5609117  71.6590834  48.6871338  35.3861403
  72.6285887  49.6594620  34.3676424  70.7542610  50.6372738  34.9157476
  69.6968079  50.4780340  35.1267815  71.1744356  51.0483313  35.8336735
  70.6806946  51.5539026  33.5910773  70.2941704  50.9164095  32.7959013
  70.0431156  52.4140310  33.7954640  72.0283365  52.0293570  33.1800580
  72.6918268  52.2921276  33.8947868  72.3374033  51.9790411  31.8900561
  71.4322472  51.8623018  30.9152818  70.4800272  52.0690727  31.1810374
  71.7533970  52.0101786  29.9691868  73.5177374  52.0585823  31.4514041
  74.3585920  52.1378326  32.0052862  73.6084175  51.9380331  30.4527330
  71.9704247  47.4008417  33.0678296  72.6777315  47.5705242  32.0157361
  72.0710993  46.3712978  33.9110899  71.3728857  46.4270544  34.6387482
  72.9774284  45.2151060  33.6667299  74.0403605  45.4391909  33.5769963
  73.0178022  44.3210602  34.9678898  73.2769108  44.9844170  35.7930684
  72.0380402  43.8996077  35.1927114  73.9407349  43.1082726  34.9004507
  75.1883125  43.1644535  35.4663539  75.4475689  44.0268135  36.0626173
  76.1497021  42.1261311  35.2436113  77.1273184  42.0996904  35.7018304
  75.7144117  40.9940100  34.5399618  76.3866234  40.1672745  34.3637967
  74.4448328  40.8717871  33.9637017  74.0653896  40.0262213  33.4092259
  73.5496521  41.9598007  34.1638970  72.5856495  41.9891262  33.6778474
  72.5281334  44.4167852  32.4469495  73.4170389  43.9781380  31.7341447
  71.2482929  44.3952465  32.0744610  70.5771685  44.4769382  32.8248072
  70.9409904  43.8485289  30.7406497  71.5273142  42.9444504  30.5764318
  69.4044733  43.6338043  30.6431532  69.1734886  43.1883049  29.6755409
  69.1708183  42.8827524  31.3977623  68.8792992  44.5692587  30.8360791
  71.1904812  44.7617674  29.5591545  71.4877319  44.2412901  28.4698606
  71.1399984  46.0198355  29.7843695  70.9734535  46.4091253  30.7013321
  71.4440298  46.9626760  28.7648273  70.9497261  46.6201353  27.8557420
  70.9095240  48.4647465  29.0032458  71.2794590  48.9227200  29.9205828
  71.2304354  49.0297318  28.1280851  69.3661547  48.4761333  29.0460992
  69.0855455  48.2670593  28.0137968  69.0031385  47.7493382  29.7728062
  68.8538122  49.8502207  29.4740510  69.0769815  50.0228596  30.5269003
  69.1231966  50.5876160  28.7178922  67.3755074  49.7464132  29.4934559
  67.1914864  48.8028336  30.0071669  66.9344759  50.5225277  30.1189446
  66.7317963  49.8248625  28.1745934  67.1354437  50.6000853  27.6684237
  66.8708897  48.9411402  27.7057815  65.7251930  49.9055433  28.1930113
  72.9050207  47.0473766  28.3701301  73.1534195  47.4438477  27.2409153
  73.7971258  46.6586733  29.3541288  73.3540726  46.4001608  30.2241731
  75.2692366  46.5994024  29.2146134  75.6096745  47.6200914  29.3889713
  75.6871891  45.7265806  30.4047489  75.2671385  46.0720301  31.3493752
  75.2680302  44.7409344  30.2024746  77.1974230  45.5740023  30.5596519
  77.6267481  45.1240730  29.6644735  77.6375055  46.5538788  30.7447624
  77.6443100  44.5194006  31.9512796  76.9330311  42.9830980  31.4060354
  75.8510590  43.1018496  31.3482118  77.4205542  42.7172041  30.4680991
  77.0087194  42.2047758  32.1653652  75.8969259  46.0427094  27.9329467
  75.3729105  45.0099087  27.4618340  76.9094324  46.6517353  27.2942996
  77.3785400  47.9616737  27.7317047  77.7978325  47.9718590  28.7377834
  76.5651178  48.6865807  27.7009106  78.5794878  48.2208681  26.8219423
  79.4870138  47.7860641  27.2408056  78.8132572  49.2588663  26.5852761
  78.2918453  47.5082588  25.5149579  79.1736841  47.2360897  24.9349642
  77.6392078  48.2235909  25.0144935  77.4440432  46.2893152  25.9706950
  76.5526676  46.1387491  25.3617001  78.3260012  45.0354767  25.9046769
  78.7175322  44.5383930  26.9965959  78.6877155  44.5166492  24.7182560
  78.3666182  44.8513269  23.8210464  79.4162512  43.2711649  24.6131897
  80.0371265  43.1535625  25.5013251  78.4709692  42.0074701  24.5503068
  77.9859972  41.9947386  25.5263877  77.6817083  42.1486616  23.8119125
  78.9959621  40.5758333  24.3162990  80.2217484  40.3271151  24.5619535
  78.2002544  39.6900940  24.0056968  80.2887344  43.2394934  23.2512760
  79.6838617  43.3265448  22.1774054  81.5233231  42.9828310  23.4104133
  53.7317181  48.2470465  50.5494261  56.1449718  50.4098368  54.1916323
  53.0083990  45.6486130  50.3740168  53.2995415  46.8277216  49.5639515
  52.9672337  48.5319042  51.6937971  64.2412949  43.5910940  57.7165079
  63.8126659  41.1236811  60.3406906  68.6572695  45.0127220  56.5778589
  53.3837175  49.5073938  52.6037836  65.7776976  41.0591507  55.6870317
  62.0077705  41.9939327  59.2245197  54.8475409  49.1141653  50.2595043
  66.6721487  41.3245678  54.6067715  57.6308632  52.1323872  54.1733646
  55.1823425  50.1854610  51.1155033  66.7494965  43.0677271  56.0239124
  54.1512632  46.8761301  48.3973789  54.4758272  50.2849245  52.3795795
  51.7318153  47.1403551  49.1143608  55.0727701  51.1145401  53.4181929
  48.8149738  47.3908234  48.7460375  57.3695183  50.9605408  54.4073296
  45.8386707  49.9045515  46.0608149  58.4412813  50.0402403  54.9224997
  58.2400608  49.1857529  56.0075521  59.3037415  48.4596109  56.4826965
  59.6769190  49.9676991  54.2723894  60.6343079  49.0418100  54.6250248
  60.5252934  48.2593298  55.7958746  61.6519165  47.4562693  56.3343143
  62.9451895  47.4569035  55.7827902  63.9449787  46.6937160  56.2866306
  63.7490368  45.7894087  57.3816919  64.7804737  44.7403383  57.6538134
  64.9524355  42.2891569  57.7358532  63.9612150  41.2329054  58.0366325
  63.1062746  41.4903212  59.2125845  63.1507492  41.3327408  61.6190243
  65.8239222  42.1226978  56.4997482  67.1727228  42.5604439  54.7911882
  68.2310820  43.1316900  53.8905668  67.1011543  44.2585659  56.7348051
  66.1824465  44.9848795  57.4896002  66.8418694  46.0529757  58.1685686
  66.1981153  47.0233679  59.1577435  68.1456470  46.1828852  57.7272654
  69.1665506  47.2074842  58.1478119  62.4719191  45.6893301  57.9177237
  61.4766026  46.4762926  57.4174976  51.1365318  48.2352114  48.4368086
  51.9248199  49.1356993  47.7466345  51.3169527  50.0835752  46.8733215
  49.9353409  50.2531385  46.8841982  49.3165398  51.4240599  46.2163639
  49.1546679  49.2666101  47.5565958  49.7465849  48.2898188  48.2676268
  47.5991964  47.8086853  48.3255100  47.7286005  49.0204954  47.6166439
  46.6729736  49.4536686  46.7642689  52.0865965  47.9627419  51.9765139
  52.8030062  49.5472908  53.5206175  55.4683161  48.8276482  49.4157410
  56.0630035  50.7806540  50.8928347  55.5266285  51.9707870  52.9043341
  54.2818975  51.4975786  54.0746975  55.8810663  49.4392300  54.3118334
  57.3034906  49.3223619  56.5400696  59.2419243  48.0351496  57.4803972
  59.9862385  50.6877613  53.5205698  61.4885902  49.0053034  53.9554977
  63.2898521  48.0156994  54.9177170  64.9291754  46.7650843  55.8331299
  65.6990767  42.3384905  58.5378981  64.5028496  40.2993536  58.2283974
  63.3425140  41.1666870  57.1341467  62.0751429  41.1179161  61.6081381
  63.5597801  40.6486273  62.3725986  63.2369709  42.3726702  61.9571114
  68.0800724  44.2121220  53.7832499  69.2502117  42.9669285  54.2591715
  68.2404947  42.5930691  52.9358673  66.2375402  48.1046200  58.9817095
  65.1666546  46.7395592  59.3969107  66.7283916  46.8815374  60.1066113
  68.5785913  48.1138277  58.3335257  69.6847963  46.9286299  59.0726471
  69.8872328  47.4635363  57.3625040  62.2149611  45.1127291  58.8014126
  60.5523825  46.4964199  57.9874134  51.1798048  46.5286732  49.7019720
  53.0035877  49.0337420  47.8191853  51.9206762  50.7296371  46.2428331
  49.1403246  51.0758209  45.1919937  48.3569670  51.6806555  46.6800880
  50.0430727  52.2446966  46.1975050  49.0105772  46.7168140  49.4716692
  46.7145252  47.1877432  48.3711338  69.0811300  62.7680826  40.0354481
  65.0894690  65.1571655  45.9132004  33.1214523  71.6106462  73.3373785
  70.5855036  56.1199284  54.9222040  63.7393665  62.8817701  81.6613674
  54.3119526  44.8008966  30.0188470  35.3976440  74.6419096  66.7974281
  92.6741194  92.4727753   9.8155267  92.3887228  91.6769627   9.3666799
  93.4801792  92.7256277   9.3654497  55.5700573  28.8213531   0.9573515
  56.2799915  28.2196466   1.1813791  55.5697616  29.4655982   1.6652830
  56.2170887  57.5521755  79.7325706  55.8358479  56.7020035  79.5132732
  56.6237545  57.8494310  78.9186335  35.8122095   7.5870267  49.1003473
  35.9002909   7.5298206  48.1489236  34.8675903   7.5752155  49.2545660
  58.8646603  48.3681297  88.7499523  59.1315603  48.8069296  87.9422092
  57.9173660  48.2618093  88.6630154  31.7768368   1.0258953  28.8625772
  30.8953890   1.3109676  29.1034563  32.3313841   1.3288251  29.5815714
 100.6049656  97.7537992  46.9160040  99.7400593  97.7400377  46.5061529
 100.6101440  96.9879415  47.4901636  76.9297600  40.9222174  71.1715889
  77.5972605  40.9724617  70.4873705  77.2551394  41.4948893  71.8661404
  80.7944463  66.4039865  46.9650800  79.9162077  66.6440418  47.2605569
  81.3791298  66.7736736  47.6266725  68.0716658  75.1897430  80.8991909
  68.3911943  74.5215464  80.2928543  67.1522999  75.3093004  80.6610489
  55.6983742  10.6979982  14.8609026  55.3272041   9.8496763  14.6183832
  56.0648998  11.0408965  14.0458448   1.2970505  96.5128067  18.9480074
   0.3865347  96.7435863  19.1322286   1.8036757  96.9988277  19.5986517
  28.5106882   1.4677421  66.2492235  28.8845667   0.5901042  66.1704691
  27.8279957   1.3784591  66.9142015  12.7730999  74.2743018   9.0279253
  12.1040592  74.3701246   9.7057397  12.5368271  73.4673145   8.5705621
  58.2668400  71.6182137  86.0475445  57.4399137  71.6917515  85.5710793
  58.0218983  71.2519217  86.8972874  97.8397917  89.6114614  57.2437532
  97.2326492  89.8580363  57.9414709  97.3860334  89.8509481  56.4356859
  37.3666223  10.0075141  11.5236910  37.3625692  10.7629005  10.9358080
  37.3971065   9.2497007  10.9397276  22.7172645   5.8636896  31.5337618
  23.2040104   6.6775791  31.6637666  23.3219322   5.2968828  31.0548647
  70.9799551  80.3353694  18.1381471  70.9896563  79.3785623  18.1125124
  71.9000100  80.5817655  18.2331236  25.2594433  91.4191678  14.8170431
  25.3756771  92.1727159  15.3957327  24.9658165  91.7968920  13.9879854
  78.4222101  95.2449587  29.7017820  78.2919811  95.5145147  28.7925966
  78.7954735  94.3657186  29.6398027  38.4396871   6.2808982  22.5658567
  39.2996773   6.5260116  22.9072721  38.3446201   5.3569404  22.7971513
  19.7022613  11.2887660  48.4791620  19.9755844  12.0306913  49.0186746
  20.2597603  11.3390056  47.7026994  47.5698742   0.3721563  16.3012369
  47.3916420   0.7563726  15.4428442  48.4832653   0.0900737  16.2524088
   8.6715851  85.1587155  22.6535661   8.8661537  84.5205381  23.3399351
   9.5266686  85.3855303  22.2880418  81.0518742  57.8269768  73.3394337
  81.9893551  58.0116272  73.3965826  80.7528305  58.3366919  72.5864458
 102.3909304  10.1625577  12.4394186 102.3222706   9.4264833  11.8313844
 101.5381501  10.5944673  12.3899133  67.5531958  83.8184240  35.2726514
  67.3286532  83.7019303  34.3494852  68.3721946  84.3136957  35.2592905
  82.8676342  67.5700667  32.8608186  83.2510303  66.7120841  33.0427606
  83.5831331  68.0750766  32.4744756  86.1952566  80.5636409  31.0262067
  86.8735145  79.9453833  30.7542570  85.7014107  80.7444742  30.2264269
 107.3272918  92.6073149   9.3562276 108.1108783  93.1520250   9.2819650
 107.6628183  91.7264965   9.5230062 104.6330999 101.6090658  27.7160986
 105.4832910 101.3216808  27.3832090 104.8346590 102.3662928  28.2658441
  35.9611177  16.3891160  72.8175163  36.4488363  16.8847501  72.1597099
  35.7269835  15.5722249  72.3769426 101.3247989  52.2800394  58.6154325
 101.0738682  51.5489330  58.0508478 100.9259437  53.0473667  58.2051237
  39.0488800  26.1976568  33.1542356  38.8326343  27.0489112  33.5347994
  39.2267879  25.6361953  33.9087827  60.2730068  25.5058042   1.1100919
  60.7883056  25.5516044   0.3047331  59.9558243  26.3991443   1.2426241
  28.5949383 100.2605465  50.9742983  28.8586292 100.5213192  51.8567331
  29.2364655  99.5977333  50.7186563 108.5185884  71.8873122  20.0376279
 109.1393493  71.7437246  19.3232973 107.6578306  71.8097475  19.6261556
  56.5986713  22.0735828  39.6947916  56.4481815  21.8558017  38.7749250
  56.9331440  22.9702655  39.6770055  92.3630499 102.8593901  45.1499136
  92.1386408 102.4789694  44.3007047  93.2899927 102.6518276  45.2679117
   3.0824407   8.7347118   4.0124090   3.7396845   8.6931363   3.3177621
   3.5309848   8.3958093   4.7871263  45.8232197   0.3840343  43.3845766
  45.3278240  -0.2853068  43.8565977  45.1810440   0.7924453  42.8040369
 103.9250063  81.8802264  10.6749876 103.8854336  82.8004196  10.9355886
 104.0557216  81.4044168  11.4952047  34.3978771   3.6130849  34.0644033
  34.0949282   2.7447072  34.3296869  35.2805456   3.4654180  33.7248094
  97.4121021  64.4254747  51.7171629  97.1786903  63.8197258  52.4206026
  96.9550632  65.2369097  51.9383485 104.9280285  77.1233323  25.3115995
 105.1314472  76.5569094  24.5672758 104.0205311  76.9129875  25.5316694
  27.6742530  51.6321754  77.6416826  27.9042649  50.9202051  78.2386971
  26.8626881  51.3425207  77.2249126  85.7501339  71.4073697  17.6854093
  84.8281692  71.6632345  17.7125986  85.9482168  71.1300328  18.5798795
 103.6301517  38.2311535  82.6958561 104.3957520  38.7689328  82.8980541
 103.7993717  37.8948045  81.8158150   3.3089218  96.2591675  33.3882005
   4.0950451  96.7778089  33.2171495   3.3690701  95.5245474  32.7775152
  87.4020504  93.0131557  57.1079881  87.5149320  92.1006992  57.3742731
  88.2561420  93.4158447  57.2648103  56.3021072  22.2670165   2.6119859
  55.5131229  22.6750652   2.2553022  56.2496647  22.4273960   3.5541971
   5.3983625   6.0348503   3.4243925   5.7063564   5.2041522   3.0620153
   5.9285387   6.6993419   2.9843958  40.1789697  28.6572257  16.5764768
  40.8209785  28.5154239  15.8808191  40.0151380  27.7840701  16.9328268
  83.0359745  99.7875786  81.8647003  83.8848209  99.9987602  82.2533989
  83.2412243  99.1717052  81.1612701  90.0739454  70.2232018  37.7732904
  91.0055565  70.4389921  37.7313001  89.7241234  70.5066827  36.9286020
  64.3789338  91.3908055  42.1114690  64.0642904  91.3696292  41.2077100
  63.6496114  91.0466841  42.6271303  35.7044443  17.3860113  11.6355856
  35.1427778  17.3658220  12.4104078  35.1125368  17.6064817  10.9163721
 100.4510330  72.7138331  20.1403577 100.3627418  73.5666874  20.5658872
  99.8164819  72.7367070  19.4240720  77.4155926  90.9100535  18.0616529
  77.0341038  90.0908544  18.3772524  77.6380705  90.7341006  17.1474416
 108.8404487  93.2294443  64.5730837 108.8083957  94.0495327  64.0804727
 109.2689632  93.4615066  65.3969438   9.8270592  16.3733426  27.7118261
  10.4988273  15.8881036  27.2327669   9.6883425  17.1658079  27.1931799
  34.6623882  15.0270168  22.1130617  35.2554067  14.3190996  21.8612440
  33.8179668  14.7768966  21.7380579   7.8008350  20.6310693  12.9636247
   8.2289108  21.3275329  12.4657114   7.5691589  19.9746076  12.3066480
  80.1666902  76.9885686  41.8751867  79.3080209  76.6395476  41.6362341
  80.4440712  77.4885824  41.1075456  19.6567211  55.5894738  13.6938341
  20.4278908  55.1896322  14.0959127  19.3026695  56.1632508  14.3732889
  57.6340008  33.1102014  83.9547157  58.0831432  32.2654772  83.9239502
  58.0631351  33.6344004  83.2784748  60.4055977  39.9586272  75.0506783
  60.0811529  39.4193459  74.3294716  60.0485897  40.8297682  74.8777771
  34.6909642  50.4976606  79.7481537  34.3911099  51.4063978  79.7709322
  34.5749092  50.2299309  78.8365173  20.1007398   5.1627723  26.5634115
  20.9310802   5.5733482  26.8046339  19.4678482   5.5174962  27.1877916
  31.6896877  94.8784855  15.3509767  31.7842636  95.7414558  15.7541711
  31.4152203  95.0626209  14.4526441   4.2377434  84.2636803  42.6236589
   4.4598875  85.0274089  42.0911081   3.2905397  84.3251446  42.7471883
  32.5370773  29.7448818  39.6443613  33.1660971  29.0477172  39.4585569
  31.6851600  29.3598453  39.4389207  83.4865856  63.6047840  79.0261793
  84.0540600  63.3020067  78.3172894  83.2949448  64.5165682  78.8067436
  70.5172704  91.1117175   4.6488054  69.7374605  90.9897497   5.1903398
  71.2495397  90.9466603   5.2427538  80.4016279  79.0082291  39.6070821
  79.6606086  79.5614388  39.3599374  81.0082506  79.0770176  38.8698537
  21.7355522   0.4148857  24.3998773  21.5107092  -0.4877289  24.6256216
  22.3338350   0.3340761  23.6570699  55.2465963  18.7153602  89.1851997
  55.4664898  19.4218826  89.7924042  55.3221893  19.1128731  88.3177280
  68.1300625  13.6110679  61.8815477  67.5916084  13.7686960  62.6570757
  68.7180981  12.9008571  62.1385534  43.4722980   2.5945941  64.5737417
  43.4537252   3.5516063  64.5782812  44.0754589   2.3701040  63.8651998
  74.6308502   9.5449630  12.6179845  74.3796429   9.5208446  11.6946561
  73.9177879  10.0170938  13.0479486   8.0051670  88.7772897  28.3671720
   7.7441082  87.9041865  28.6600359   8.8875828  88.6582044  28.0158956
 102.7090954  83.5295608  30.4538877 103.1179832  82.8936031  31.0409124
 101.7943166  83.2528308  30.4007299 105.7647156  72.2910979   7.6162679
 105.4234957  73.1778267   7.5000436 105.9243940  71.9773224   6.7261751
  38.9418396  13.1947128  10.1137121  39.2296871  13.4110872  11.0006006
  38.4394964  13.9591590   9.8317583  41.0964664  16.4313928  25.6479223
  41.1204799  15.6662980  26.2226255  41.8217739  16.2958042  25.0381906
  98.6867355  60.6430068  61.3681276  98.1398224  60.9014824  62.1099527
  99.5819639  60.8185550  61.6579206   0.7245455  91.9586447  60.3029306
  -0.0239029  91.6229275  60.7962377   0.3427420  92.5762871  59.6792562
  87.5694727  91.2447265  60.7852895  86.8620371  90.7050970  61.1382253
  88.3103250  91.0798099  61.3685281   4.5908556  99.8412683  45.0757082
   5.3260431 100.4110887  44.8497923   4.7648630  99.5720079  45.9776266
 100.6531500  73.5355285  35.7797868 100.8898710  74.4224575  35.5085905
 101.3494896  73.2756117  36.3829382  25.0668796  15.5507223  59.2904718
  25.2003893  14.6123735  59.1566332  24.8785433  15.8928911  58.4165819
  35.9792789  12.4874107  20.9445341  35.7507356  11.6614429  21.3708837
  36.9363340  12.5031797  20.9503801  48.1244040  37.4131346  88.3099747
  47.7803421  38.3063364  88.3033276  47.4759054  36.9030452  87.8247070
  82.7507877  56.1776400  82.1956635  82.7138710  55.5500221  81.4738846
  83.0307579  55.6590414  82.9499149  38.7839397  24.2817680   9.5483358
  38.9059576  24.4001666  10.4903181  38.4585842  25.1278011   9.2407663
  92.0983242  86.6843870  62.8459604  92.0997595  87.1150377  61.9911058
  91.2045025  86.7970732  63.1694086  43.7540802   7.0400993   4.7655542
  43.6348995   6.5317289   5.5677946  43.1478485   6.6447011   4.1391618
  56.0276556  95.6563282  75.4617739  56.6477966  94.9291897  75.5159092
  56.1691141  96.1522961  76.2681437   3.5282263  20.5798189  41.4511068
   3.8370403  19.8940841  42.0432432   2.9831632  20.1183502  40.8137853
  42.7329811  15.0587455  34.7664125  42.2646507  14.4229213  35.3073557
  42.5532373  14.7861854  33.8666113  19.2105326   2.6418487   3.9306219
  19.9405321   3.1893340   4.2197378  19.0601333   2.9033557   3.0221994
  18.2031403 100.2456263   0.5534990  17.3985443  99.9728516   0.1125295
  17.9071579 100.8276537   1.2534101  50.7159790  30.1842300  24.6979768
  50.4463085  29.5908824  25.3990038  50.1623710  30.9567443  24.8118360
  47.8795052  42.0888996  85.1171112  48.6871815  42.5953722  85.2029896
  47.6075029  41.9171333  86.0186291  13.5193119 101.8601158   4.4711549
  13.9562187 101.0641554   4.1681917  12.9835281 102.1369818   3.7278421
  17.3274740   3.4226266   6.9199236  17.9494795   4.0175907   7.3386819
  16.8737348   2.9988710   7.6484735  47.8551172  59.5502671  20.2671583
  47.5652670  59.5325640  21.1792429  47.1549474  59.1106215  19.7847612
  30.9327675  95.4682486  67.5665569  31.8057276  95.0779634  67.5235033
  31.0937144  96.3977491  67.7289057 106.0056280  58.9409110  38.2303579
 105.6692528  59.3829742  39.0098817 106.4425873  58.1591239  38.5681493
  35.0587210  11.0140554  30.1021345  34.4975361  11.0713760  29.3288190
  35.7141241  11.6997806  29.9738081  48.7711000  34.8230433  78.4817076
  48.2545614  35.5008578  78.9175844  49.3055773  34.4435573  79.1792393
  81.2927841  67.2078433  16.0041387  80.4674696  67.2276988  16.4885957
  81.7767595  67.9691317  16.3242014  84.2347263  88.5079410   8.2898862
  83.9376901  89.3456176   8.6452730  83.4344028  87.9921248   8.1916959
  74.0585541  41.4504555   6.9110258  74.0944861  42.2025755   7.5020082
  73.6664556  41.7948672   6.1086137  70.7047247  80.1712110  23.0595453
  70.6917690  79.4431332  22.4382837  71.6289209  80.2772191  23.2850607
  36.0485220  57.8688097  88.8335800  35.7577705  57.7654552  89.7396755
  37.0042014  57.8545475  88.8855934  35.4227600  50.2308416  34.9380453
  35.0535927  50.7976546  35.6152971  36.3176594  50.5495737  34.8205907
   0.9864340  75.5075100  36.8271120   1.6554318  76.0496190  37.2451933
   1.1227474  74.6337917  37.1935327  88.3790897  91.4914229   0.9874113
  87.8025936  91.3208893   1.7322595  88.0999826  90.8645394   0.3200681
  25.9769186  16.2676660  29.8964079  25.7565912  17.0362274  29.3701036
  25.1400932  15.9787074  30.2603681  23.4419403  75.3624823  11.2466581
  24.1406879  75.6379464  11.8400438  23.8257752  75.4383972  10.3730734
   1.7040405  91.6993072   7.0063265   1.4460287  92.1140459   6.1831339
   0.9497080  91.8214300   7.5827844   2.8515635  63.4439590  14.6013982
   3.2776079  63.1054893  13.8138921   2.0877419  62.8797617  14.7217806
   8.2562885  83.0751589  24.8116357   7.6539860  82.6840594  25.4444845
   7.9867992  82.7115586  23.9681871  27.0696316  90.7540610   0.8614786
  27.1981106  90.4687956   1.7661054  27.5805149  90.1347783   0.3402097
  70.4286671  23.6109614  79.5052814  70.8655643  24.3564343  79.0934229
  69.6929502  23.9971423  79.9804831  43.7219954  13.4515977  57.3103857
  44.2984724  12.7036464  57.4668264  44.3123770  14.1587734  57.0504141
 104.2550014  88.1663611  25.8767469 104.9318050  88.0983808  25.2032907
 104.6944355  87.9031446  26.6853578  84.0377045  23.7083769  84.8087025
  83.1367493  23.3852196  84.7997761  84.5756626  22.9200149  84.7357845
 107.5284456  61.0788682  28.0903394 107.9466413  60.9051177  28.9336355
 106.8603729  60.3981504  28.0095251  16.3538300  46.6550303  85.9220505
  15.4215657  46.7981243  85.7588768  16.5166127  45.7631731  85.6149197
  78.0183386  78.4308412  36.1883886  77.8036760  78.7130311  35.2992780
  78.4814714  79.1760805  36.5709551  77.9488634  80.4372313  42.7867372
  78.1608986  79.9546292  41.9877584  78.1635736  81.3470867  42.5810869
  65.9572052  90.0273755   2.7610452  66.6661118  89.3850592   2.7944238
  65.8650755  90.3295782   3.6646040  44.0600571   0.8522645  15.7042081
  43.1338915   0.6585018  15.5596311  44.5114311   0.4180042  14.9803884
  47.9253467   2.8857080  61.5471323  47.0801529   2.5388709  61.8327673
  48.5154232   2.7129403  62.2807462   4.3096218  69.1558721   1.2376554
   3.8934956  69.8488346   1.7503698   4.0116892  68.3434155   1.6467817
  81.7269325  38.8026738  68.0823660  81.5526962  37.9180646  67.7609015
  81.6976357  39.3522167  67.2991800  53.2476505  20.2737657  21.9652231
  52.5759205  19.7367135  22.3854406  53.3863624  19.8604146  21.1130960
  30.3826771 101.6452434   1.8812235  29.5523033 101.9193199   1.4918668
  30.6516705 102.3892382   2.4200590  25.4142628  74.9355247   0.1920087
  25.0057945  75.6002238  -0.3625719  26.1670647  75.3792122   0.5827291
   3.6710892  61.9421556   5.6508882   3.4531937  62.8482631   5.8693464
   4.1451893  61.6184798   6.4168508 105.3674530  36.5217069  20.6548174
 105.9168743  36.3013294  19.9026163 105.6209348  35.8916381  21.3293512
  17.4429855  77.4423793  39.0641840  17.9928837  77.7332762  38.3367117
  17.5642548  76.4932850  39.0914877  78.2651018  80.8533171  39.7106226
  77.4297355  80.4344132  39.5034654  78.0818866  81.7914107  39.6591623
   5.4995371 101.0571996  75.3231144   5.2074267 101.0093806  74.4128323
   4.7098423 101.2783741  75.8167696  81.5122484  94.8951462   0.2520616
  82.2013115  95.5574778   0.3044565  80.8899473  95.1423242   0.9360845
  83.0572008  86.6943291  48.3476980  83.4336303  87.5740602  48.3230360
  82.1681856  86.8233922  48.6781938  90.3589271  79.5751932  15.1858480
  90.5291628  79.8686078  16.0809190  90.3416418  80.3806522  14.6689661
  99.7162985  75.3202775  27.4072797  99.4972967  74.4060352  27.5873716
  99.8752521  75.3471115  26.4637525  85.8255457  73.7904408  43.1335218
  86.3455127  73.9789536  42.3522909  85.4452347  74.6342876  43.3774812
 102.1861814  99.0248325   5.4512460 102.3219799  98.1043938   5.2263506
 101.8798946  99.4272879   4.6385629  97.0854687  89.0215495  14.8378236
  97.9398130  89.3382099  14.5444830  97.2792410  88.4899834  15.6099184
  23.9245535  89.6327340  88.6270428  23.0090309  89.5022499  88.3800316
  24.3097712  90.0955175  87.8829575  86.9435905  55.6171465  47.4442537
  87.2148775  55.3646156  46.5617139  86.6878055  54.7942075  47.8608759
  13.0101357  46.2173840  14.9108465  13.5778294  46.9841116  14.8328359
  12.9005776  45.9080019  14.0116651  56.4975023  37.6105690  74.6661139
  55.9052706  37.9122972  73.9773130  55.9792662  37.6663184  75.4689550
   0.2116047  33.3997822  85.8359051   0.3464829  32.8159952  86.5823841
  -0.4470981  34.0255404  86.1371803  74.0636349  36.0249829  83.5961342
  74.4414949  35.5521488  82.8545952  74.2494631  36.9458961  83.4127808
   8.6822853  59.7169062  36.3784368   7.7251682  59.7070083  36.3863428
   8.9316807  59.4762036  37.2706754  94.5024322  39.7271791   4.3109281
  94.3966841  39.1549304   5.0709207  94.6446441  39.1281536   3.5780103
  74.1844009  91.9417074   9.4819791  73.4401582  91.4507392   9.1337259
  73.8003968  92.5288895  10.1331289  96.1758350  62.6743832  34.2912729
  96.9099830  62.6257124  34.9035604  96.5629314  62.9997983  33.4785707
 104.8898958  98.1934288   4.1767461 104.3116640  97.4449613   4.3239744
 104.9618934  98.6127832   5.0341756   5.9272585  76.4777186  16.8363149
   6.4854584  76.5625265  16.0633619   5.9473047  77.3442462  17.2424753
  10.5272174  16.7443240  79.5072603  10.5550528  17.6647043  79.2458057
  11.4112365  16.4197779  79.3357658 104.5100594  28.1563520  62.5578880
 104.9592686  28.7500167  61.9562197 105.0733089  27.3833895  62.5967741
  78.7909006  74.2010334  21.7892797  78.5353922  75.1038554  21.5998991
  79.5154737  74.0261867  21.1887319  95.1235794  61.3847336  21.9042547
  94.5910715  60.7119456  21.4799650  94.6072220  61.6554370  22.6634176
  15.6483612  80.2036002  17.3499162  15.0528965  79.5731428  16.9447286
  15.9292755  80.7658818  16.6280038  64.4670566   1.2963811  35.8697946
  64.0239891   0.4614059  36.0205991  63.8795933   1.7774097  35.2869280
 105.2018713  74.7504142   7.1732671 104.9746298  75.1293614   6.3241537
 105.8321642  75.3651097   7.5489195 106.8726848  93.4524801  25.0947244
 107.6358389  93.5553577  24.5261724 106.7883562  92.5064352  25.2135809
  53.8388300  29.5462346  84.3582249  54.1019917  29.0729570  85.1475239
  53.8639975  28.8873839  83.6643124 103.7345909  80.2613714  23.0917127
 103.0571913  80.1239684  23.7538870 104.0692924  79.3840697  22.9058416
  14.6830902  82.3674848   7.8373773  15.3242645  81.6660431   7.7228983
  14.9240170  82.7791098   8.6672838 108.5464739  74.3315485  34.9311121
 108.9868664  74.7990063  35.6408746 109.0281938  74.5834973  34.1432626
  25.9025345  75.6986621  19.5956571  26.7074642  76.2049249  19.7052820
  26.1071262  75.0705007  18.9029939 108.2109855  42.1050235   7.3946245
 107.6083874  41.4381686   7.7238805 109.0459703  41.6469428   7.2987325
 106.9981312  99.1005924  18.9666326 107.7922128  99.5742491  18.7190206
 106.6806864  99.5563152  19.7462328  83.0377411  94.7628668   8.8095625
  83.2142233  95.4495027   9.4526918  82.7169012  94.0253427   9.3285520
  76.1557530  71.1487737  25.0644357  76.0739015  72.0305040  24.7010000
  75.9878014  71.2589279  26.0003336 109.2730141  54.7321224  80.6336117
 108.4440422  55.1198626  80.3530979 109.5714951  54.2302656  79.8751307
  14.0440998  63.2960966   4.1313703  14.0570126  64.2104509   4.4142587
  13.2074032  62.9583290   4.4508989  66.1467934  36.6079879  88.9229393
  65.5736446  35.9730029  89.3525124  67.0262432  36.3781548  89.2229080
  12.0999966  57.6024869  16.9489057  12.0655880  57.7432862  16.0027368
  11.3530502  57.0331219  17.1336420  64.9618912  20.1046538  76.4802551
  64.5725250  19.2476714  76.3064528  64.3560982  20.7285404  76.0802412
   9.4737492  92.0090034  52.3464830   9.3411598  92.7234533  52.9695566
  10.4235420  91.8958071  52.3104532  42.3600468   9.5536081   9.3357713
  41.7785534   8.8970653   8.9522989  42.8213629   9.0871183  10.0327642
  95.4742788  85.0776294   2.1987398  95.0886034  85.9536436   2.1896131
  94.9038147  84.5707825   2.7765806  78.6469412  16.1344957  88.5434628
  79.1330004  15.6266785  89.1931534  78.0490780  16.6747260  89.0601349
  25.6490765  93.0406645   7.9046590  26.0401020  92.4039867   7.3063429
  25.5406532  93.8311174   7.3758276  63.6047910  92.1560362   1.1895330
  64.5553588  92.1726778   1.0782869  63.3494209  93.0783918   1.2062986
  91.5596771  43.6005116  81.3379192  92.1529579  43.4567165  80.6006527
  91.7133808  44.5095634  81.5952682   8.4300480  84.3457916  28.0460985
   9.1400395  84.0568879  27.4727876   8.2076035  83.5703400  28.5612924
  26.9332576  20.5815578  87.6022625  26.6161942  20.3764772  88.4818268
  26.2897158  20.1826668  87.0166206  79.8760532 101.6897610   0.0771577
  80.5391859 102.3224047  -0.1989691  79.6742510 101.9332340   0.9806116
  80.5371450  74.2132214   8.7253530  81.1647104  73.6828688   8.2343156
  80.1092790  74.7539285   8.0614240  67.0219374  13.9487839  86.5182209
  66.4638329  13.2144177  86.7740822  67.3819017  13.6916625  85.6693745
   1.5830431  76.3625267   6.7664487   1.8212805  77.0812133   7.3520811
   1.9821606  75.5881169   7.1629675  83.0262588  83.6243489   7.5629194
  83.7558244  83.4003404   8.1406648  83.4197496  84.1670182   6.8796117
  79.0663456  89.6331432  15.8872373  79.7819065  89.9889114  15.3603323
  79.4063925  88.8044050  16.2245710  22.1814370   1.3981140  65.9274149
  22.7542925   0.9122829  66.5207434  21.4013958   1.5871949  66.4489698
  86.7690157  85.0569060   2.0397241  86.8589376  84.1188887   1.8715913
  86.0507416  85.3343752   1.4711054  67.5892544  37.4986339  82.8054619
  68.2057619  36.8138099  83.0646324  67.4409723  37.3466921  81.8721104
  16.7691692   4.1819230  45.6691034  16.5049061   4.0248863  46.5755994
  17.7251991   4.1383115  45.6873377  97.5203060  63.8982704   5.9459932
  97.2218441  64.5100894   5.2730615  97.2686886  63.0362573   5.6145437
  34.1571261  85.4104101  84.8589039  34.9164845  84.9613546  85.2303219
  33.6186386  85.6374072  85.6170177  99.1453718  62.5330463  20.2324159
  98.3293365  62.8687563  19.8614366  98.8998245  62.2121611  21.1001547
  61.4311575  75.1176694  21.6848238  62.2616218  75.5021623  21.4042432
  61.0098838  74.8381713  20.8720262  37.7236233  55.7388273  17.7931650
  37.7618465  56.2025332  18.6296709  37.7959690  56.4285788  17.1334322
 103.2427213   7.5103275  42.1232088 103.0804632   8.2125942  42.7530725
 102.5091360   7.5637761  41.5106542  64.3676471  74.2712024  24.8364027
  64.0302538  73.6865786  24.1577203  63.6373185  74.8584106  25.0314481
  66.1256933  46.0807848  81.7023373  66.5392065  46.3581610  80.8848381
  65.3184080  45.6463528  81.4270306  49.6604881 100.7174328  23.4115846
  49.1673908 100.2512196  22.7365072  49.0082798 101.2635830  23.8504083
 100.7546113  21.3504020  37.5419576 101.7060039  21.2984363  37.6335294
 100.4163930  21.0667173  38.3912904  91.5527366  23.1611040   1.9391210
  92.1168445  23.8303640   1.5516908  90.7949566  23.6462834   2.2656305
   4.6570072  91.7126444  56.1647184   3.8037024  92.0285395  56.4618929
   5.0070582  92.4297550  55.6360967  64.8933315   8.8072795  81.4526463
  65.0324202   9.2725194  80.6277561  65.3711462   9.3231577  82.1020985
  87.9126953  71.0891261  21.7581327  87.2756027  71.8034580  21.7668588
  88.6303352  71.4148643  21.2148817   2.4177990  58.1497344  17.6006849
   1.8912563  58.8238057  18.0303438   2.5635300  57.4907782  18.2794817
 104.6305822  57.7004370  58.3842714 104.0244125  56.9651463  58.4744890
 105.4130815  57.4257919  58.8622911  58.2256650  73.1286719  16.9854028
  58.2230352  72.1733168  16.9260557  58.2294439  73.3102634  17.9252107
  89.2628692  52.6131960  28.2142122  89.9441265  52.1273438  28.6790426
  88.5205816  52.0099137  28.1783350  92.0100235  87.4897149  14.0175684
  92.7260946  88.0750969  13.7709863  91.9287466  87.5967052  14.9652918
  85.2877235   6.8954593  73.1660414  85.0077915   6.0643327  73.5495758
  84.7290039   7.0043629  72.3964882  80.7407783  98.2114199   2.6304681
  81.4711450  98.8285568   2.5863893  80.3047680  98.2953766   1.7824800
 104.7779583  92.4771908  14.0213449 104.3202423  93.3050659  13.8752325
 104.9915003  92.1632555  13.1426675  84.1029857  82.5735023  26.2420328
  84.9954818  82.8753641  26.0730322  84.1822742  81.6227105  26.3190801
  89.0734075 100.2203300  30.6959589  88.1947397 100.4095486  31.0251672
  88.9959024  99.3576363  30.2885492   7.3170147  84.0460661  41.8071802
   7.5000534  83.6675456  40.9472616   6.4014015  83.8242319  41.9765432
  99.6516988  10.3268806  35.9374578  99.0296147   9.9062292  36.5310056
  99.8319933  11.1756078  36.3416727  46.3900995  44.7081566  85.7011795
  46.7397022  43.8340282  85.5282402  46.9288063  45.0441647  86.4175129
  35.9856972   5.0990478  15.5334814  35.7502111   4.1997424  15.7616003
  35.1664051   5.5880109  15.6103571  15.2802715 102.1963623  43.1852968
  15.6855831 103.0258491  43.4380872  15.7411537 101.9380215  42.3871191
 109.2892288  87.8694299  44.2982347 109.1249155  88.6380556  43.7519319
 108.4231018  87.4880913  44.4418771  37.9777225  19.5670406  33.5133894
  37.4559530  20.3655092  33.5936411  38.3287653  19.5987455  32.6234491
  14.2200718  72.7498486   2.1054227  13.6406288  73.1618812   1.4645631
  14.5191441  73.4724620   2.6573522  12.0207272  79.6537593   5.8794744
  12.4436817  79.7986296   5.0330980  11.8861542  78.7069776   5.9210451
  27.8274990  90.1073944  89.1570568  27.2301127  89.6856390  89.7746944
  28.0196406  89.4297003  88.5089493  93.0613970  68.0366221  35.0819357
  92.5963472  68.8597277  34.9320848  92.4469208  67.3594096  34.7990377
   7.7337958  94.8898464  86.1133194   7.4330593  95.7351856  85.7798576
   8.1475617  95.0964259  86.9513798 107.8142809  97.9254463  35.2964742
 106.8990110  98.2052162  35.2808054 107.8188347  97.0943001  34.8216970
  19.6566830  87.5204399  17.3341615  19.6698437  86.5678146  17.2416361
  19.1698704  87.6757601  18.1435545  99.8738502  90.2602151  30.5779512
 100.5134081  90.8411601  30.9898908  99.0651916  90.4081467  31.0682733
   3.0728016  84.8549989  25.6641538   3.3682976  85.1956633  26.5084608
   3.6191950  85.3050139  25.0198133  90.1155971  76.3547757  11.1636789
  89.3352627  76.7002252  11.5972383  90.8297323  76.9088080  11.4787729
  60.4875168   7.4990598  31.2117059  59.6852192   7.3482267  30.7119138
  61.1631664   7.0221464  30.7297475  69.8416218   8.4131757  16.2704141
  70.4600700   7.9039804  15.7465036  70.2555355   8.4808437  17.1308382
  79.6253275  86.2491038  33.1391008  80.0301145  86.5425995  32.3228605
  79.3377517  87.0554402  33.5672910  34.4638500  84.6746805  25.8132417
  33.5224114  84.5677140  25.6773431  34.6889649  84.0098432  26.4640482
  36.6762384  21.3606540  39.9699361  35.7475742  21.5059511  40.1507528
  36.6880401  20.6351749  39.3456133   3.2782421  81.5942028  31.2256105
   3.8018951  82.0057776  31.9130857   3.1447706  80.6968954  31.5309866
  36.0405334  17.4245111  21.2994154  35.6775698  18.2137052  21.7014845
  35.5139097  16.7096368  21.6569765 101.9534229  81.8971184  14.4541509
 101.5835499  81.8847135  15.3369196 101.1914228  81.9263008  13.8755853
 103.8978981  88.6643436  15.7272012 103.1322597  88.1259420  15.9275682
 104.6455263  88.1122282  15.9562357  48.5382700  35.2833629  84.4036770
  48.8474989  35.0831819  85.2871609  47.6194048  35.0151825  84.4050312
  84.3218826  79.7643760  18.3941515  84.1561149  79.3086150  17.5688989
  83.7458729  80.5283358  18.3657510   0.5527363  97.5206116  52.3608835
   0.6289206  97.0844629  51.5122373  -0.2673902  97.1899536  52.7273424
  39.7051033   0.5422679  27.0806177  40.5367502   0.8460418  27.4443777
  39.2531427   0.1380197  27.8212602  21.7445908  88.4062317  19.9505098
  22.1879253  88.9148000  20.6295068  22.4515972  88.0902794  19.3878896
  93.3507156  39.7688341  85.5595398  93.9380741  39.0778136  85.8657074
  92.9872513  39.4293094  84.7417068  29.9280415  89.8383596   4.5344503
  30.6377373  90.4425481   4.7524412  30.0487862  89.1011455   5.1329191
  20.4951216 102.5124075  79.3622446  19.6971632 102.2565906  79.8249054
  20.1839329 103.0001900  78.5997105  52.3431540  69.9463749  80.6730080
  53.1350851  70.1890802  80.1932430  51.6774559  70.5600977  80.3625011
  66.8300232   1.1870185   3.3314951  67.2972664   1.8672506   3.8164671
  66.2881645   0.7525627   3.9901884  63.4769106  38.8323808  80.2081394
  62.8998041  39.4707632  79.7890425  63.1122828  38.7199426  81.0860062
  83.5025858  76.0270312  37.6352842  82.6320814  75.6699660  37.4593218
  83.8726877  76.1939934  36.7684705  89.7505306  91.0984996  35.8963068
  90.3406738  91.6446140  36.4156492  89.7782015  91.4822843  35.0198515
  59.0697845  30.7419101  12.6612241  59.3358978  30.8767311  13.5707529
  58.4543403  30.0097076  12.6977594  29.6207603  21.7729989  15.2562196
  29.1181597  22.4381009  15.7266100  29.1099485  21.6018812  14.4650037
  25.6747564   0.0458804  17.7632959  25.9906515  -0.0902423  16.8700369
  24.8910364   0.5857412  17.6605280   3.5713110  94.3505075  25.7352502
   3.6435518  94.8532513  26.5465791   2.8254185  93.7683037  25.8798559
  83.0144787  39.2401171  86.0187054  82.0793152  39.3076682  85.8260250
  83.0736637  38.5500002  86.6793537  99.3309044  87.3067930  12.0803316
  99.0524362  88.1470635  11.7161424  99.7336220  87.5310114  12.9192407
   3.0738198  43.1993341  76.1972713   2.1828018  43.4384966  75.9420776
   2.9897534  42.8898907  77.0991659  25.9413465   0.8229534  26.2300546
  26.8846544   0.6946317  26.3296945  25.5881437   0.6969968  27.1107443
   6.9706926  76.8907192  14.3723161   6.9426451  77.5434497  13.6727579
   7.8908882  76.8595484  14.6340616  61.8842968  10.2465717  14.2596681
  60.9282097  10.2896491  14.2433412  62.1193584   9.8278085  13.4316499
  34.0536817   2.7448074   6.0714967  34.0494951   2.4132673   6.9694383
  34.3062958   3.6641208   6.1567838   2.3725733   6.0206500   0.1710851
   2.5196155   5.2061120   0.6518514   2.8917655   5.9245960  -0.6273215
  82.7974104  88.1897333  20.9919698  81.9099449  88.3669212  20.6801374
  83.0898498  87.4423960  20.4702432  36.1050663  51.5130274   2.7479704
  36.5547428  51.7561202   3.5572488  36.1590252  52.2957159   2.1995981
  69.2182446  54.7230864  87.1658897  70.0627375  54.8765945  87.5895596
  69.3997526  54.0547419  86.5051365  13.8802490  74.6464398  27.0944173
  14.3804226  75.2245167  27.6705129  14.5359955  74.0629390  26.7126424
  15.4420815  84.0681508  10.1787145  15.9840736  83.5310510  10.7566412
  14.7162685  84.3575027  10.7316072  59.7546864  28.9502597  84.3008232
  59.5233917  28.2159877  84.8696613  59.1646242  28.8679576  83.5516357
 102.0357393  87.9950264  33.1552751 102.3035978  88.4023216  33.9790399
 102.3367189  87.0892074  33.2269628  89.6428560 102.6819256  46.1797197
  90.3081869 102.4047306  45.5498560  90.0920795 103.3152178  46.7395170
  81.4625454  36.8692136  81.4349174  82.0172882  36.4670014  82.1032810
  81.8885326  36.6498113  80.6062889  77.2753033  21.3064329  22.3124464
  77.5935062  21.8882982  21.6222246  77.7936252  21.5418044  23.0819757
  38.3224607  54.3610954  81.6218090  39.2274714  54.0505505  81.6491985
  37.8054023  53.5764408  81.4396095  98.5757183  84.2933467  27.2403581
  98.8122152  83.4983471  27.7181394  99.4088863  84.6337130  26.9144590
   8.9231072  83.2335928  33.5104711   9.6227322  82.9003051  32.9486234
   8.6207924  82.4666956  33.9969976  64.6954807  17.5365297  33.2584436
  63.8680919  17.9457704  33.5117777  64.8837265  16.9192735  33.9654024
  64.8648533   5.0179855   1.7394216  65.7496818   4.8161212   1.4351709
  64.5400890   4.1915170   2.0967920  36.4988003  82.4456361  29.7782190
  35.7057247  82.4546578  29.2423303  36.2079201  82.7396515  30.6414564
   4.5801125  84.8827579   6.0027082   3.6515865  84.6519711   5.9741838
   4.7322283  85.3646353   5.1897581  36.6057849  47.6223850  83.9960003
  36.1883473  48.4544945  84.2186451  36.2216187  46.9913054  84.6045876
  32.9264603  94.4401195   5.9438760  33.6840115  94.3440893   6.5210493
  32.9890404  95.3363684   5.6136472  84.4468855 101.2051895  18.2987459
  84.5530199 100.2633646  18.4326418  85.2021002 101.5961721  18.7380846
  36.8544706   8.7831012  17.8618963  37.1609863   8.3297435  17.0765646
  36.7341026   8.0875436  18.5083826   6.3506088  37.9837361  11.7900617
   5.6568632  37.5962558  12.3237379   6.4353094  38.8782552  12.1200521
  78.4108900  75.5152371  10.4949720  79.3650554  75.4390314  10.4937227
  78.2221626  76.1716178   9.8243196  96.9167684 100.6899670   1.5362127
  96.3068365 100.5695513   0.8083971  97.7755712 100.7617119   1.1196287
  79.3018316 100.3577783  20.3578527  79.4989847 100.4803017  19.4292219
  79.1812443 101.2450245  20.6961973  27.6873455  68.9699772  39.7641142
  26.9959126  68.7724200  39.1323526  27.8459225  69.9081996  39.6600683
  34.2535172  83.9841297   7.9034956  34.8825798  84.5303300   8.3748396
  34.6272526  83.1036094   7.9386575  34.1984057  67.0133162  88.5359001
  34.2741442  67.7068186  87.8804970  35.0872827  66.9054317  88.8742733
  16.3278351  88.3047583  10.3381879  16.9687805  88.3976295  11.0430200
  15.9141693  87.4570110  10.5007894  86.1376356  65.8943108  22.4301870
  86.3126634  66.2796011  23.2887609  86.8411707  66.2246600  21.8714960
  13.3760796  99.9094465   7.8076990  13.7123547  99.4277313   7.0519884
  13.9908657 100.6340387   7.9227598 108.0082105  63.4179225  31.4705999
 108.4241270  64.2235091  31.1635549 107.1014522  63.6687222  31.6470106
  15.4732021  13.3339874  17.1513422  16.3863453  13.3755199  17.4353750
  15.4798206  13.7043897  16.2687357   1.6107807 100.1146963  27.4307401
   0.6727943 100.0686195  27.2455747   1.7077599 100.8891085  27.9849107
  99.2362309  35.9893250  79.6754694 100.0870037  35.6654716  79.3796158
  99.4094086  36.8836689  79.9693966  64.1096577  10.1520006  24.2082746
  64.3067058   9.2317811  24.0333421  64.7965034  10.4333202  24.8127039
  51.9041714  19.2828027  14.4501455  52.1827110  19.8949758  13.7690504
  51.4422687  18.5912124  13.9762457  83.1361103  53.4529924  66.5766191
  83.6877728  52.7271700  66.8683147  83.7191296  54.2121458  66.5770388
  66.4088425   7.0154516   3.3712633  66.0775074   7.6790134   2.7661665
  65.9172233   6.2240926   3.1515081  51.0842499  27.5460426  47.2394712
  51.4245590  26.7208568  47.5851495  50.1355823  27.4214116  47.2126539
  24.7545776  81.4895871  37.1573122  23.9565907  81.0354689  37.4279077
  24.8204575  82.2346213  37.7546461  84.9417375 102.4325827   8.6273439
  84.5585035 102.3079088   7.7591188  84.9001001 101.5670851   9.0340574
  83.6867714  43.8221931  59.6888161  84.4303226  43.2500982  59.8787212
  83.9509773  44.6782255  60.0259066   5.5289517  55.3701147  21.7034967
   5.1811180  55.6093740  22.5625665   4.9972496  54.6228322  21.4294679
  80.2630424  60.9658766  87.9987335  80.6476784  60.1568747  87.6613903
  80.9429359  61.6269112  87.8682709  90.1667904  75.3271273  37.4536951
  90.9828590  75.2953365  37.9529531  90.4322313  75.1574901  36.5498216
  42.9622517 100.1105287  28.8099249  43.4405193  99.2822769  28.7713678
  43.2183704 100.5723884  28.0116041  38.2859669  92.4452999   4.6622331
  37.7912006  91.6450336   4.8383577  37.6658211  93.0150535   4.2072256
  47.4962314  23.9003745  24.0543802  47.6575168  24.1957179  23.1582887
  46.8561252  23.1946603  23.9624174  20.1483498  98.9949730  24.2591531
  21.0606251  99.2525938  24.3918474  19.9821816  99.1705063  23.3329733
  83.9081573  70.1336241  75.4051733  84.3910313  69.4126272  75.8091927
  84.5709801  70.8050871  75.2438021  10.3496609  71.1357727  23.7380941
  11.0745201  71.7351249  23.9158113  10.2816067  71.1186209  22.7834757
  55.3569031  67.9150057  74.4932556  54.8204136  67.3750687  75.0736713
  54.8390961  67.9927492  73.6919689 102.8834270  44.1131016  18.3927210
 103.6513876  44.3184843  17.8595407 103.2440399  43.8287225  19.2325552
  53.3627653  35.4618120  70.1028967  53.1186342  36.3702464  69.9257565
  52.6312971  35.1120853  70.6116962  72.8880882  32.7348804  87.7186489
  72.2232962  33.1001520  88.3024788  72.7466965  31.7889500  87.7567863
  95.3889059  80.6776216  27.5284631  96.1353658  80.1803615  27.8627737
  95.6521963  81.5936044  27.6172598   0.6627020   5.5283395  25.4325922
   0.6515631   5.6506292  26.3818796   0.2396163   4.6807615  25.2953012
  99.0097498  96.2341478  17.4149187  99.8940395  95.8680323  17.4000414
  98.6381601  95.9973553  16.5651662  72.1162437  70.2337494  11.5864332
  72.8268527  69.8656085  11.0613210  72.3598145  70.0365653  12.4908788
  95.5715847  51.8562984  81.9835377  96.2036800  52.5492334  82.1746540
  95.9675312  51.0641003  82.3467064  37.2863412  29.2708898  88.9683819
  38.0009961  29.5131755  88.3794880  36.5006709  29.3180895  88.4236622
  30.0996261  98.8300255  22.8911836  30.1396083  99.6196249  22.3515947
  30.1677107  98.1087330  22.2656210  78.3798002  96.7315939  15.7056959
  77.9226278  95.8927610  15.6457956  77.7108215  97.3842600  15.4989870
  67.7135944  46.3115549  84.1476345  68.3532524  46.6906357  83.5448360
  67.0030403  46.0076427  83.5828495   8.9024983  71.6603401   5.4369123
   9.2115460  71.3202587   6.2765939   8.6282120  72.5572517   5.6280859
  43.5000547   8.0608121  31.2364442  43.8224777   8.1385223  30.3385408
  43.5879740   7.1302644  31.4428098  58.2704496  97.9539680  83.7459564
  58.6519766  98.8264751  83.6490440  57.9287481  97.9399300  84.6399784
  46.2836155  20.0807802  22.2787340  46.7259964  20.4094020  21.4960916
  46.4404472  19.1366331  22.2638853  45.9046348  13.9978305  39.6389253
  45.7866463  14.9296991  39.4547327  45.9919533  13.5923568  38.7762506
  56.4581299  56.7270184  88.6947918  57.0599079  57.4694872  88.7479877
  55.9041929  56.9213724  87.9387379   5.9398779  12.0851842  36.7614324
   6.4179214  11.9807950  35.9387453   6.5895304  11.9038097  37.4406107
   7.4151192  88.0710915  19.0299184   7.6668606  88.9526942  18.7549169
   7.1309481  88.1754473  19.9379881  53.7911781  34.1700355   5.9037168
  54.0134605  34.2884723   4.9802454  54.1987594  34.9149124   6.3456113
   2.9915676  94.3413713  31.0615690   3.5823021  93.7709310  31.5533693
   2.1377764  93.9131954  31.1243017  92.0193577  76.3179255  57.2120380
  91.8209267  76.1810493  56.2856913  92.8994751  75.9586573  57.3240852
  45.0247845  20.1732103  35.5290182  45.8467659  19.6968786  35.4120309
  44.4361004  19.5383922  35.9373052  69.0404795  86.7122987  20.8045347
  68.7585090  86.7662576  21.7176683  68.5875677  85.9430435  20.4590662
  36.0740147  93.4064749   3.6147268  36.0395012  94.0184906   2.8795488
  35.5866394  93.8433769   4.3131597  78.6363863  53.8075837  49.0750082
  78.1495260  53.9985361  49.8767145  78.0431722  53.2618356  48.5587843
  34.8184666  14.8326818  37.2007711  34.9086174  14.0442315  37.7359731
  34.4059070  14.5277349  36.3926656  25.0347456   4.6373407  13.5754450
  24.7033581   3.9175264  14.1123636  25.9526953   4.7247974  13.8322504
  92.2478555  81.8977144  29.4681032  92.4239181  81.0270694  29.1114385
  92.3818945  82.4909428  28.7289579  40.1245054   9.7684184  16.2667043
  40.2135452  10.3878394  16.9910104  39.1800770   9.6945278  16.1294706
 100.8410358  40.4889774  57.9352427 100.7684612  41.1167049  57.2162724
 100.2489948  39.7771311  57.6923752  14.8836765  80.5290392  35.6202181
  14.1703949  81.0426739  35.9992368  15.5678902  80.5389574  36.2895353
 102.5250744  80.8801463  45.5468519 102.0416569  80.1883247  45.9984262
 101.8900799  81.2581256  44.9384554  53.5428476  23.4014821  80.4309654
  54.1312695  24.0988588  80.1417351  52.7206993  23.5765314  79.9730825
  76.7406559   8.7283635  80.6732273  76.0808229   9.4183862  80.7419491
  76.2579060   7.9181832  80.8369160 101.1666082  82.8547457  19.0103872
 101.0222553  83.5509637  19.6512277 101.0237859  82.0449093  19.5002897
  42.0256195  71.3320783   3.2623823  42.7000771  70.8601644   3.7508733
  42.5141773  71.8843320   2.6520116  86.9615555  77.3535442  89.0754604
  86.3518238  78.0912876  89.0614605  87.5184631  77.4885035  88.3087349
  98.1164455  40.8770704  71.9271088  99.0328503  40.8620787  71.6510773
  97.6807213  41.4327765  71.2809134  31.9943295  86.3158896  11.0031564
  31.4413319  86.7685678  10.3663595  32.5948868  86.9901159  11.3209398
  78.3494616  67.7206755  69.2414284  78.8882685  68.0332327  68.5146379
  78.7667847  68.0839968  70.0225019  70.0603724  35.3400707  76.4683723
  69.8468399  34.7651076  77.2032547  69.3086767  35.2664137  75.8803606
  57.2546085   2.0144168   4.9715192  57.5896152   2.9100648   5.0141103
  56.4190182   2.0488397   5.4371793  72.2551440  90.2213242  40.0987203
  72.4899911  90.7583025  39.3419225  71.5079831  90.6734422  40.4905946
  17.6085148  94.5875671  45.2021558  18.2978878  94.5534399  45.8653600
  17.5105152  93.6807897  44.9116762  64.2945766  21.1649632  86.1057854
  63.7952614  21.6647053  86.7516708  63.9081144  21.4075875  85.2643490
  25.8325847  14.7125760  37.6330335  26.4501079  14.1102163  37.2182329
  26.1410412  15.5829564  37.3809965  91.9035625  54.9683475  79.6552277
  92.8044319  54.6999264  79.8357916  91.8678474  55.0622368  78.7033129
  89.0233158  86.2937715   1.9797762  89.8356651  85.7874921   1.9777162
  88.3310341  85.6360748   1.9133527  64.2405685   2.4940196   2.7622564
  63.6232933   1.9297782   3.2279070  65.0918373   2.2875348   3.1481798
   5.6062517  78.1088117   6.2556799   6.0924540  78.3364537   5.4632051
   5.8889351  77.2180059   6.4625223  41.6595917  78.5352257  26.8523271
  41.9354932  78.3131340  25.9630640  41.0430117  79.2584398  26.7382200
  30.1889572  93.7185362   0.5961473  29.3922863  94.2365721   0.4812868
  29.9660454  93.0842379   1.2774809  22.0906506  83.5527852   3.6660059
  22.4336109  82.8274062   4.1879518  21.4052448  83.1572702   3.1274660
  68.6391735  74.9868298  86.3357449  69.5505381  75.2563047  86.4498806
  68.6943245  74.0956259  85.9908676  74.0633249  14.8126268  75.6150579
  74.0610933  15.4894710  74.9382210  74.9409389  14.4330108  75.5712652
  73.0565451  59.0254387   9.4723852  72.4607610  59.7558376   9.3056734
  73.8892912  59.3038317   9.0912492  33.8280186   8.8956539  22.8780801
  34.0928205   9.8013297  22.7172811  34.6253570   8.3846752  22.7388723
  76.6857481  78.2395124  74.0938759  76.3955498  79.1388845  73.9417171
  76.4994240  77.7854443  73.2720852   5.7341274  26.0703460  53.6037119
   6.1175617  25.2700130  53.2449968   5.7515320  25.9401742  54.5518644
  92.8449653  81.8278244  14.0214212  91.9123243  81.8692878  14.2328508
  93.0733513  82.7224687  13.7690694  79.0581878  14.7978584   1.5160520
  78.4720310  14.3544475   0.9028299  79.6141418  14.1001598   1.8629987
  19.9199352  75.5677202  12.5205000  19.2334042  75.3354957  13.1457765
  20.6629524  75.0158790  12.7646978 107.9318117  89.8099807   9.2002638
 107.8588651  89.6173838   8.2654817 108.5890173  89.1925934   9.5214327
  37.0460733   3.0889932  33.8350160  37.8793653   3.2889120  33.4085329
  37.2813972   2.8985301  34.7430761 100.3488255  43.1999302  81.4336681
 101.0153198  43.8784885  81.5412235  99.5168781  43.6677980  81.5057468
  71.9891342   3.9562837  13.5456426  72.0276054   3.9630357  12.5892408
  72.6501831   3.3154098  13.8074167  11.5990146   4.6514217   7.2364195
  11.3226017   4.8723785   8.1258066  11.1307415   3.8414136   7.0343454
  99.0339063  53.4961200  53.2954843  98.4484266  52.7426437  53.3710916
  99.5481037  53.3217394  52.5071867   2.3599157  78.6764148   5.0200899
   3.2816992  78.6012199   5.2668722   1.9363604  77.9311946   5.4460962
  35.1975807   7.8820173  14.5704515  34.9799427   8.7629978  14.2659147
  36.1448082   7.8142921  14.4504221  56.2556251   7.6131812  56.5559538
  56.3254341   6.6834823  56.7728002  55.3532966   7.8436223  56.7771776
  64.2960724  12.5210039  29.4547994  64.4902023  12.1700803  28.5856588
  65.1338085  12.4929992  29.9170072  91.0126995 100.4799011   3.9495428
  91.1366009 100.8216598   4.8350294  90.6145834 101.2042406   3.4667738
  90.4592133  29.2260265  82.2379684  90.0850201  29.3147683  81.3614178
  89.7063732  29.0537858  82.8034687   5.8231220 100.3747585  49.8170145
   5.2090225  99.8811367  50.3605802   5.8690367 101.2369993  50.2301271
  66.8241001  96.9035267  78.5589218  67.6417233  97.1890764  78.1512785
  66.2741066  97.6869010  78.5669279  88.8803768  52.2446823  75.9662819
  89.7041988  52.0280790  75.5296707  89.1401196  52.5168419  76.8464518
  85.4000950  37.2646236  80.5951786  84.9322701  36.4424014  80.4491615
  85.4988384  37.6424742  79.7212744  65.7643890  13.0563533  58.0409336
  65.6102133  12.6997423  58.9157438  66.5596676  12.6168966  57.7398825
 108.6700319  52.0886735  37.9491384 107.9583954  52.7055657  37.7781255
 108.2440447  51.3426613  38.3713205 104.9114704  52.7675581  86.2750244
 105.4624557  53.4589052  85.9080124 105.4528713  51.9795752  86.2281418
   7.2115479  73.2790115  12.0811613   6.6799269  74.0457037  12.2951467
   7.2607956  73.2809356  11.1252363  81.8407917  36.9770527  65.1045322
  82.5145626  36.3011670  65.1783085  81.2782669  36.8386698  65.8665419
  49.9302658   9.5539848  17.5470884  49.9315723   9.7537605  16.6109712
  49.1106018   9.9277583  17.8706224  45.9962225  48.7200594  82.8177738
  45.6105566  49.5070171  83.2027340  45.2782059  48.0874300  82.7961636
  75.3367409  10.5233375  68.6882074  75.2244457   9.8525516  69.3617494
  76.0231003  11.0952417  69.0318258  56.4696201   2.9726020  17.0800455
  56.3224872   2.6628343  17.9737051  56.7549499   2.1946756  16.6008241
   4.0837059  97.1790865   2.4625642   3.4525738  97.8267649   2.7762849
   4.1665325  96.5561083   3.1845529  97.4217867  69.9965551  14.4651086
  96.6029381  69.5895067  14.7480161  97.1547340  70.8347001  14.0877111
 103.1053041  86.0566428   8.4350641 102.6455282  86.0360673   9.2743642
 103.6488365  86.8433311   8.4789522  48.2562304  48.1697416  84.8047066
  47.7497625  48.5390854  84.0813065  49.1585302  48.1607723  84.4853306
  83.7243748  59.4859505  79.2589426  83.2243919  58.7899065  78.8325930
  84.4956684  59.0439177  79.6138239  24.5336018  87.0902875  38.8251741
  24.3717632  86.6107324  39.6376188  24.2703018  87.9894283  39.0212686
  29.2721901  89.0762618  18.6875589  29.7985992  89.2469671  19.4685800
  29.3168793  89.8902967  18.1859834  14.2863617  55.4176873   5.9826620
  14.5548115  54.9969971   5.1658399  14.6987495  56.2810299   5.9542139
  85.6205273  26.7395258  72.8214884  84.8918152  26.6665411  72.2051334
  85.2520084  26.4660692  73.6615181  18.2143101   2.6804201  61.0914095
  18.3852848   2.1941606  61.8979700  18.5437568   2.1124498  60.3949125
  32.8169092  30.6650249  10.8373220  32.6515135  30.1364795  11.6180380
  32.0269522  31.1959545  10.7357557  86.7093443  73.0391219  29.2326124
  87.5776981  73.1053498  29.6298654  86.1025165  73.1206205  29.9683721
  47.9767975  10.1873437  33.3547456  48.0162796   9.2443506  33.1952627
  47.8506168  10.2652446  34.3003900  49.4967747   9.8177254  60.7733297
  50.4185295   9.5737976  60.8576059  49.2543793  10.1414013  61.6409159
  42.2099718  15.9240285  11.7839201  41.4909157  15.9170762  12.4157007
  42.4788936  15.0078193  11.7170293  95.5724405  39.6365395  14.5950277
  96.1831878  40.3635648  14.4739587  94.7120498  40.0527170  14.6475084
  28.3296093  21.1738531   5.9946878  28.2384714  21.6053430   5.1451357
  27.4625572  21.2453405   6.3938673  12.3147045  66.1803341  88.6583042
  12.0703255  66.5428209  89.5098400  11.8248688  66.7050838  88.0251217
  90.3722095  61.6692448  81.5852165  90.1796150  62.5815296  81.3687038
  90.8166218  61.3276148  80.8093166  20.7326731  26.7920820   6.1807974
  20.3265461  26.7640821   7.0471151  20.3958067  27.5954954   5.7842119
  80.6523228   3.0005276  85.6225204  80.7985592   2.6261541  86.4912510
  80.9007549   2.3028213  85.0161266  92.6886749  54.9247789  72.0764732
  92.9571438  54.0623713  71.7596054  91.7578030  54.8271894  72.2769165
  26.7716179  81.3133886   8.6004121  26.4763126  82.0032313   9.1946752
  27.6686058  81.5595963   8.3745439  22.6294193 102.3442772   2.3894556
  21.9172726 102.1161631   2.9869897  22.3363361 102.0268515   1.5353067
 101.9293404  30.4828310  62.0874834 101.4614296  30.3190064  61.2686729
 102.6653576  31.0404348  61.8353176  12.6445900  69.1801405  69.0624332
  12.3035656  68.9193916  68.2068968  12.4364411  70.1120329  69.1293621
  85.2810787  99.6014574   9.3040426  85.7330679  99.6695068   8.4630354
  85.4837202  98.7188366   9.6141393  10.2486382  80.1485494  15.8175047
   9.4156513  80.4063800  15.4226740  10.0260410  79.4118669  16.3867052
  81.0937786  88.1725502  63.5293007  80.3816223  88.0893517  64.1634369
  81.6881943  88.8134384  63.9194012  81.5223122  65.6565714  80.7774830
  82.3480701  65.1724625  80.7779408  80.8923244  65.0551701  80.3804207
 101.2981224  41.2728548  85.9027958 101.4215374  41.0954714  84.9703121
 100.9114361  42.1480131  85.9309959  52.4576076  43.8404361   0.9410913
  52.9906830  44.6330444   0.8791311  53.0898269  43.1228534   0.9009988
  25.0970253   5.4585210  35.9402235  24.1570839   5.5427257  36.1004026
  25.4385456   6.3464109  36.0462721  52.4554110  92.8659439  78.8094997
  53.2525063  92.3416519  78.7320709  52.7458954  93.6858559  79.2089987
  18.1649050  39.5289890  35.9617288  18.8962253  39.5101730  36.5790136
  17.4412187  39.9096862  36.4592989  31.2716421  18.0489627  13.1880624
  30.4205545  18.3700887  12.8901346  31.0819610  17.1971265  13.5812910
  71.2750324   0.9984914  22.1035535  72.1392521   1.4038316  22.0324667
  70.8871826   1.1075393  21.2352808  79.8480940  71.4945269  74.6330166
  80.3143311  70.7307673  74.2931223  80.1296806  71.5605211  75.5454779
  98.2222939  81.8776798  64.0442896  97.3783207  82.2188568  64.3401384
  97.9963493  81.1630249  63.4489298  89.5587635  72.6932335  88.6186790
  88.7949085  72.1377707  88.7743473  89.6800804  73.1693602  89.4401550
  44.0918312  82.4162319  12.6689966  44.1316567  82.5647142  11.7242201
  44.9603806  82.0841124  12.8960760  67.8145393  23.6173860   4.2017610
  67.7813896  23.4710828   5.1471384  66.9492420  23.9628927   3.9823873
   6.7661651  41.9931594  22.8710992   7.3007997  42.7283756  23.1708582
   7.0602163  41.8331233  21.9743593   8.6191998  91.6509321  13.8274439
   8.7774239  91.5703419  12.8868539   9.4873772  91.7916754  14.2051752
  33.9940906  92.5621319  86.8372726  34.6281195  92.6256657  87.5515556
  33.8596845  91.6217995  86.7192459  30.2312718  81.0109117   2.5799425
  30.1071415  81.9507339   2.7124460  29.7043953  80.8062961   1.8074281
  91.8645405  99.1404369  26.0071809  91.9907402  99.0394905  26.9506414
  92.3098301  98.3848312  25.6237657  62.2930034  12.3821393   2.4814088
  63.2324966  12.3489276   2.6616247  61.9027504  11.8043033   3.1371839
  35.7281838  68.8960388   3.7675150  35.2583561  68.4098986   3.0899007
  35.9921227  69.7101381   3.3387907  69.6944794  31.0294811  44.0328939
  68.9588627  31.1337177  43.4293707  70.4690918  31.2065975  43.4991987
  11.0240421  85.4738810   8.0168970  11.4374218  86.1617687   7.4952085
  10.4545174  85.0147131   7.3996122  46.3088179  65.4534245  86.0532188
  46.0481405  64.7943878  86.6966057  46.9101620  64.9924326  85.4683208
  23.4971104  60.7957062   8.2863290  22.5674019  60.6114837   8.1524618
  23.5794411  61.7367974   8.1320532  11.6077385  83.2961228   3.9473589
  11.1187992  82.8745487   4.6540792  12.5219498  83.2482841   4.2269094
  96.6254044  48.5489988  55.0231123  95.9058762  48.6702681  55.6426287
  96.6822052  47.6008606  54.9046087  15.9774075  87.3999575  63.6412962
  15.5524216  88.2040074  63.3427484  15.2909050  86.7345598  63.5943849
  68.2257318  72.3936415  85.3821754  67.4766779  71.8391848  85.6006527
  68.7145948  71.8901873  84.7311974  14.6454582  77.6622847  43.0151518
  15.1800499  78.4520867  42.9335554  15.2273045  76.9506100  42.7483041
  64.0019401  16.5506402  14.5332868  63.2734283  16.4200965  15.1403005
  64.7387680  16.0967389  14.9422987 101.9115639  67.8756046  77.2727346
 102.1160030  66.9600153  77.0826197 101.9168282  68.3048201  76.4171791
  12.8144322  82.1526745  16.1701543  12.0817337  82.4187997  15.6146772
  12.5702343  81.2836769  16.4886530  29.3030485  25.9764663   7.8840120
  30.0973209  25.6276170   8.2885606  29.6021112  26.3567582   7.0580728
  10.7023392  74.3410209  11.6715105  11.4411411  73.9886406  12.1677263
  10.5443153  75.2028850  12.0568044  87.4911880  54.0537930  84.6245956
  87.6917267  53.1212139  84.5451260  88.3133698  54.4520807  84.9102879
  20.5353483   1.6647617  16.5817411  20.1472696   1.3441173  15.7676084
  19.7907194   1.7842904  17.1712167  17.4663410  97.0447424   0.6481607
  18.2827244  96.7739942   0.2281244  16.7972622  96.4847210   0.2545316
  68.5396847  19.4909421  11.0421713  68.0022987  18.6991493  11.0649068
  69.3770298  19.2017738  10.6795938  50.6199154  10.2243415   2.0665033
  50.9406551   9.7275821   1.3137872  51.3584122  10.2402345   2.6752718
  45.5091556  10.0572149  23.0797823  45.7357963  10.8659259  22.6205976
  45.7567581   9.3597022  22.4728258 102.8329840  97.7463417  67.8076458
 101.9229093  97.9619174  67.6038742 103.3388104  98.4714090  67.4407005
  97.0167351  41.6757345  76.3984299  97.7559280  41.2388325  75.9754086
  96.5783024  42.1455717  75.6890202  49.6326431   6.9407073  24.4144876
  49.3371376   7.4765817  23.6784513  48.9942058   6.2292711  24.4643266
  70.3969845  34.5431987  23.0150850  70.8127388  33.9762775  22.3654897
  70.9462150  34.4574920  23.7943418  62.7789387   4.8586885   8.5413034
  62.2378525   5.4992143   8.0795915  62.5478348   4.9702588   9.4634588
   4.7197971  85.0297597  30.7429845   5.6455956  84.9194625  30.9596880
   4.2702494  84.3682840  31.2688978  16.5436516  85.0132611   5.8636816
  16.0330353  85.4194811   5.1633318  17.2426758  85.6413343   6.0456808
  86.4929842  75.4364326  14.2575128  87.2177385  76.0053018  13.9979894
  86.3567232  74.8629597  13.5033281  63.0209240  16.9082395  21.9465215
  63.3613476  16.5027944  22.7439935  63.1909641  16.2642614  21.2590559
  52.6334461  28.1125919   2.5244768  52.0616516  27.5069372   2.9961355
  53.1244930  27.5564853   1.9196184  79.8769459  26.0640899  24.9235113
  80.6875595  26.0349218  25.4317243  79.7811397  25.1780073  24.5743616
   3.6283979  63.8037708  46.8791540   3.9528952  63.6364415  45.9943159
   4.4185219  63.9363494  47.4029405  28.6388525  18.4219781  16.0602434
  28.2777866  17.6863138  16.5548856  29.5087799  18.1262390  15.7919271
  45.6379757  99.9943808  20.5535944  44.9126587 100.6115559  20.4574354
  45.2443752  99.2242411  20.9637125   9.8070011  88.9198640  12.4559648
  10.7559452  89.0380123  12.4137266   9.5404396  88.7947228  11.5451868
  78.8059568  75.2238703  67.8467226  79.3333721  75.6744766  68.5062790
  79.4141054  74.6134663  67.4298429  18.5786470   8.9061777   5.2421148
  18.3522781   9.5894376   4.6111353  18.0633339   9.1185609   6.0203035
  85.1206684  74.4597864  78.6076164  86.0439777  74.2074633  78.6154652
  84.8086929  74.1998482  77.7408218   6.1678635  51.9214916  77.6490402
   5.9896790  52.8548241  77.5333834   5.6282269  51.4906836  76.9861460
  42.2234141 101.1842564   8.4760721  42.8112291 100.5264786   8.1045492
  41.6299974 101.4075258   7.7589662  34.0952931  75.0230697  37.4122579
  34.8471127  74.4526604  37.5723608  34.0667782  75.1202395  36.4604242
   1.7908176   9.1598073  35.9938104   2.6643690   9.5420972  35.9101732
   1.3022693   9.7918359  36.5211542 105.5786800  42.8775263  88.0333138
 105.2955246  43.6403084  88.5375214 106.0336018  42.3254442  88.6693001
  43.0044874  12.9802696  11.1642892  42.9878553  12.6152555  10.2795751
  43.8796219  13.3582345  11.2510355  50.2737522  68.7096310  62.0314980
  49.9227762  67.8504992  61.7971087  49.5442820  69.1576576  62.4597311
  70.2506876  43.1801414  75.0865793  70.2491045  43.8017225  74.3586636
  70.8101320  42.4631119  74.7880316   9.6601067  91.5899113   5.8571108
  10.0027905  92.4350813   6.1477811   8.9526901  91.8134811   5.2522905
  98.8737367  85.7158378   7.7160604  98.9285778  86.4273003   7.0780618
  99.0764927  86.1301139   8.5548170  79.9318384  91.5046146   3.7641676
  79.2369865  91.2533262   4.3726595  80.7295631  91.1405209   4.1479738
  51.9705852   0.4835884  11.1219556  51.7302593   0.9546081  11.9198377
  51.1372646   0.3194085  10.6805380  36.2886677  80.3071311  25.5594404
  36.6416512  79.7239688  24.8874624  36.9694767  80.9682515  25.6845052
  40.3950485   2.5690977  20.8762605  41.1866220   2.0780412  21.0965212
  39.7138151   2.1855728  21.4285905  61.9301509  82.1928838  18.6297281
  61.9752501  83.0269697  18.1622846  62.7819561  81.7848447  18.4742792
  90.1868629  48.8361931  84.2365742  89.8024845  48.2183647  83.6146641
  89.7346210  48.6584902  85.0612736 106.4099026  32.3569608  65.3627920
 106.2815762  31.9333959  64.5140553 105.5783558  32.2331405  65.8204365
  73.4485134  28.8315860  41.9322450  73.9274010  28.0100242  42.0415456
  72.5319275  28.5953037  42.0746286  44.7895988   7.4112884  18.3300550
  45.5140194   6.8346826  18.5729082  44.8061737   7.4266807  17.3731287
  43.3460554   6.9425527  61.0685403  42.7114757   6.8237153  61.7752321
  42.8116449   7.0354835  60.2798708  37.3875555  13.5047428  50.0730474
  36.9790491  13.7844268  49.2538126  37.1426805  12.5835410  50.1605089
  47.9791054  49.3586246   0.0862081  48.3316025  49.0959541   0.9364946
  47.3278316  50.0287429   0.2935941  51.0026836  89.8508739  81.7473698
  50.4142761  89.2319107  82.1796799  50.7933426  90.6968212  82.1433163
  17.8853283  89.7639635  31.1735780  18.5384426  89.4580200  30.5442388
  18.2589016  89.5514372  32.0288618 102.1473217  32.3154330  82.6613808
 102.3229408  32.6815581  83.5281849 102.7715588  31.5949798  82.5747299
   6.3988218  83.2647946   2.3835333   5.7588682  83.8179257   1.9354971
   6.0630474  82.3748734   2.2761686  84.3823242  60.8675385  83.2039547
  84.5497990  59.9292326  83.2921028  84.1018867  60.9764528  82.2952652
 104.1287708  49.5418739  71.6692352 104.9815083  49.9534130  71.8096209
 103.6058044  49.8107910  72.4244928  43.7127956  11.4220897   7.4789198
  43.1277927  11.0810844   8.1554754  43.8651642  10.6777898   6.8966539
  72.8200293  66.3908482  78.9859962  72.9717016  66.5040350  79.9243021
  71.9843388  66.8285656  78.8239479  38.8670993  36.6467309  88.0496693
  37.9511237  36.5199041  88.2969284  38.8610864  37.4326491  87.5032902
  72.3288155  24.5838070  62.4295950  71.9902086  25.2524090  61.8341589
  73.1670523  24.3246412  62.0469332  62.3453236  57.2272682  86.8332291
  62.0902061  57.8744555  86.1757374  63.3015347  57.2672701  86.8502712
  67.3518753  34.3351769  82.4262905  67.8747511  35.1333094  82.3500252
  67.6118898  33.9578915  83.2666969  76.7940235  53.8264465  78.1658459
  77.7211714  53.9314938  77.9523087  76.4983082  53.1106234  77.6033688
  81.9130039  45.8782911  82.2927380  81.3827229  45.3401279  81.7050171
  81.2983036  46.1791134  82.9619789   4.4280491  86.1323741   3.5372980
   4.7962151  85.8272913   2.7080686   3.5113297  85.8585766   3.5074957
  65.5569538  11.7469016  10.2589948  66.1545452  11.0117046  10.3953893
  66.0981163  12.5242559  10.3971632  91.3409599   1.8071357  18.4336050
  90.4676136   2.1873466  18.5281046  91.3632950   1.0962287  19.0741880
   3.9050207  85.9993103  28.3248289   3.9935837  85.3304818  29.0038450
   4.8024902  86.1721495  28.0403860  40.6808529  99.0346554  15.1227434
  41.4440594  99.3534687  14.6409757  40.6686745  98.0922296  14.9556692
  15.4220829  96.4824036   8.1918581  14.9298916  97.0780018   7.6268346
  16.1724052  96.2143209   7.6614149  17.8912888  66.6215184  30.9888418
  18.0214939  65.8415928  30.4493959  18.7307892  66.7502728  31.4303072
  34.1408428   8.2022277  29.1649683  34.0867075   9.0656511  28.7553365
  33.2388576   7.8818504  29.1685541  91.4406490  75.9360600  64.9039555
  91.8120384  75.3177881  65.5332756  92.1930122  76.4351320  64.5859671
 101.3532757  74.2577365   6.9579752 101.6539596  73.7690213   7.7241285
 101.2768625  73.5984900   6.2682016  72.1008825  34.1970253  84.7886276
  72.0773840  33.4106779  85.3339100  72.9896498  34.5360374  84.8953724
  99.2278957  66.0299301  67.0284367  98.7315083  65.9147978  66.2181377
  98.9216042  65.3251505  67.5991440  63.6541557  86.5162849  54.1421223
  63.0554295  86.0919666  53.5275459  64.0800381  85.7918549  54.6004343
  41.2699413  55.3991604  84.4375134  40.3303480  55.2355623  84.3561268
  41.6444254  55.0526714  83.6276150  31.9965633   1.7476550  17.8421552
  32.3077520   2.5014964  17.3410375  31.3153299   2.1038667  18.4124715
 105.2907944  45.7055807  86.7525959 106.0552979  45.2855587  87.1467209
 104.5653248  45.4757881  87.3332214  10.1678429   5.7113756  70.2922583
  10.1250897   5.2606119  71.1355925   9.6011601   5.1974214  69.7169685
  83.8292011  10.2071754  26.4587743  83.3896145  10.9842245  26.8040044
  84.7039493  10.2347604  26.8464430  95.2957439  45.9281874  57.4139929
  96.2218952  46.1481428  57.3135805  95.0753307  46.2180567  58.2992172
  89.7733116  47.4205208  70.9316492  90.5481720  46.8882704  70.7512999
  89.0642452  46.9766188  70.4664469  20.1505432 102.1202972   6.8565042
  20.7724056 101.9651106   7.5674398  19.7228680 102.9447296   7.0880849
  60.7957729  10.6783334  18.9789732  61.3251480  11.3623420  19.3890054
  59.9144729  11.0496608  18.9382036  23.7516533  95.0398159  57.1147823
  24.0713822  94.5463753  57.8701162  23.6768471  94.3884373  56.4174032
  76.8689346  72.3407078  62.5307941  76.7263269  73.0537748  61.9083548
  77.3818302  72.7367353  63.2353020  17.0642910   7.2610296  72.3597574
  17.0742092   8.0707181  72.8701830  16.1362419   7.0420946  72.2759390
  26.1171875  81.6330436  55.8543737  26.3570271  80.7064107  55.8467634
  25.2202377  81.6510418  55.5206163  91.8239998  79.5520523  38.3304174
  91.7500852  79.1920021  37.4465997  91.3311838  80.3719595  38.2970197
  75.4367065   0.7846461  86.6434002  75.4339409  -0.0681444  87.0781136
  75.1047707   1.3917279  87.3048401  47.0306374  67.2607528  79.5179892
  46.2748028  67.3333251  78.9351654  46.6511227  67.1511351  80.3898716
  78.8184808  49.5026086   4.5917757  79.6386932  49.1074142   4.2962988
  78.3849500  48.8100868   5.0904710  78.8537191  93.7414720   9.0158708
  78.2575248  93.2230451   9.5562608  79.3538021  93.0925730   8.5208185
  53.5917568   4.7134390  82.6063824  53.8485956   5.4273582  82.0227909
  54.3006086   4.6613926  83.2475185 102.8263448  43.2999339   0.4120691
 102.8327488  42.6876166  -0.3236334 102.4414562  42.8029713   1.1339529
   4.0592982  98.6132439  51.1373997   4.0277983  97.8369754  50.5782509
   4.2215992  98.2692825  52.0158005  47.4604940  14.4809639  68.3296347
  47.1159267  15.3507209  68.5321903  47.6324320  14.0863729  69.1845989
   3.4483872  56.4332422   8.2760484   3.8662014  55.9977487   7.5330789
   2.5879726  56.6942790   7.9477556   6.2409649  66.2372413  17.7971323
   5.9479199  65.6317284  18.4780939   7.1740875  66.0497549  17.6953085
  97.2602056  98.3607033  21.5097768  97.9345344  98.6038092  20.8754118
  97.7359222  97.8978899  22.1995027  92.7573656  54.4367975  28.0091150
  93.6542343  54.1084790  27.9453809  92.5497793  54.7396242  27.1251257
   1.4170624  56.2545859  54.8905373   0.4620124  56.2531077  54.9546432
   1.6971947  55.5472218  55.4713917  50.9254408   8.9190698  74.0245533
  50.7334232   8.0190498  74.2878532  51.8575573   8.9112902  73.8070059
 100.0586008  67.6516619   5.1917322  99.4185184  67.1597412   5.7060678
 100.3863786  68.3201828   5.7932909  62.2858000   7.9709280  78.3700895
  61.6623545   7.4466693  78.8727856  62.9734373   7.3528856  78.1222868
  83.4021829  39.9436536   6.2334688  83.8908933  40.4712131   5.6017358
  83.5284446  40.3928867   7.0692117  97.6934360  69.9556401   6.5507562
  98.0080675  69.2520025   7.1183260  98.3399652  70.6538954   6.6540773
  98.6030649  73.4307197  17.6897199  98.2123970  74.1006806  18.2507570
  97.8661274  72.8798154  17.4257906  97.3404526   0.0981834  21.7550333
  97.2441839   1.0393026  21.9008310  98.1269859   0.0186422  21.2153394
  12.0783577  56.1354223   9.7767122  12.9138432  56.2034941  10.2388342
  11.4481793  56.5624168  10.3570326  91.2648939  57.2228613  10.0659044
  90.4937099  56.7477396   9.7564466  90.9090399  57.9550621  10.5693777
  80.6048752 102.5554636  45.9352255  80.5718304 101.5989845  45.9182549
  79.9372078 102.8293769  45.3063917  62.4449347  62.8484311  29.1089876
  62.7305673  61.9731179  29.3706567  61.5520262  62.9198459  29.4464071
  80.7553743  69.7599485  19.7554071  81.0574507  68.8988724  19.4663961
  81.4734005  70.0985923  20.2901895  95.6657814  51.2014562  30.0233419
  96.3875221  51.1200863  30.6468065  94.8818945  51.0094573  30.5380209
  93.8325142  42.4840727  22.3875291  93.0986761  41.9621119  22.7119882
  94.5850300  42.1811887  22.8956754 105.3950285  58.7682751  12.6350362
 105.8924412  58.7338599  11.8179567 106.0227751  58.5070595  13.3087785
  90.4960823  16.5053368  88.6255360  90.6489563  17.4057925  88.9119625
  91.3135147  16.0487092  88.8243580   7.4360968  83.5601543  63.5710478
   6.8886544  83.1280815  62.9154205   6.9058348  84.2950772  63.8791704
  87.7186394  19.7762752  51.6141939  87.2247982  20.4102540  51.0941696
  87.0483208  19.2492247  52.0490789  17.5590302  63.2640850  76.3040590
  16.8210531  63.1062423  75.7152414  17.2252251  63.0383336  77.1722984
  25.4122219  82.0962837  14.0775640  25.0457058  81.5690377  13.3676965
  25.1477680  81.6396835  14.8761995  27.6792107  33.1007710  23.0668790
  27.8771267  33.7283674  22.3717649  28.3124981  32.3944428  22.9392870
  49.5295979  97.9662209  80.5759716  49.2254616  98.8681765  80.4749393
  48.8409210  97.5366496  81.0833454  61.5660858   8.0412287  49.3888092
  61.4332628   8.9816582  49.2697239  60.7740402   7.6402545  49.0308857
  12.8547058  84.8241594   0.3103883  12.1476326  85.3091123   0.7359464
  12.5931130  83.9062670   0.3830202  54.0462637   9.9475950  86.5429592
  54.3057060  10.1889992  87.4321461  53.0899620   9.9877608  86.5532494
  34.0370131   3.5708568  76.5816832  33.7121964   3.0584720  75.8412838
  33.8943410   4.4815272  76.3236952  14.9559078  38.6354998   1.7763384
  15.6526909  38.1574252   2.2259672  14.1894302  38.5275140   2.3394449
  35.8415794   3.8558096  71.1524773  36.4108133   3.2836676  71.6671228
  35.6729150   4.6039367  71.7252684  54.3833637  19.0651691  83.0172729
  55.2423573  19.4871104  83.0352592  54.4703197  18.3727121  82.3621559
  54.5074081  32.4394608  86.8278503  53.9511538  32.1013689  86.1260700
  54.1842699  33.3269930  86.9830894  95.9531403  23.3544326  82.7424526
  96.8415070  23.6597633  82.9263496  95.8964252  23.3440781  81.7869854
 104.5449280  74.2421916  11.3563402 104.8319124  74.9961832  11.8714769
 105.2967571  73.6497643  11.3595541  86.9815611  29.0379122  16.5704591
  87.6099705  28.5250476  17.0786913  87.3460649  29.9229505  16.5617712
  27.0796658  96.1742990  75.1311970  27.2939326  97.0574169  75.4319048
  27.2964169  96.1795687  74.1988754  89.7775196  84.8002460   5.2648122
  90.2324604  84.5743182   4.4535024  89.5088648  85.7108810   5.1431520
  97.8650068  45.1883867  38.4126241  97.9637932  45.2103856  39.3644579
  97.9002022  46.1072823  38.1468732  98.8810267 101.7265349  65.5924892
  98.8521948 102.4159045  66.2559414  98.1588592 101.9343610  64.9996042
  75.5572366  68.7913051  23.8561781  75.2039622  69.1673723  23.0499513
  75.8109306  69.5492151  24.3829019  84.1765951  75.9014395  15.4125555
  83.5498642  75.6492999  14.7344263  85.0296949  75.6593540  15.0522096
  87.2481512  65.3594115  17.2519643  87.4593042  66.2821904  17.1100958
  87.5818132  64.9148145  16.4727171  59.4178247   5.1087534  58.8644028
  60.2751160   5.1604664  59.2870235  59.3893433   5.8712137  58.2864094
  20.1910473  96.1072629  81.7545700  19.8153235  96.6572773  82.4419975
  21.1374308  96.1959743  81.8673420  57.4968697  84.6990274  88.8786030
  57.7957798  85.1210307  89.6840858  57.9734780  85.1492774  88.1812096
  93.7589716  53.8497831  31.9056661  93.0937599  53.1627327  31.9467218
  94.5259117  53.4663309  32.3311098   6.5007505  29.7629121  13.0495985
   5.9467945  29.6246460  13.8178690   7.1767197  30.3713515  13.3480890
  65.1323080  22.1374464  35.7353640  64.7049570  22.9135728  35.3731060
  65.3529263  22.3829079  36.6338658  74.9535464  76.5402797  41.0366113
  75.2215980  76.5543392  40.1178224  74.1083311  76.0910275  41.0326727
 107.9382633  55.0764450  55.8734186 107.1507238  54.6970752  55.4834325
 107.9385065  55.9862020  55.5758054  40.1487805 102.3582092  66.6857910
  39.2331387 102.2521841  66.4277411  40.1213289 102.9727900  67.4191189
  64.6528412  97.0602255  76.5842009  64.9120690  96.9891845  75.6655169
  64.2194344  97.9114698  76.6456318 108.1168293  60.4022643  59.1682108
 108.5168527  61.0317138  59.7682150 107.5483822  59.8693386  59.7241743
  53.6046124  45.2593851  84.9587822  53.3595896  46.0973930  84.5664310
  53.5218859  45.4030037  85.9015179  86.2179016  61.4859995   7.6652963
  86.9166635  61.8125835   7.0984514  85.7430815  60.8570000   7.1220262
 100.9419941  48.2297459  11.3392599 100.8070587  49.0945291  11.7267854
 100.5655025  47.6210671  11.9748647  60.6379842  30.9735706  22.8472097
  61.0267066  31.8343726  22.6918085  59.6968435  31.1411169  22.8963716
  96.0206007  42.6357588  11.5228613  96.7345260  43.0182794  11.0127504
  95.3814672  43.3431801  11.6082723  39.6222426  91.6689800  85.1380062
  40.0653197  91.4535438  85.9586811  38.6930395  91.6928457  85.3665829
  57.0789410  93.2544743  81.8789482  56.7530895  93.9493214  81.3068962
  57.9147888  93.5863571  82.2067261  99.1873096  82.4180749  13.2807405
  98.2842611  82.2256663  13.0283220  99.1438507  83.2853868  13.6833723
  85.9394573  45.3960648  14.5343454  85.3459476  45.1738640  13.8169820
  85.8477710  44.6722761  15.1539858 107.4900173  67.2281173   0.7814748
 106.8994497  67.8100064   0.3030737 108.3052467  67.2494736   0.2802999
  62.1171379   9.8862791  76.1277819  62.8758764   9.6028131  75.6176901
  62.1562099   9.3611866  76.9271469  14.0168883  97.5813418  86.9592571
  13.9277102  98.3362057  86.3774776  14.0762354  96.8299328  86.3692570
  78.9678644  37.8367033  10.4663618  78.6114000  36.9932475  10.1875360
  79.2864822  38.2406881   9.6592004  64.2062830  71.6153124  17.3422487
  63.4049486  72.1250513  17.4616869  64.5709394  71.9324115  16.5159948
  55.5227852  15.2798426  50.8186197  55.5223751  15.4189837  49.8715878
  54.7194624  14.7879565  50.9887838  80.2499174  62.0997587   1.2685068
  80.0357221  63.0219248   1.4098032  79.6449779  61.8156305   0.5832727
  80.0248909   9.3524027  85.2507687  79.6256256   9.8646629  84.5476341
  79.3433428   8.7335575  85.5129814  88.3533955  28.3761024  63.9770460
  88.5532188  27.4426293  63.9068747  88.0146599  28.6140680  63.1139898
  91.9629215  43.1452402  32.3791464  91.2455629  43.5158524  31.8650777
  92.3580288  42.4914089  31.8024118  99.8483013  39.8466888  15.7183702
  99.7874521  39.0337088  16.2199552  99.3029331  39.6934643  14.9467905
 108.4554027  61.0091343   3.7869795 108.2864593  60.8709779   2.8549917
 108.1663250  61.9065299   3.9523466  84.4746304  21.5960908  59.8866653
  84.4876194  21.9058681  60.7922602  84.4988918  20.6419778  59.9595308
 101.1502575  92.1847370  20.3762586 101.3415645  93.0709961  20.0693758
 101.9797634  91.8720177  20.7373102  80.6033825  78.0541780  17.5208528
  80.2835582  77.1587589  17.4105318  79.8979162  78.6041644  17.1801622
  91.8140720  57.9605654  21.9399698  92.6831459  58.2697883  21.6843946
  91.5737175  58.5108050  22.6854284   8.8692913  68.1759062  18.9284189
   8.8491783  69.1309872  18.8680132   7.9940472  67.9367164  19.2333181
   0.5238487 102.1346733  86.3781071   0.1353813 101.3882904  86.8344307
   0.1647331 102.9015724  86.8243504  82.3332762  79.0314916  37.1689184
  82.4067281  78.2527426  36.6172083  82.5435947  79.7597864  36.5844591
  39.6576452  50.2314901  76.3975525  39.9419045  49.3612099  76.1181879
  40.2108431  50.8348703  75.9014320  12.7934418  44.0920242   4.1305406
  13.3971462  43.6174473   3.5590894  12.6129875  44.9078604   3.6635549
  85.5558800  54.7733861   3.8794763  85.0210165  54.2047509   3.3255727
  86.2674545  55.0632909   3.3086450  81.4257812  13.0696309  83.2539654
  80.9416580  13.4946656  83.9619255  80.7501030  12.6579332  82.7152634
  46.4231834  61.5444973  17.9986246  47.2293530  61.9307485  18.3408506
  46.0199509  62.2458520  17.4870165  80.7105255  15.9838986  86.4552975
  79.9680805  16.5645492  86.6221905  81.3948631  16.2935424  87.0486259
  84.3162060  13.2566917  69.8490572  84.3254471  14.1157377  69.4269371
  85.2187347  12.9456341  69.7789097  63.5925722   6.0843432  89.0430069
  62.8575802   5.7555884  89.5606327  63.2102776   6.7657465  88.4900379
   2.1063719  60.4352388  22.3853262   2.2505770  60.1708379  23.2939108
   2.7412520  61.1358800  22.2361238  78.8964437  67.5596109  17.1019418
  78.5037063  67.2936681  17.9333646  78.5196899  66.9611910  16.4568193
   5.7140265  54.5700681  17.3759039   6.3220654  53.8627386  17.5908620
   5.8598957  54.7365740  16.4446600  67.3809313  65.5175462  10.6088789
  67.1772836  65.9766152   9.7940023  67.2973560  66.1867741  11.2881239
  83.5871528  71.9536689  21.6998823  83.4089540  71.2476042  22.3211343
  83.2505535  72.7405289  22.1285875   4.1479836  60.4408338  10.6335504
   3.7567339  60.0410709  11.4103086   3.7930164  59.9377277   9.9006708
  17.5236282  95.8508900   6.4879568  17.4778042  94.9160746   6.6885908
  17.2806988  95.9097412   5.5639703  97.5983309  66.2030187  24.6615942
  97.0986627  65.7721785  25.3550871  97.4048303  65.6932345  23.8748796
 106.4328264  51.7751371  11.2570722 106.6677164  51.8201394  12.1839101
 105.6368612  52.3020097  11.1858518  90.0520586  92.2751358   7.8416975
  90.2561449  91.3895967   8.1423624  89.2541336  92.5108269   8.3149774
  24.5372067  49.9726137  16.4865167  24.7892437  49.4264364  15.7419355
  24.9779663  49.5733073  17.2365339   3.0542240  67.0957342  18.1778581
   3.1450901  66.1969152  17.8614767   2.1691189  67.3523989  17.9191263
  26.8283520  69.5330789  19.0435560  26.1767540  70.0798049  19.4825704
  26.8672524  69.8767867  18.1510408  97.8719591  72.1728590  24.1551073
  97.8316759  71.2262443  24.2912252  98.7671684  72.4115446  24.3956430
  81.9733238  17.2679567  69.9572325  81.6284180  17.4303818  70.8352327
  81.3943768  17.7625215  69.3771887   4.4767342  62.3910966   8.7435777
   4.2520199  61.5584388   9.1588075   5.3621969  62.2586217   8.4049947
  85.8931946  41.6033581  12.4353559  85.3276752  41.3896575  13.1774767
  86.6025614  40.9624079  12.4824197  90.4537678  25.6911373  63.9161825
  89.8742580  25.5907345  64.6713781  91.2641239  26.0461164  64.2816257
  68.3033752  42.7088165  88.0450058  68.8986206  42.9057503  88.7682819
  68.0392504  41.8007040  88.1926537  96.4078687  92.6406601  16.7833383
  96.8504118  92.2247150  16.0434873  97.0746397  92.6818970  17.4688585
  44.4812832  82.6004842   9.8840101  43.6279163  82.8518346   9.5307024
  44.8295078  81.9760468   9.2475755 106.4364433  36.0627508  70.7853031
 106.4644146  35.1412058  70.5279970 106.7607975  36.5354085  70.0187397
 102.8951095  74.8280385  26.4836462 103.8408397  74.8366335  26.6311414
 102.5174164  75.0320080  27.3392065  88.8071560  58.2291963  19.8842580
  89.4943212  57.7148738  19.4605787  89.0818857  58.2882437  20.7992799
  79.4400463  75.4553512  17.5207384  78.4905872  75.4859546  17.4031122
  79.6703777  74.5382574  17.3720129  42.6388454   9.4279444  58.4789371
  42.6631021   8.5052693  58.2253313  43.2534933   9.8563266  57.8831768
  70.3257799  31.8522930  85.6788254  70.4188347  32.1566796  86.5815544
  69.4558907  32.1510935  85.4137802  45.7601786  20.2314234  82.1410275
  46.2238979  19.4984615  81.7361069  46.4444208  20.7309842  82.5865459
  13.6570225  64.7956255  36.6572817  14.3465767  64.3620732  37.1600492
  13.6804829  64.3686476  35.8009107  50.1360226   6.1207271  87.6848125
  51.0440540   6.0630655  87.3875237  49.6233940   6.1803621  86.8786621
   3.1633768  56.8019065   3.6951311   2.3188791  56.5066644   3.3547075
   2.9720507  57.6397702   4.1165693  99.9844335  75.7377627   3.9552267
 100.2755378  74.8271373   4.0026434  99.4484209  75.7769277   3.1631429
  82.3880266  39.3550923   9.3747194  81.9166683  38.5222569   9.3538435
  83.3111213  39.1094699   9.3130930  80.4482555  44.6969461  68.5945034
  80.7460690  43.8811493  68.1919909  79.6053600  44.4750643  68.9901352
  18.8831291  75.9630993   2.3253591  18.5066662  75.1057341   2.1267755
  19.7272263  75.9644058   1.8739946  65.2662300  96.4911964   5.2056368
  65.7752942  96.0892322   5.9095628  65.3812717  97.4326971   5.3343828
  29.9027786 102.9049566   7.9990919  30.1541958 102.8525141   7.0769937
  29.2098961 102.2516802   8.0959566  20.3655014  56.2579629  23.3417947
  20.8358345  55.8514824  24.0696581  19.5715485  56.6153636  23.7394579
  18.3057842  65.2416447  14.3580301  17.9120312  65.6046167  13.5646589
  19.2444477  65.3961423  14.2518289 108.2616329  31.0362458  69.5480728
 108.0876923  30.9835887  68.6082840 108.0508900  30.1634955  69.8799276
  94.1487049  59.0129247  21.0861547  94.5951437  58.8681277  20.2519186
  94.8426317  58.9529154  21.7427309  67.1291208  14.8683655  72.4406052
  67.4333763  13.9648628  72.5262785  67.6080418  15.3475153  73.1168270
  -0.0892343  70.0639155  24.5363577   0.7128534  70.5574158  24.3650396
   0.2027330  69.1570797  24.6292837  93.5048771  30.1096535  65.9100771
  93.4912491  29.6193218  65.0881147  92.6610088  29.9162459  66.3183689
  89.5790027  76.7297533  34.6855695  88.9908766  77.0419362  33.9979036
  89.2172598  75.8818868  34.9434335  38.2230116 101.2922019  87.7906227
  37.4972130 101.6180629  88.3228493  37.8455569 100.5713834  87.2864532
  10.6211720  65.2476063   6.4818437  10.4902802  65.6831291   7.3241098
  10.7658157  64.3286517   6.7073019 101.6304182  57.8472701   5.2892835
 101.2134289  58.0831793   6.1179598 102.5189947  58.1959715   5.3604849
 105.6159233  60.4320141   2.7036054 106.1384510  60.9660920   2.1053083
 105.5412840  60.9635892   3.4961279  61.0832167  29.7009206  47.4326181
  60.5281878  29.9913669  46.7088652  60.7922506  28.8072085  47.6138639
  71.6895437  31.6514874  73.3620739  72.0514297  32.4131489  72.9091501
  70.9028721  31.9821310  73.7957335   2.6694403  76.3338211  17.2440584
   2.0536385  75.6579831  17.5273569   3.5137186  75.8850172  17.1993311
  53.8725163 102.8917141  70.5341625  53.8216568 103.4539247  71.3071871
  54.3710591 102.1283269  70.8255911  38.8535055  20.8978216  16.6781480
  38.5678371  19.9854032  16.7241056  38.0408319  21.4035837  16.6792162
   2.7502928  86.2216332  15.4189165   3.0689392  86.7888787  14.7168310
   2.2514782  85.5401042  14.9684293  88.9310169   6.8056750  85.9839535
  88.1959629   6.4817882  85.4633522  88.5541344   7.4999064  86.5245438
  82.2783566  12.0520663  73.9338303  82.1753502  12.0630050  72.9822493
  83.2140350  11.9047606  74.0717793  11.4330826  88.0641511   1.3855035
  11.0768757  87.9798439   2.2699506  12.0252571  88.8144758   1.4363058
 107.0287107  93.9622190   3.2607324 106.7679952  93.8291386   4.1720827
 107.7567266  94.5818880   3.3079298  93.2302666  19.9610722  46.2603569
  92.4064350  20.0505638  45.7812738  93.2172108  19.0639091  46.5937614
  17.2208462  45.8851847   0.4601247  17.0122585  45.0261500   0.8272512
  16.5066681  46.0640529  -0.1515810   6.0999832  28.1850317   7.3884828
   5.7695828  29.0811351   7.3247011   5.9384928  27.8080824   6.5235860
  11.6222057  67.6671639   2.2682054  11.0568962  66.8947843   2.2778852
  12.2841797  67.4711731   1.6051729 101.8678640  65.2161971   8.3616026
 101.8224071  65.8817699   7.6751764 100.9783863  64.8667136   8.4156282
  86.4855576   3.9363769  71.2905884  87.0245361   4.6122384  71.7016172
  86.3535595   3.2840502  71.9785404  32.0413518  28.4209967  59.1360760
  31.1940193  27.9866552  59.0380335  32.3575068  28.5343862  58.2397366
  10.7085285  86.1830023  15.1857240   9.9574337  86.7755058  15.2179296
  11.4412746  86.7073825  15.5087240 107.0588421  77.8977039   8.8053377
 107.2478842  78.6761477   9.3292864 106.3436722  77.4637392   9.2705686
  17.7197514  58.7133017   9.3618353  16.7732296  58.8455489   9.3086393
  17.8961048  58.6184189  10.2978571 102.8797840  57.2158947  40.6399210
 102.5747799  56.5395930  41.2447508 103.8169645  57.2923890  40.8190019
  36.0402641  53.4220414  16.7169435  35.1605187  53.7848019  16.6135557
  36.5653954  54.1550842  17.0380647  80.7473564   8.7185037  72.6622772
  80.9399319   7.9489338  72.1266365  80.5133247   9.3979508  72.0299673
  56.4949656   2.5061738  81.7517471  56.4547729   3.3640939  81.3291550
  55.5989170   2.1730448  81.7031860  68.9539989   1.5157739   6.9622381
  68.5363563   0.7441226   6.5796716  68.4352001   2.2531072   6.6406400
  95.7659887  41.9047823   8.0009992  95.1439451  42.5556305   7.6759012
  95.2172827  41.2067607   8.3586557  96.8331121  72.9249671   0.2261884
  96.3237547  72.9288509   1.0366018  96.8632530  72.0041159  -0.0333445
  75.7520294  71.3841486  77.3812819  76.4129400  70.8790922  76.9076252
  75.6559610  72.1893406  76.8726873  88.0146503  23.2742810  86.6726685
  87.1139526  23.2139754  86.9910049  88.3783436  24.0350604  87.1256256
 107.4901174  68.4646192  16.8396146 106.8187546  68.7401715  17.4637659
 107.8804849  67.6857248  17.2360571  88.8913654  64.1607323   3.2534750
  89.2541670  63.3204225   3.5336263  89.2036699  64.2689004   2.3551424
  79.4460726  53.5403919  77.8166533  79.1694593  52.7747345  78.3201265
  80.0093079  53.1844330  77.1294212 106.9372200  52.8088204  13.6411245
 107.8150915  52.4824719  13.8387926 106.9487547  53.7199384  13.9343221
  25.5053101  74.0408328  22.8886087  25.4570923  73.1893709  23.3232553
  24.6702633  74.4617203  23.0930097  81.0176061  92.4585655  19.1288717
  80.3792595  93.0754736  18.7708814  81.7403196  93.0093697  19.4297559
  91.4170232  95.8968364  72.5180006  90.7360735  95.4017662  72.0625401
  91.7596831  96.4974933  71.8561602  48.3596970  84.3360232  79.5378017
  47.9854752  85.1597916  79.8502064  49.1708256  84.2371427  80.0363159
  67.6813841  33.4293652  84.9626350  67.1234846  32.7113485  85.2616882
  67.5891209  34.1015625  85.6378174  58.7814426  24.1944218  80.7638264
  58.7640762  23.3901525  80.2450943  58.1966734  24.7923708  80.2982712
  27.9869328  58.5637852  12.5864561  28.6612568  59.2291185  12.4491651
  28.4649048  57.7344677  12.5850065  76.5995455  27.8054404  68.0466270
  75.6463146  27.8843307  68.0834961  76.8273878  28.0690145  67.1550846
  16.2072907  77.3764208  23.3035047  17.0091305  77.0791676  22.8734834
  16.4169369  77.3622444  24.2373617 108.6805271  66.4288381  27.2311456
 108.8267683  66.8071916  26.3641412 107.7290558  66.4302817  27.3357160
   9.1658188  70.1199733  71.2461424   8.9685560  69.2233740  71.5171099
   8.4069992  70.6288730  71.5315294  99.6600174  66.1594191  27.1158273
  98.7912058  65.7586840  27.1443708  99.9996637  65.9334746  26.2499006
  89.5306492  44.1397095  84.9748898  89.7449684  43.4871101  84.3082523
  90.3279877  44.2177725  85.4987144  21.2793312  39.0029636   4.1511305
  21.3093624  39.9520710   4.2716558  21.4719734  38.8732317   3.2225378
  44.6337582  96.3782494  83.3246613  44.4634892  95.6363915  83.9050865
  45.0274445  97.0409470  83.8921833  26.8698654  87.3466757  29.2508371
  27.6573715  87.0977953  29.7347028  26.2204895  86.6870406  29.4946153
  97.8875326  74.7720507   9.0509470  98.8280128  74.6134808   8.9697893
  97.7127146  75.4914859   8.4442480 106.8503189  24.9844337  89.3182755
 107.0077229  24.1202283  89.6985340 107.4063587  25.0083232  88.5395050
  94.9829744  68.4706571   8.5894258  94.8671221  67.5923684   8.2269151
  94.2827724  68.9881781   8.1917818  37.2628498  32.3716307  73.7401628
  38.0516481  32.8952503  73.8810635  37.4676037  31.8305445  72.9775810
  84.0602325  69.9778750   4.3370683  83.7277912  69.4019642   5.0255735
  83.6804413  69.6304133   3.5300596  23.1340815  91.6893446  66.6141605
  22.2391440  91.6730904  66.9533539  23.5696388  92.3751556  67.1203136
  66.6501141   3.4384781  83.0120564  66.1619425   3.5909158  83.8211823
  67.5302887   3.2016641  83.3043671  96.2389444  58.5117635  23.5848673
  96.2526630  58.1815639  24.4831998  97.1099209  58.3107641  23.2424791
  62.8715563  18.1381905  57.9936123  63.6988640  17.7075028  58.2087851
  62.2206545  17.4371874  58.0276346   6.0293875  39.2845610  20.8368261
   6.2418518  38.3866909  20.5820329   6.8540058  39.7615388  20.7434137
  19.1172371  71.9305637  21.3137300  19.7065506  71.9837287  22.0661314
  18.6584435  71.0981765  21.4271982  38.4573231  65.2180114  10.5475481
  38.1866512  65.1960459   9.6296842  38.5261211  66.1499849  10.7547338
   1.9225060  98.6542000  20.5668504   1.7255722  99.1933026  21.3328893
   2.7930580  98.2971825  20.7426222  62.9675770   0.6496785  31.8884516
  62.2791815   0.3080751  32.4591112  62.5947332   0.6016039  31.0081625
  86.9491577  38.2655120  88.5555077  87.6604843  37.7536488  88.9405346
  87.0000458  39.1144848  88.9947033  50.3818401  -0.1495370  21.7356069
  51.2058815   0.3222457  21.6148050  49.7309955   0.5377618  21.8779428
 106.2456322  11.7709267  73.2701683 107.1665287  11.6887999  73.5180378
 106.0650158  10.9842622  72.7556086  86.7737697  83.4857943   6.7669351
  86.4892839  84.2060116   6.2042768  86.0174917  83.3047798   7.3250730
  77.7314781  60.9862634  41.1692293  77.6018928  61.7849329  40.6577928
  78.5801481  60.6514439  40.8796079  56.7146826  32.5013590  77.2899771
  57.3325491  33.1657147  77.5951099  57.2329092  31.9384813  76.7147970
  75.1334238   2.3181014  52.4238777  74.4151497   1.7768361  52.0962334
  74.8479509   2.5930822  53.2951546   8.8530884  57.5866315  26.1038549
   9.3534718  58.0302146  25.4189642   9.3400345  57.7633086  26.9087846
 109.2442513  18.0339110  70.0678492 108.7436104  18.3082747  69.2995262
 108.5886478  17.9356337  70.7583284  90.2158569  89.1439155  23.2082708
  89.9377702  89.3720463  24.0953214  91.1641096  89.0321830  23.2758291
 100.8050083  39.1398659   3.2118566 101.6524147  38.8358131   3.5369547
 101.0238813  39.7658279   2.5215681  30.4072499  49.1814184  85.6386948
  30.5744672  49.6278715  86.4687252  30.2002954  48.2808781  85.8885574
 104.1103576  57.1394524  30.0396021 103.7689232  57.8664174  30.5603464
 103.3814167  56.5215626  29.9839838  97.4057506  36.4297130  14.2769010
  96.7018865  35.8984735  14.6491773  98.1014990  36.3996425  14.9336107
 105.3439808  20.3872061  71.1137152 106.1974716  19.9571538  71.0604143
 105.1722813  20.6900597  70.2220678   0.4325161  89.1640475  16.0370405
  -0.2275314  88.4713986  16.0653646   0.1282463  89.8110154  16.6735037
  93.2654165  48.7210363  20.0385530  92.3422407  48.9727843  20.0140245
  93.3061289  47.9102492  19.5314081  23.2072697  56.8262741  16.4057310
  23.0398045  57.6303050  15.9140737  22.6569901  56.1674982  15.9821279
 103.1083750  84.6112159  17.3828466 102.8330301  84.1589048  18.1802328
 102.7203439  85.4831770  17.4559553  16.3672098   0.0050680  33.3984811
  17.1826681  -0.4374274  33.1629999  16.2529739   0.6726352  32.7220686
  85.3549408  64.8283651  32.9604776  85.8564113  64.7126952  32.1534021
  84.6975826  64.1330269  32.9357584   6.9866238  46.4314690  19.2856939
   6.6528759  46.0796431  20.1109560   6.9762573  45.6856814  18.6857565
   3.2377396  74.5736888   7.7870424   3.9943800  74.9126604   8.2654054
   3.5584984  74.4399932   6.8951566  94.6389103   5.7299405  68.9553118
  94.4772720   5.9471351  69.8734283  93.9311790   6.1634642  68.4784508
  76.0945867  59.6693381   8.1926401  76.3685869  59.1243931   7.4549444
  75.9832667  59.0535506   8.9169653  73.9531182  66.7059758   3.2786329
  73.4332680  65.9174505   3.1230314  73.3914016  67.2601083   3.8205202
   7.3825131  47.2651633   3.0171831   8.3006344  46.9955423   3.0414446
   7.3866520  48.1601068   3.3567293  89.6357178  35.9683969  11.0856969
  89.8420166  35.1093212  10.7173784  90.4719089  36.4342299  11.0899885
  57.3071909  21.4053726  84.8195457  57.2879219  22.2047830  84.2934322
  58.1728745  21.4082551  85.2279854   0.9151278  53.0024066  27.7252824
   1.0045586  53.4548393  26.8865068   0.0041924  52.7089595  27.7431924
  33.7328078  96.8998294  75.5356884  34.3320061  96.1595534  75.6315136
  33.6184002  97.2321742  76.4260197  16.4883194  43.6067387   2.1666677
  15.7271347  43.0306461   2.2369344  16.7901955  43.7158295   3.0684431
  99.4607544  13.5465360  76.2274933 100.3379822  13.6641896  76.5920019
  99.0798569  12.8365970  76.7443419  15.3303776  29.6057370  15.8365019
  15.4244671  28.6539176  15.7988508  14.7245560  29.8148396  15.1255281
  20.5207119  49.1451072  15.5994089  21.0564671  49.3010425  14.8216589
  19.9535618  49.9139905  15.6576593  80.3521252  27.0684147  79.3434334
  81.2816238  26.9380999  79.1555548  80.3263283  27.3082304  80.2697468
  91.8482685  11.9641864  78.9600563  92.2559834  12.2361386  79.7822762
  91.5976238  11.0521746  79.1071653  13.5260544  59.0587184  11.6307981
  13.5258923  59.3879613  12.5295885  12.9688511  59.6716168  11.1510999
  56.2786175  97.8339230  73.3889580  57.0069195  97.3413478  73.0105543
  55.9005619  97.2412859  74.0386391  93.1165909  86.8052009  38.8818605
  92.8456568  85.8907059  38.9626558  93.9582466  86.8466523  39.3358858
  27.6822910  76.8842533  17.4491460  27.0349464  77.4813941  17.8241022
  27.9610882  76.3401010  18.1856306  43.3273983  24.1794991  65.7123756
  43.1924582  23.8905525  66.6148901  44.0244007  24.8328733  65.7717466
  86.2821411  56.9234416  19.6668012  86.6180013  56.1690962  19.1826589
  87.0157026  57.5378367  19.6919401  46.2893724  22.1802688  86.2987518
  46.6190529  23.0668426  86.1520100  45.4009056  22.1931481  85.9428120
  45.6815220  95.2401756  76.4356518  45.4162098  95.9874832  75.8995771
  46.6166283  95.1382457  76.2584352  92.8648853   3.9015168  82.2070503
  93.2276440   4.7701579  82.3805523  92.7108574   3.8906017  81.2623882
 101.3100243   8.6513078  73.6790562 100.8693027   8.9042717  72.8678799
 102.1746159   9.0575731  73.6186266   1.6524801  72.5832990   8.6291654
   0.8675776  73.0259111   8.3062894   2.3704872  73.1755140   8.4056051
  50.5982552  58.6919459   0.7589204  50.8114491  59.5453694   0.3814943
  49.9933205  58.8905188   1.4736612   9.8049198  27.7742958  53.6875677
   9.4059311  28.0335736  52.8570175  10.6840359  27.4799180  53.4493876
  47.3302708 101.9355562   4.5763166  48.2766495 102.0439175   4.6705015
  46.9803295 102.1181419   5.4483373  72.6979589  38.6347723  73.2960892
  72.0985842  38.4980607  72.5624037  72.7372503  37.7849460  73.7348223
  28.1067810  88.7079456   7.6044996  28.6209545  88.1057098   8.1422479
  27.2153816  88.3612373   7.6421983  94.9918197  57.1694800  11.5168054
  94.2823576  57.7742502  11.7339571  95.2690910  56.8126777  12.3606355
  93.2373238  30.1926494  76.9492722  93.9668369  29.9975967  76.3610506
  93.1431866  29.4041586  77.4837351 101.1820673  58.9447817  21.5575941
 101.2591671  59.2986306  20.6715448 101.1704086  59.7166404  22.1235712
 105.3429785  99.1592332  78.8182878 105.3360953  99.2991330  79.7651815
 104.7072473  99.7890117  78.4784985  72.5232840  24.6586967  73.0509472
  73.1915569  25.3390002  72.9683161  72.9732275  23.9320612  73.4819651
 105.9973621  33.7365627  68.9744520 105.1644611  33.2808661  68.8525724
 106.1679363  34.1537499  68.1300068 101.2642978  94.1427210   5.1185663
 100.6746219  94.6429136   5.6827696 101.0577654  93.2274273   5.3078039
  97.7198337  65.2540305  10.9444196  98.5670208  65.6625894  11.1221464
  97.0924734  65.7763544  11.4442499 104.0480255  50.5539926  29.1842706
 104.9746584  50.3361457  29.0836485 103.7230324  49.9260150  29.8294504
  66.8027449  19.8877871  85.7191658  66.2523222  19.3768132  85.1257229
  66.2482500  20.6196380  85.9896469  20.6264149  22.7309752  83.1112671
  19.9912201  22.4667859  83.7768269  20.8628403  23.6276960  83.3483887
  92.9529117  62.8843954   9.4687421  92.8566717  63.7878194   9.7700651
  92.3797106  62.8244725   8.7044866  72.6162910  14.7396290  72.9941082
  72.2441816  14.6129549  73.8668728  72.3289633  13.9733100  72.4976969
  94.5282911  71.7632869  33.5515268  93.7404560  72.0966771  33.1221063
  94.9565529  71.2275961  32.8838022  42.2531916  99.6616142  68.0438805
  42.6195217  99.2881515  67.2422838  42.8239752  99.3387475  68.7411594
  91.5624237  64.1349077  56.1341715  91.6647720  63.3819246  56.7162132
  90.7419395  63.9690113  55.6699371  28.5246357   6.3871662  11.6864736
  28.2168230   6.9758645  12.3756178  27.7243360   6.0312454  11.3003786
  94.7802734  49.3697882  86.2864304  95.0009155  48.4621096  86.4953995
  94.9256611  49.8459291  87.1039772  24.2447720  99.6089199   8.3398302
  24.1266880 100.4678562   8.7454374  23.6137924  99.0443924   8.7863691
  30.5697212  87.5434521   1.3292368  30.7301674  87.0537022   0.5226190
  29.6192036  87.6525906   1.3581331  22.0334206  77.3843863  17.2393758
  21.9274769  77.4974087  16.2947900  22.9808674  77.3533204  17.3720987
   4.5866070  86.0647657  23.2748468   4.8432550  85.8340981  22.3820074
   5.2407322  86.7053392  23.5541589  10.0225411  80.2367261  21.0310323
  10.1645813  80.6140497  21.8991811  10.1704559  80.9640816  20.4266222
  35.5526695  91.7666319  36.5072973  35.2752171  91.6763237  37.4189432
  35.2742252  90.9512713  36.0903032  65.3409529   1.3615650  80.0685883
  65.8963871   2.1178120  79.8793316  65.8517790   0.6087532  79.7709894
  12.1324024  43.1546262  14.6164472  12.9376278  43.0209568  15.1164301
  12.4254475  43.5309973  13.7865694  95.5567265  59.4857311  74.1213131
  94.7038078  59.2632818  73.7481213  95.3596783  60.1280117  74.8031330
  31.4353523  86.6579035   3.7245519  31.0272465  87.1451524   4.4402845
  31.1215172  87.0907762   2.9305990  82.5047207  48.6817074  68.1380320
  81.6415787  48.3315897  68.3585691  82.3806000  49.6306419  68.1192255
  37.1765575  73.1887439  30.3384836  37.9617653  73.2438829  29.7938402
  36.8046436  72.3302367  30.1363142  80.7494926  10.0241232  79.5640326
  80.8902740   9.3111676  80.1870155  81.6190624  10.4016662  79.4315910
 100.8385563  26.3330722  41.9766092  99.9294090  26.5198565  42.2107029
 100.7863426  25.9477401  41.1019516  21.3704237  21.8359653   9.6469839
  20.9468016  21.2329475   9.0361269  21.0041412  22.6932804   9.4299944
  40.3010712  93.8670614  35.3792341  39.7228680  93.5599163  36.0774953
  40.9613571  94.3939331  35.8294160  91.0425091  32.9234672  81.4877224
  90.2482700  33.3979344  81.7332840  90.7443810  32.2671413  80.8579731
   3.3553276  83.7318185  36.3416155   3.5670767  84.6619394  36.2624605
   2.6404200  83.5951879  35.7199438  86.3278675  36.3183951  56.0253000
  87.1193123  36.6590118  56.4422226  86.3729572  36.6418839  55.1255465
 106.3665485  46.5637493  57.3271656 105.4835510  46.1972857  57.3744869
 106.9451618  45.8103514  57.4447823  82.2410297  33.9308143  71.9146585
  82.6315403  34.7823548  72.1111536  81.4194965  34.1408110  71.4705610
   8.0465756  90.7136538  17.6595743   8.3937321  90.2049640  16.9267995
   7.4626122  91.3531592  17.2518308  35.0199947 102.5002697  14.6887548
  35.1797733 101.8716886  15.3927381  35.8937512 102.7582386  14.3951090
   6.3786087  71.0830727   8.2480486   5.5025873  70.7763651   8.4820326
   6.9688902  70.5536774   8.7842710  41.6657066  40.7891655  86.9220161
  41.3470221  40.2326584  86.2114048  41.8612480  40.1800013  87.6340008
  52.6566585  27.6788513  26.1884935  53.3005985  27.0642177  25.8366449
  51.8917068  27.5743381  25.6226690  31.9854889  56.4188966  14.5229776
  31.0931549  56.7046937  14.3272646  32.5266037  57.1900275  14.3533189
 106.5549850  29.0849543  65.6825352 107.0638275  29.8456430  65.9630013
 107.1754169  28.5518169  65.1854753   3.5424553  21.3057208  84.1020489
   4.0926205  22.0767975  83.9642429   2.9843079  21.2678123  83.3253479
  91.7152500  21.9844246  76.7059088  91.6656685  21.1043191  76.3328314
  92.0198631  22.5338840  75.9837341  94.1888880  83.4010580   4.1847665
  93.6422848  82.9105070   4.7986181  95.0178026  83.5237625   4.6474416
  92.6367639  75.5686667  19.5301778  92.7417873  75.9731224  18.6690099
  93.1001877  76.1549738  20.1282747  30.1391850  68.3761516  12.0116098
  29.2101822  68.5275391  12.1855695  30.1488648  67.7025237  11.3316400
  12.8605686  20.8042550  83.0642796  13.7769924  21.0208130  83.2360268
  12.7680432  19.8997700  83.3635712  63.6713013   0.3289358  17.8148992
  64.2487797   0.1400558  17.0752580  63.6262115   1.2845842  17.8456171
  35.7036575   6.6239206  46.5522344  35.2755102   7.0986596  45.8398111
  35.0397381   6.0082952  46.8627985  48.5307392  16.5070144   7.3798807
  49.0163883  16.1738626   8.1344659  48.0331978  17.2489015   7.7238233
  95.2274132  29.6518970  75.3954601  95.5138493  28.7811399  75.1198339
  96.0058689  30.2009368  75.3016901  86.0682678  48.5555983  78.5244894
  86.4889908  49.2282248  77.9889584  86.2845039  47.7317572  78.0877304
  84.1952229  30.3949261  85.0688362  84.3560791  29.5055318  84.7536659
  84.9306107  30.9056592  84.7303391  47.0039272  17.7544749  29.4924283
  46.3123083  18.4124649  29.5627284  47.8052807  18.2235134  29.7249627
 107.2636389  70.7354334   9.6011789 106.6671728  71.3260534   9.1411550
 107.0361732  69.8643365   9.2760904  47.6733923  37.6391602  79.0056801
  48.5963297  37.8649569  78.8897514  47.6460075  37.1613383  79.8346376
  73.8380384  73.3407211  79.2831612  73.6620712  74.2753267  79.3916941
  74.7506285  73.3004570  78.9971685  62.8003454  14.2311859  71.6218758
  62.0316458  14.8015106  71.6138601  63.3076763  14.5022452  70.8567762
  54.8670410  85.7312229  31.8452890  54.2719578  85.0007537  31.6763933
  54.8078679  85.8749059  32.7897890  24.0939220  18.5383645  33.7124403
  23.4484371  18.0431072  34.2167242  23.7418112  19.4278804  33.6807020
  30.3301010  87.7283171   6.0522039  29.5197067  87.8678754   6.5421350
  30.9699116  87.4707511   6.7159326  81.3503336  87.7237370   5.6639631
  81.9884418  87.4070075   5.0246484  81.1720823  86.9654849   6.2202985
  92.9429268  69.4949463  29.9716528  92.1689628  69.5291260  29.4094713
  93.2684587  70.3949764  29.9860151 100.7960676  67.7854243  18.8982256
 100.5124258  68.6643114  18.6465509 100.3423284  67.2035411  18.2884939
  86.0524559  18.8467956  85.7672310  85.6653214  18.4361005  84.9941254
  86.6917229  18.2081270  86.0829449  68.9315557  26.8376660  87.4190712
  68.0645752  27.2155786  87.2715759  68.7634802  26.0432410  87.9259014
  16.6859019  31.1004066  81.1931324  17.3397315  31.4506269  81.7981815
  15.9270370  30.9098840  81.7445469  86.0738659  28.1248999  65.6535292
  86.6721249  28.2494569  64.9167776  86.6345024  27.8257537  66.3693762
  83.8022900  50.3213167  79.2735338  84.5528126  49.7508383  79.1076899
  83.3541107  49.9175119  80.0167084  74.8200878   8.3646242  18.6396940
  75.1884826   8.9006463  17.9374178  75.0199779   8.8490192  19.4407232
  67.1604156  21.8542337  80.9841442  66.2713718  21.6850901  81.2959576
  67.1236563  21.6719079  80.0451851  56.8223644  97.8350126  81.4349651
  57.0633484  97.7774458  82.3595428  55.9844757  98.2978012  81.4342117
 100.0247024  48.1172347  25.1132639  99.9757742  48.7269068  24.3769605
 100.6459831  48.5220551  25.7185419  69.8988628  39.9978042  88.0706596
  70.8421040  39.9736238  88.2317448  69.8130035  40.4130173  87.2124863
   1.3660441  97.5312117  28.8476141   1.4489613  97.3105076  29.7753198
   1.6279421  98.4504249  28.7957628  36.8765911   4.4845525  25.8600767
  36.2839922   4.1573898  26.5368517  37.7221187   4.0880052  26.0699899
   9.2839871  94.0528944  16.7511518   9.7889290  93.8698223  17.5434549
   8.6629067  93.3271244  16.6899164   6.4555680  41.8056154  72.5019646
   6.4202057  42.7596617  72.5710726   7.3895584  41.5979290  72.5296164
  52.7051115  24.9998999  57.5683165  52.7696657  25.3641057  56.6854668
  52.0691442  25.5604839  58.0127573  82.1250153  30.4535270  61.7974281
  81.6250134  31.0586286  61.2496328  81.5121365  30.1894093  62.4836111
  14.0110073  92.4677351   0.7062681  14.8376331  92.0819023   0.9962042
  14.2017231  92.8160551  -0.1646750  15.4996166  82.3402765  15.4104669
  15.1247940  81.7702392  14.7390516  14.7584496  82.5693300  15.9712179
  92.0355606  37.9471636  33.5581446  91.8299103  37.8754640  32.6260519
  92.8359032  37.4335194  33.6670375  70.1614269   0.7948915  16.5878828
  70.8490642   1.0267202  17.2121008  70.6330189   0.5545513  15.7903535
  16.3974152  86.1193660  16.5503366  16.3362179  85.6485393  15.7191808
  16.9892082  86.8495181  16.3689859  39.7315964   0.9199849   7.0299013
  39.3824848   1.7130033   7.4366911  39.3074831   0.8839742   6.1725481
  82.8926777  81.3893130   4.2081888  82.8569006  82.3397735   4.3157823
  82.6961254  81.2454918   3.2824953  83.4242153  33.1874180  74.3542194
  84.3309307  32.9703617  74.1374302  83.0733681  33.5776067  73.5536671
  24.8951658  11.9370738  35.1475389  24.3547520  11.3662807  34.6013029
  25.5321630  11.3483039  35.5522878  94.4283390  37.1199346  71.5974474
  93.5872364  37.5105667  71.8344736  94.2917347  36.1778855  71.6980124
   2.9218397  99.7980907   5.1498659   3.7607870  99.3728617   5.3275736
   3.1469641 100.7146147   4.9900682  16.9086109  39.3945479  65.8054543
  16.3969456  39.1040921  66.5604782  17.3497425  38.6032891  65.4963589
   9.8778591  73.8073733   8.9045198   9.9533997  74.7539452   9.0250547
   9.7340927  73.4643391   9.7864969  37.6263167  86.7826187  85.9935760
  38.0195976  86.1113404  85.4359531  37.0060087  87.2353660  85.4222012
   1.7076835   2.4665824  12.2050245   2.3200187   1.7470638  12.0515020
   0.8432945   2.0786897  12.0686205  18.6287724  69.8347235  78.4139299
  19.0446411  70.4332638  79.0344381  18.0846916  70.3991175  77.8646898
  16.3323437  26.1066985  64.3476343  16.4110981  25.1545286  64.2892885
  17.2227608  26.4295936  64.2093229  58.1148228  21.2784711  18.6409052
  58.3522972  22.1280996  18.2694585  58.8396057  20.7011310  18.4009035
   1.7820463  70.8372476   4.2642744   0.9134111  70.4397407   4.2035253
   2.3729239  70.0996259   4.4159658  29.9550041   4.2259065   7.8210695
  29.2869314   4.8929540   7.6630838  30.5398496   4.6210853   8.4676130
  19.1439091   9.9212009  51.3501930  19.2460095   9.8551995  50.4007435
  19.0750443  10.8608902  51.5189314  39.4901419  30.7319164  73.2358456
  38.8894963  30.7050872  72.4910402  40.2746296  31.1620212  72.8955173
  25.4979477  64.4530669   8.2655580  25.8520660  64.9637988   7.5375517
  24.5520554  64.4509497   8.1188829  11.0391483  76.0669020  17.9300459
  10.6777535  76.7122367  17.3224504  10.3061543  75.8399060  18.5022504
  23.4939228  20.3171682  74.0328026  23.8805424  19.4495153  74.1508770
  23.0523430  20.2692485  73.1849003  80.7356453  66.6717386  65.3548765
  80.9065056  67.1729040  64.5574617  81.3579750  65.9453249  65.3191805
  77.3331738  28.3844805  77.9911900  77.8423023  27.6029968  77.7760077
  76.8335629  28.5712123  77.1963644  26.0207329  98.8023594  15.8556326
  25.4026947  98.0715540  15.8692606  25.9895287  99.1256693  14.9552305
 103.6294079  13.5066092  84.7484589 103.2910633  14.3658590  84.4965744
 103.9194012  13.1127739  83.9256477  55.4812607   7.6115695  13.4976728
  55.3988918   7.2822372  14.3926485  55.2148517   6.8758956  12.9462774
  98.3629774  86.4269975  19.9985082  98.9031528  86.5222004  19.2140443
  98.0524038  87.3131159  20.1844366  80.3400301  59.9092319  40.9723814
  80.3158640  59.5853719  41.8728025  80.8504032  59.2544296  40.4959543
  69.2946434  56.3593006  84.9372959  68.5661602  56.9701815  84.8260689
  69.0819788  55.8757496  85.7355309  99.4368623  63.6305371  37.8514726
 100.1285194  63.2427934  38.3876665  99.1202806  64.3715325  38.3681257
  15.5825459  31.5735626  74.5229053  16.2675797  31.2858772  73.9194202
  15.3656136  32.4599671  74.2340088 101.7560577  31.3732457  74.4722795
 102.2076035  31.7046309  75.2485037 102.1793270  31.8208027  73.7396336
  14.6060594  60.6836311  34.7915132  15.3572925  61.1430446  35.1667745
  14.8383983  59.7569076  34.8499830  99.9776767  77.8755811  10.5154760
 100.0465416  78.3669737   9.6969278 100.7284282  77.2819236  10.5023344
  84.8245430  20.2937198  48.3195925  84.9015331  21.2029529  48.0304623
  84.8736477  20.3410244  49.2743635   8.6650215  31.5558887  66.8686628
   9.2378460  32.3098230  66.7283726   9.2529904  30.8008909  66.8461752
  41.1707640  22.8662109  72.0338440  41.7076397  23.3034325  72.6947784
  40.3476763  23.3548331  72.0323324  88.2199001  23.0872607  53.3978558
  87.4138069  23.1893849  53.9038372  88.7129307  23.8898373  53.5682297
  91.0726166  42.2231960  73.3997059  90.8492565  41.3505697  73.0758762
  90.7379818  42.8199863  72.7303123  39.9918041  68.2970944  -0.0689356
  39.6951923  69.1819659  -0.2816717  40.8174191  68.4269371   0.3976877
 101.6167091  69.8862365   6.2214811 102.0978283  69.7664276   5.4026945
 102.2857832  69.8264172   6.9033868  19.0543804  89.5743063   8.1417329
  19.5144138  90.1622870   7.5426633  18.8993797  88.7818888   7.6276453
   2.0670449  39.7445703  68.4356928   2.9624783  39.8644567  68.1193686
   1.8972622  40.5182695  68.9730883  28.0591164  76.0410026  10.4125936
  27.6857147  76.5551403  11.1284597  28.0248127  76.6250351   9.6549947
  64.5795059  30.5467653  69.3178272  64.1449738  30.0703812  68.6103868
  64.1056871  31.3765574  69.3741560   6.8896971  94.1240528  11.0790880
   7.6536522  94.6522310  11.3106973   7.2567806  93.3063295  10.7432230
  88.7095642  19.5841753  65.9998989  88.3623314  18.7363470  66.2771177
  88.4868526  19.6419859  65.0707626  33.0262909  71.2249616   5.6751592
  33.2576618  71.6626480   6.4943845  33.5297546  70.4109660   5.6880148
  35.7790337  89.9860480  41.1835630  36.2695179  89.2006662  41.4261110
  35.2603302  89.7195986  40.4244955  35.2400551  53.2067324  38.7503393
  34.4041500  53.4875276  39.1226919  35.8118115  53.9687237  38.8435705
  21.1247692  80.7016685  18.8692529  22.0763264  80.7708290  18.7919004
  20.9013615  81.2780311  19.6001012  14.5020924  69.5394853  26.1936338
  13.9134560  70.0894609  26.7106016  15.3663597  69.6864012  26.5779455
  21.0244881  52.6700544  75.3896189  20.7861840  52.2423649  74.5671034
  20.4095875  52.3146057  76.0313272  94.0200590  91.1940577  47.9272516
  94.1589712  92.0095137  47.4456270  93.1410574  91.2805512  48.2961805
  13.3670864  76.1709693   7.0758207  13.3229790  75.3752473   7.6060159
  12.8829823  76.8232849   7.5821359  49.9756203  96.6893986   1.4665468
  49.0688953  96.9398954   1.2895448  50.4879246  97.4634722   1.2329061
  72.2643074  10.0222150  32.1583517  72.9035648  10.7332031  32.2039468
  72.4949058   9.4457141  32.8868444  14.4334946  92.4509981  19.5883615
  14.6720848  92.5709560  18.6691625  14.5308933  93.3205202  19.9765356
  73.2173347  41.1199331  78.2925177  72.3382711  40.7427979  78.2572126
  73.5698509  40.9885454  77.4123430   3.7738953  36.5343728  23.5907037
   4.0361176  35.6575456  23.3102663   2.9823885  36.3930145  24.1100938
  69.3928146  45.2814817  87.3391247  68.9046574  45.5794621  88.1066799
  69.1542482  44.3590975  87.2467995  27.4657593  89.9263313   3.3068712
  27.2424755  89.0368393   3.5810716  28.2282028  90.1563790   3.8378961
  71.6754484  25.8088350  78.3710623  72.5042963  25.6555629  78.8246584
  71.6552162  26.7541456  78.2220316  78.2046890  42.6199627  73.0234289
  78.8100719  42.4402094  73.7427521  78.7089586  43.1605673  72.4154091
  91.8795109  52.1454954  75.4454994  92.7639961  52.4180651  75.2013254
  92.0065308  51.3371897  75.9422302  83.2750988  30.6287241  52.9117203
  84.0325832  31.2136936  52.9273939  82.8846073  30.7191730  53.7809563
  93.8321972  27.6360941  84.6657944  93.7579536  28.5561490  84.9192047
  92.9415321  27.3814201  84.4247913 108.8012218  41.8935823  87.2020054
 108.1725883  41.6175985  86.5350151 108.3487797  41.7471600  88.0327225
  39.2265488  94.8273449  65.2256107  38.9796234  95.5191856  65.8393002
  40.1239754  95.0420254  64.9711037  11.9381008  82.7512577  12.5961359
  12.1390114  83.6370590  12.2940977  11.5503464  82.8757527  13.4623773
  76.2555504  70.5795908  72.4446917  75.8357048  71.4212656  72.6222944
  75.5975151  70.0812197  71.9600821   6.5321646  66.7013112   9.1624982
   5.7948647  67.2826507   8.9763219   6.2014113  66.1016288   9.8312433
  28.4712372  90.7998732  37.6588209  28.9416370  90.7835844  36.8253381
  28.4385548  91.7263058  37.8973253   5.1668104  17.7243892  12.1540506
   4.7012457  16.9205324  12.3849065   5.4521021  18.0854074  12.9933984
  34.8467144   7.5221530   8.1682165  35.5047020   8.1998912   8.0134447
  34.4189867   7.7852336   8.9831216  73.8358831  32.7798128  74.8018742
  73.7674713  33.7033153  74.5595980  73.1394482  32.3497772  74.3056107
  93.0335045  36.3926077  77.7025652  92.3509789  36.1826634  78.3400011
  93.4561157  37.1764565  78.0535746  74.4407558  45.6371784  86.4795971
  74.4772100  46.0308790  85.6078720  73.5521364  45.2879763  86.5477180
  40.4942951 100.1922205  29.7353609  40.6294403  99.3940809  30.2461774
  41.3158474 100.3140047  29.2594869  98.5285782  61.4893082  22.6892336
  97.6245426  61.6022721  22.9828127  98.7927555  60.6420484  23.0478246
  91.2335873  57.0673943  74.1186953  90.6542206  57.5424051  73.5229349
  90.9733200  56.1509418  74.0259075 106.9923805  85.0962165  25.6240614
 106.6759275  84.7612169  26.4630277 107.8897165  84.7694710  25.5588014
  77.7171860  99.9496534  23.2467611  78.0381737  99.0501860  23.1822736
  78.5080299 100.4884127  23.2238157   3.9240084  72.5454119   0.4565485
   3.6798487  73.4054783   0.7984598   3.2397709  71.9574335   0.7764394
  96.8891048  28.4029555  80.6014824  96.8179321  29.2790127  80.9805393
  97.7547646  28.0953050  80.8702183  91.4689922  14.4895625  66.8784332
  91.7555237  14.4428098  67.7905464  92.1819401  14.9406207  66.4262390
  84.4734669  66.9161129  80.8479691  84.0918350  66.5298748  80.0596809
  85.1468372  67.5124645  80.5206108  36.7298660  98.5686901   9.1454275
  36.9024429  97.6309851   9.2300375  36.8705998  98.7553337   8.2172163
  18.9315376  61.3264659  13.5733946  19.6058140  61.8339398  13.1216772
  18.8919506  60.4995647  13.0928762  59.6789051  80.2981006  72.1184540
  59.2930866  80.2346002  71.2447643  60.6094433  80.1192795  71.9829321
  76.5997490   9.3591491   6.4551408  76.1512836   8.9725629   7.2072466
  76.3022217   8.8416187   5.7068880  14.1000996  63.6980548  14.0844114
  15.0199280  63.4400728  14.1443212  14.0141544  64.0771213  13.2096822
  79.3897772  51.8733263  56.0972023  78.9728689  51.1959600  56.6297388
  78.9586496  51.8072605  55.2451468  85.6291580  37.8621626  77.6762009
  85.4438972  38.6911345  77.2349358  85.1744747  37.2041059  77.1504068
  29.3409786  66.2116399  18.8931711  30.1431904  66.2770358  18.3750875
  29.4680557  65.4322091  19.4340665  91.8760681  46.3535357  81.5518093
  92.1524525  46.7133951  82.3946285  92.5873089  46.5766287  80.9512997
  50.6693602  31.1848211  71.9521809  50.2624559  31.8532085  72.5034666
  51.4252710  31.6237545  71.5620852   3.8842449  64.4062415   7.3021944
   3.5183344  65.1262966   7.8158720   4.0677414  63.7219301   7.9458387
  32.1618900  83.4054044  32.3734815  31.7759285  82.6006821  32.7194460
  32.6951943  83.7437346  33.0927522  78.5537910  43.7252522  70.3078985
  78.4029770  42.8572607  69.9336338  77.6824665  44.1179752  70.3607798
  31.1960945  72.9262355  29.8272188  31.9696102  72.3835519  29.9801977
  30.5857620  72.3492983  29.3680055 105.7359695  18.6960828  77.0408869
 104.8722267  19.1000295  76.9571400 105.6923580  18.2054400  77.8616190
  97.5427628  12.6891387  57.3818111  97.0579147  11.8885410  57.5823021
  97.3324108  12.8736603  56.4664268  96.2249279   1.4730291  80.7048416
  96.7034340   0.6476869  80.6268597  96.6551018   1.9320293  81.4263058
  33.7224127  80.5786215  80.2511406  33.5599495  80.5528485  79.3081808
  33.1708885  79.8825799  80.6083202  97.7439404  25.2890348  69.8566866
  98.2252502  26.1160469  69.8316336  96.8890381  25.4979539  69.4802284
   5.3111086  68.9852169  53.4118135   5.7571707  69.0664139  52.5688036
   4.8214731  68.1653860  53.3457239  14.7749958  88.9603665   3.5571058
  14.4688091  88.9833811   4.4637258  14.1003666  89.4277575   3.0645235
  78.0924486  65.2370408   2.5629480  78.9566110  64.9497047   2.2681863
  77.5317596  65.1379922   1.7935045   0.5511223  39.5363283  66.1797333
   1.0226094  39.7832179  66.9753361   1.2162148  39.1312551  65.6231356
  88.6622620   4.6420601  88.2359791  88.9597511   5.5167043  87.9855156
  88.6421108   4.1514945  87.4142933  86.4066219  42.1813679  76.1068916
  85.8138084  41.4461708  76.2627268  87.0402527  41.8476677  75.4717684
  91.1766624  29.9491811  67.5164127  90.3985119  30.4767013  67.3362970
  90.8925438  29.3227839  68.1821012 106.3242935  65.9152022  20.2385099
 106.0110306  65.0124636  20.2947195 105.6205629  66.4373544  20.6236799
  66.6444302  12.5920737  70.8971786  66.0792112  11.8408370  70.7171679
  67.5337744  12.2491777  70.8093262  89.2989635  44.6592760  57.5355005
  89.4979763  44.9974632  58.4085751  88.3745384  44.8689127  57.4024296
  34.6625742  37.7628032   3.0112894  33.7581047  38.0527774   3.1299646
  35.1052793  38.0223457   3.8192995  10.0722084 101.8262842  18.3084638
  10.2151928 102.1508339  17.4193914  10.1461372 100.8750942  18.2309873
  54.6356545  39.6002784  23.5229452  54.0146027  39.6127394  24.2512186
  55.1390133  38.7962714  23.6511476  26.7577038  73.3706310  12.9947240
  27.5609837  73.2249644  12.4949796  26.7637310  74.3076780  13.1900270
 102.3255132  72.0782283  18.0371530 103.1676029  71.9051268  18.4580476
 101.7591547  72.3772171  18.7485464  25.1863798   6.8374959   7.9333837
  25.2894815   5.9965650   7.4879224  25.5806764   6.7020360   8.7950094
  94.9970341  33.0606961  84.4999123  95.2236080  32.1614575  84.7371101
  95.6852055  33.3283734  83.8908100  93.1348251  31.2312200  11.7490251
  92.2681307  30.8643749  11.9236524  93.1349157  32.0729354  12.2048147
  13.1747303  52.7343498   4.9287851  13.6324272  53.3525531   4.3590696
  13.8516007  52.4096131   5.5225999  47.0684322   7.9816810   9.2960889
  46.7053398   8.6914054   8.7662943  47.5256523   8.4256832  10.0102670
  96.8588257  63.7567139  81.7450809  96.1635685  64.3894529  81.9253254
  97.3208046  63.6646271  82.5783443  19.7329674  81.8926385   3.6742456
  18.9124546  82.2287062   4.0348680  20.1890335  81.5162447   4.4269426
  95.3006363  61.7211723  57.4902725  95.0790596  61.1306429  58.2102823
  95.2039242  61.1856031  56.7028427  62.3162445  15.2198068   2.5910432
  62.1808132  14.2811386   2.7206380  61.5372356  15.6285230   2.9683073
  38.9711437  94.4749811  11.3007982  38.9960442  95.2451876  10.7329996
  38.3848057  94.7231748  12.0155294 105.4138660  24.8133135  81.8529797
 106.0581112  25.4841089  81.6266727 105.3106785  24.8906207  82.8014565
  61.8270111  36.0117912  82.3161983  61.5439177  35.6611037  83.1606483
  62.5310421  36.6225147  82.5343418  49.2692814  87.8915694  37.3890073
  49.1942177  87.2524074  36.6804369  48.3847580  88.2435658  37.4887521
  51.4168511  99.7757938  18.5457189  51.4628658  99.8089149  19.5012434
  50.7654438  99.0993097  18.3606012 104.2187809  99.6230677   6.8020971
 103.4238600  99.2143133   6.4596803 104.2489742  99.3556955   7.7207048
  82.4041939   8.4331661  74.8239326  81.8630314   9.0819830  75.2738380
  82.0208073   8.3664638  73.9494038   0.6791436   6.2906426  74.3154526
   0.6805645   6.3874125  75.2677488   0.6334626   5.3455365  74.1708183
  16.9178734  78.7952927  20.0016363  17.5157509  78.0847028  19.7696073
  16.4629803  79.0017989  19.1851385  55.3433307   4.6467153  34.9367578
  54.6740040   5.0219575  34.3645437  55.5081161   3.7764064  34.5739229
 103.1000519  10.3822923  60.4604864 102.3167419   9.9946332  60.0701237
 103.5000706   9.6671689  60.9552765 108.4887575  85.9965518  38.2435091
 108.9184164  86.2438014  39.0623434 107.6578926  85.6077578  38.5168893
  91.0913277  47.6792669  67.9930162  90.2595234  47.2216082  68.1149769
  91.4020348  47.3871326  67.1360731  62.6232958  65.5916357  83.3613491
  61.6807270  65.6103992  83.1957054  62.8811169  64.6886301  83.1760406
   4.7191845  40.4165602  57.3766327   4.8521649  41.1396742  57.9895353
   4.9375092  40.7849503  56.5205669  80.5335617  84.2364407  50.9199524
  81.2011814  84.8363495  50.5873442  81.0304070  83.5097790  51.2958860
  59.6477985  56.4513063  87.6883030  60.5145168  56.8365526  87.8172207
  59.0527391  57.0392752  88.1535339   6.3711796  62.1977404   2.1754892
   5.6340370  61.6190722   1.9805677   7.1338425  61.6193822   2.1844442
  82.4043274  45.7278585  66.9920206  81.8391991  45.2011395  67.5572014
  82.4332809  46.5860033  67.4150848  76.3338184  29.7748899  82.4660492
  77.2155666  29.4726253  82.6837349  76.3715029  30.7246542  82.5790119
   1.0917412  25.2557635  74.6921539   0.2885853  25.0508904  75.1708937
   0.8668934  25.1092577  73.7733459  32.0516071  97.2363356  16.4359625
  31.6793022  97.5418642  17.2631700  31.7114315  97.8455522  15.7807024
  80.6323910  61.7913103  80.4965782  81.5831470  61.8056011  80.6065273
  80.4146671  60.8627892  80.4148483  21.9640694  96.5346315  26.9529016
  22.2561417  95.7286337  26.5271146  22.7240048  97.1152904  26.9134672
 100.4346203  96.5765026   6.7963560  99.6506237  96.8089273   6.2988050
 100.1603292  95.8428982   7.3466451  79.9854931   4.6010200   7.4375970
  80.5809959   5.3071443   7.6885946  80.1184448   4.4992296   6.4951570
   4.4665753  42.7135658  71.0057497   5.2252423  42.1462440  71.1428928
   3.8963925  42.5360203  71.7538118  74.8782429  12.3684541  13.5517175
  74.0646633  12.8567878  13.6776121  74.6734794  11.4815084  13.8477476
  94.3321419  86.0127354  60.2532673  93.4056759  85.7726574  60.2687740
  94.3310928  86.9665337  60.1726675   2.4641666  88.4620479  10.3925569
   3.1998453  87.9809072  10.7713850   2.4390135  89.2847779  10.8811433
  12.7463089  42.4133682  67.9152298  13.0003392  43.0369663  68.5955429
  13.1015049  42.7829409  67.1068478  86.0292229   6.2514869   5.7012518
  85.3253540   6.0766260   5.0765855  85.9799560   7.1941606   5.8599050
  18.3037838   6.5828935   3.5682447  19.2358764   6.5880243   3.3505018
  18.2156500   7.2393123   4.2593153 101.0049438  16.4527047  86.0893631
 100.5976677  15.6026435  86.2559509 101.5124798  16.3222563  85.2883434
  52.0702314  64.6111822  85.1238632  52.8066158  65.1161289  85.4688263
  52.3667479  63.7016916  85.1575851 108.8756752  68.1916809  84.2121506
 108.5108185  67.4991560  83.6612225 109.2471123  67.7293253  84.9634838
  62.0737314  40.7162285  87.0892048  62.9826260  40.6577826  87.3836994
  62.1325827  41.0572958  86.1967754  62.2614765  63.9046431  73.3734131
  62.4489021  63.5191154  74.2292595  63.1180286  64.1668749  73.0360842
  94.5789528  -0.2052417  82.3100281  93.9844704  -0.0535561  83.0447483
  94.9093914   0.6646697  82.0857620  93.1181812  36.3652015  85.7177258
  92.9122734  35.6657052  85.0976086  93.8839912  36.8000436  85.3426456
  65.4643616  28.8642684  17.2017439  65.8216842  28.3482448  17.9244287
  64.7603592  28.3222762  16.8455942  73.8110145  42.3797885   1.9503458
  74.6560463  42.0228378   1.6769750  73.4001526  42.6724140   1.1368425
  26.0661564  79.7317651  35.5968053  26.8701897  80.1793173  35.3332384
  25.6197128  80.3574851  36.1672361   4.6399746  90.8609274   2.8885896
   4.9555121  90.0617769   3.3105238   5.0773439  91.5696409   3.3604677
  45.7731304  90.4202273   8.1284006  45.0217686  90.1373198   8.6495931
  46.4962730  90.4627111   8.7540872  92.4613857  49.8707008  69.1429472
  91.9288158  49.1014957  68.9406443  91.8376732  50.5101013  69.4869995
  19.7028576  61.8684769  77.3653030  18.9314877  62.3151445  77.0164537
  19.7365891  62.1317196  78.2849741   6.3034401  67.3919871  12.3850591
   6.1589871  67.2387984  13.3188207   6.1260996  66.5462461  11.9733579
  99.1946396  12.1088115  15.2827890  98.7206253  12.6862804  15.8811720
  99.7834858  11.6091434  15.8483179  18.0831562  81.0323143  85.0724316
  17.4233376  81.6359520  84.7311211  17.6507794  80.1783466  85.0696945
  94.1259766  32.8154230  74.3484688  94.9928284  32.4973011  74.6006393
  93.8099289  33.2862020  75.1196480 103.6121273  65.8501196  80.7313442
 103.4626293  65.1360416  81.3509941 102.8035927  65.8977938  80.2212238
  42.2467216   2.0492498   9.9581106  42.3776707   2.1890441  10.8959539
  43.1240782   1.8756143   9.6170385  64.9062141   7.5532333  17.6851614
  64.0649780   7.9432622  17.4476011  64.6770080   6.7131893  18.0826814
  16.1395607  94.0146664   9.4499262  16.6780052  93.8220051   8.6823423
  15.7749138  94.8822382   9.2750509  93.7623215  49.9162817  83.7406826
  94.6590996  49.8031807  83.4256840  93.7880898  49.6167469  84.6494389
  96.9773865  38.3718991  79.5014954  97.2608757  37.7676702  78.8153648
  96.3168812  38.9210463  79.0791273  12.8286301  18.8548803  57.9917383
  13.6269985  19.1368306  57.5452471  12.5083195  18.1201422  57.4684858
  94.6437836  64.3471336  71.3337803  94.2527103  63.5184383  71.6104698
  95.2931881  64.5428419  72.0092058  21.3440380  51.3835305   7.1495588
  22.1390686  51.8486573   7.4099786  21.3383255  50.5958813   7.6934488
  93.2480812  41.2857056  67.0984268  93.9997387  40.7695723  66.8071461
  93.3765316  42.1443892  66.6954422  57.6806816  26.5550271  21.1870439
  57.4584755  25.6454841  20.9880788  58.2686313  26.8183223  20.4790743
  25.8138619  86.9440034  20.1932295  25.1520405  86.9035819  19.5028837
  26.6484032  86.8775251  19.7291620  98.2925129  43.0748796  70.0153685
  99.0624809  43.5492229  69.7017145  97.6885605  43.0808735  69.2727757
  99.1954883   8.4893075   0.4258592  99.3692001   8.5882846  -0.5102198
  99.0484127   9.3821851   0.7378919  68.2386494   7.9834366  71.2651348
  67.8960848   8.8772362  71.2661076  67.4605846   7.4286652  71.3205814
  78.7666464  33.9474916  76.0307932  78.3019447  34.7534084  75.8054399
  79.6373987  34.0583634  75.6490469  16.8299233  50.6867027  74.0403366
  16.1208283  51.0207605  74.5897293  16.3921963  50.3722286  73.2493019
  90.7117519  88.4312418   0.9265669  90.6875858  88.2799461  -0.0182955
  90.1057110  87.7846148   1.2882478  19.6069845   0.6109516  14.2194708
  19.7439226  -0.2752503  13.8846166  20.2403625   1.1475841  13.7429292
  51.9294605  65.4613247  25.9774931  52.8459034  65.2232256  26.1177404
  51.9675694  66.2990883  25.5160482  24.7644554  84.7085094  67.8016233
  25.5302750  84.5380783  68.3499765  24.3332421  85.4549217  68.2177401
  72.7012237   2.2316686   9.5282419  71.9867596   2.8681461   9.5025499
  72.8489860   2.0003168   8.6112459  68.1875572  80.7466534   2.8122957
  67.7369080  80.0639108   2.3152979  69.0601502  80.7910684   2.4213560
  38.3610878  80.9002450  -0.0504057  39.2975006  80.7945350  -0.2183573
  38.2964764  80.9854200   0.9007986  93.6219788  46.8239069  83.8782978
  94.0642834  45.9800720  83.9707375  93.1295300  46.9266844  84.6926498
 104.7673486  78.4487560  10.8360155 104.5888351  79.2694190  11.2952287
 104.9802946  77.8265360  11.5315206  81.5434669  82.9060772   9.6828420
  82.3383354  82.6705244  10.1613100  81.8600630  83.3520034   8.8972528
  42.6164326   5.3636543  15.1668222  43.4596952   5.0683729  15.5102594
  42.3243984   4.6485654  14.6015031  16.1973152  89.1786793  29.1408308
  16.5107498  89.6908405  29.8862703  16.2753544  88.2682732  29.4259699
   0.4566418   3.5267392  73.8477087   0.2076184   2.7170351  73.4020662
   0.1585137   3.4054270  74.7491693   8.5481583  46.9155455  80.4253101
   9.4757496  47.1372128  80.5070210   8.4440266  46.6543198  79.5103502
  99.0454483  50.5193949  75.0928545  99.2108917  49.9149656  74.3693018
  99.2794228  50.0235128  75.8774519  67.2330650   7.5728361  15.4933126
  66.6639980   7.3942796  16.2419946  68.0586513   7.8603021  15.8831747
  12.5172768  79.2414215  13.6667307  12.1165810  78.5334351  13.1623132
  11.7769013  79.7077587  14.0548284  85.8387741  13.9867202   5.6556566
  86.5043339  13.2990257   5.6370695  85.6523689  14.1145507   6.5857847
  69.1879463  69.5192814  89.0965176  70.0080299  69.9608040  88.8757038
  68.5155296  70.0156069  88.6298847 107.3790932  34.8893857  33.3909512
 107.9879475  35.5807090  33.1309605 107.6299953  34.6746612  34.2893791
   8.8089310  12.2903419  79.9890995   8.2015740  11.6470635  80.3545475
   9.3174015  11.7997909  79.3433094  77.1588326  54.5161390  85.3703308
  77.8701830  55.1190901  85.5863476  76.4118958  55.0844669  85.1823807
  45.2205833   1.3198987  18.2192476  45.5251201   0.4325715  18.4093435
  44.7937378   1.2488595  17.3654421  34.1850433 100.1936129  18.6452730
  33.6913834 100.4209736  17.8573377  33.5566483 100.2972391  19.3598421
  65.0852728  52.8497219  82.6095676  66.0330153  52.9376793  82.5081635
  64.9763870  52.1213198  83.2209682  42.1069775  96.9360378   2.9494817
  42.0610867  96.8330267   3.9000185  42.9818592  97.2896221   2.7888544
  56.8079838  10.8515874  12.1748502  57.1863350  11.6165296  11.7413290
  56.6514667  10.2275936  11.4660700 104.6069717  64.1589117  52.2874784
 105.5335140  64.3966961  52.3223162 104.5356178  63.5844660  51.5251446
  13.0622326  49.9004412  70.3266335  13.8579499  49.8913336  69.7946739
  12.3590313  49.6991920  69.7091866  75.8919033  15.5424539   6.0511549
  75.3761085  16.2038127   6.5124567  76.7689213  15.9213058   5.9916265
  22.6007210  41.4049816  85.1422596  22.6765286  40.5288267  85.5202007
  23.1026303  41.3590479  84.3284988  14.3694340  68.6189842  62.8890562
  14.8945557  68.3672142  63.6487198  13.4821926  68.7195539  63.2339144
  49.7962459  14.1165153   9.0474470  50.5590900  14.1768829   9.6224649
  50.1574692  13.8731853   8.1950719  85.0227642  44.4222260  72.7256918
  84.7401619  44.8989153  73.5061646  85.3425121  45.1020336  72.1325159
  57.1020302  21.0954086  30.0022943  57.4424156  20.2274505  30.2191217
  57.8740200  21.5966932  29.7396810  79.2142376   9.3139163   4.2866476
  79.2788204  10.2675859   4.2359598  78.6623367   9.1515533   5.0516756
  42.3490509   1.4607946  18.6912019  42.0416769   2.1839038  18.1445177
  43.2860597   1.4012138  18.5049207  94.2248631  76.0998106  88.7181759
  94.4604015  76.7404795  88.0471325  93.6287498  75.4964399  88.2745361
  15.9444866  76.8546632   6.2457712  15.7902298  77.7684095   6.0059793
  15.1005707  76.5484312   6.5778310  78.4215244   0.2906362  39.9730070
  79.3763717   0.2875844  40.0401266  78.2349857  -0.2237805  39.1876371
  87.7396965  60.2525997  81.4176464  88.5852528  60.6593561  81.2283897
  87.2182465  60.9542990  81.8074512  85.7696613   5.2428476  14.9698789
  86.0857948   4.7845165  14.1912706  85.1946815   4.6115819  15.4024656
  39.8143085  35.3636257  16.2363107  40.1001200  34.7295848  15.5786379
  39.0413269  34.9635593  16.6346605 107.2802734  33.8715243  80.0084019
 107.1039677  34.3693519  80.8067226 107.7789688  34.4734883  79.4559717
 101.9509602   5.5200726  77.4075460 102.8479004   5.2124256  77.2768021
 101.5669727   5.5183828  76.5307474  86.8999958  46.0653782  77.3787069
  86.1781502  45.4367733  77.3743057  86.9474411  46.3819218  76.4766073
  51.5778145  36.3272087  60.3329523  52.4593719  35.9557239  60.3001554
  50.9988006  35.5663291  60.3780801  45.9482750   4.5553056   1.5983732
  46.2645038   3.7935726   1.1125810  46.6476425   5.2028695   1.5101679
  64.0798832  93.2647203  53.9135075  63.6527897  92.9476010  54.7092819
  63.6896111  92.7467166  53.2095242  94.0842724  45.6545448  64.8114204
  93.8688183  46.3950157  65.3784370  93.5795116  45.8094454  64.0130138
  46.4486393   2.1912757   0.5219324  45.7737144   1.7080966   0.9986360
  46.8279537   1.5466157  -0.0753729 104.5977879  75.8908176  75.4917669
 104.3383598  75.7756853  74.5776129 104.2268085  75.1327229  75.9433174
  35.5407772  90.2480557   6.2422998  36.0749683  90.9341171   6.6425474
  35.6019268  89.5114520   6.8504961  28.9570745   0.5831853   0.2780588
  29.5436844   1.1700431  -0.1991408  29.5425686   0.0025979   0.7642133
  75.0785812   0.2631513   4.6078355  76.0080704   0.4190723   4.4405515
  74.7283825  -0.0242337   3.7646253 102.2959900  80.4791451  87.4217319
 102.0601273  79.8329735  88.0873585 101.5042305  81.0046673  87.3069191
 106.1594868  69.4121933  78.6890030 106.1593151  70.1783848  79.2627430
 106.8554974  69.5873833  78.0556679  62.2556099   5.2720872  46.7915971
  62.0522293   4.5437089  46.2048013  61.4024910   5.5731145  47.1043260
  49.8932896  82.0133522  10.7138784  49.8298798  82.1317747   9.7661550
  49.7771607  82.8928140  11.0734518 103.4563541  32.8369665  54.9628210
 104.1381264  33.5086608  54.9469090 102.7652264  33.2101035  55.5099344
  83.9783478  26.1517715  86.1987591  84.3882561  25.3474855  85.8804417
  83.0842876  25.8928061  86.4219761  23.1463490  89.6373012  22.0509203
  22.8196201  90.3338912  22.6203401  24.0618000  89.8674157  21.8920763
  97.8872036  89.5085838   9.8750932  97.9246401  90.3013542   9.3399866
  97.9205774  89.8267653  10.7772501  12.3489701  23.6995292  83.3281136
  12.2473847  22.7763677  83.5598183  12.2150074  24.1692257  84.1513252
  22.8094540  95.2722099  23.1992967  23.1300221  94.9239138  24.0312536
  21.8603478  95.3251675  23.3116014  20.7513962  86.7864206  13.0700548
  20.2544174  87.4019721  13.6088903  20.8910904  87.2497085  12.2441728
  85.9676743  49.0116930  67.3787165  85.9932423  49.0537214  66.4227819
  86.8296909  49.3226194  67.6552773  11.3415871  67.9449466  17.9127939
  10.4216633  67.8930989  18.1721933  11.5431080  68.8805225  17.9306657
   1.3253914  62.8078556  77.0197821   1.1999260  63.6069822  77.5315285
   2.1748673  62.4715185  77.3052549  65.9595665  41.5141670   2.6951463
  66.7742904  41.0929958   2.9691465  65.7285293  41.0780326   1.8749960
   1.2324724  52.3602992   4.9742468   1.0125361  51.7749882   4.2494924
   0.7175646  52.0324882   5.7115705  63.8936886  24.5907155  27.6999719
  63.2451519  24.5277587  26.9987829  64.6770080  24.9357072  27.2714670
   0.2218828  99.8524502   9.7878702   0.3751955  98.9473703  10.0590856
   0.3458557  99.8423651   8.8387926  95.4492855  56.0214663  79.3556213
  94.7016430  56.5285778  79.0392399  95.1407242  55.1153660  79.3570805
  63.3417305  10.1366130   5.4557569  63.6606964   9.4648925   6.0584886
  63.6143001  10.9637538   5.8529718  41.5108166  63.6879197   4.0323789
  40.5539665  63.6658469   4.0194757  41.7417202  64.4081095   3.4456499
  11.8229351  90.2303079   4.7467859  11.9238720  89.2784527   4.7504194
  11.0251484  90.3884890   5.2515180  27.8041897  77.9340222  20.2495058
  28.1098518  78.7248066  19.8051317  27.0627747  78.2280686  20.7787283
  10.0126801  99.8939922   2.1639211   9.4182739  99.1540506   2.2880132
   9.8129997 100.2168634   1.2852152  71.2941990  64.8737219  49.6909769
  72.0043526  65.5053094  49.5769270  71.7377815  64.0422454  49.8586519
  20.9852921   1.0633403  88.4965229  20.8005463   1.2963702  89.4063568
  21.0440098   0.1079544  88.5011578  45.1140461  63.7244573   6.9658525
  45.0758324  63.1196573   7.7067907  44.6325359  63.2795194   6.2684209
  53.2867107  81.5171721   2.3291357  53.1740437  82.3582867   1.8863447
  54.1912994  81.5303805   2.6418264  88.0185223  49.4723272  81.1531925
  87.5884151  49.1762543  81.9554329  87.4303246  49.1964149  80.4502487
  91.2748146  45.0117111  55.6186581  91.9361019  44.5333958  56.1187935
  90.6151295  45.2572298  56.2673235  27.2218285  77.5930956  37.2382028
  26.7418156  78.0985907  36.5822370  28.0491219  78.0627492  37.3442419
  84.6121311  65.3073502  83.1507683  84.6399784  65.7345295  82.2946358
  83.9578056  64.6157122  83.0521774  98.2931503   9.4348709   7.4968012
  98.5629352  10.1307670   8.0961187  98.8842090   9.5204965   6.7487772
  17.4633083  66.6961494   3.1949194  17.9975948  65.9084800   3.2966287
  17.9195271  67.3629513   3.7082155  15.4915558  52.6913357  62.5488758
  15.5917298  52.0270824  61.8669939  14.5457684  52.8199863  62.6208305
  84.2908764  41.4090729  63.8372755  84.1414928  42.0469713  63.1394243
  84.3403912  40.5667734  63.3852625  43.8808998   5.5116884  31.9020994
  43.1130060   5.3720704  32.4562509  43.8975509   4.7519676  31.3200529
 105.8438969  25.4038048  84.6321297 106.3323307  26.0920835  85.0837135
 105.2210999  25.0843072  85.2850342  16.3856446  57.8404856  71.8283987
  15.9274517  58.6532688  71.6146612  16.4417683  57.3711729  70.9960365
 106.3307095  45.7170057  66.7160463 107.1809864  45.2792120  66.7559767
 106.4392567  46.5006495  67.2548866  84.7351837  53.1771088  55.1468039
  85.3197002  53.9252710  55.0250435  84.2544174  53.3770037  55.9500074
  69.2465258  41.0429382  85.5546665  69.5101500  40.7419109  84.6851158
  69.0297890  41.9672537  85.4326344  73.2944568  26.4405719  18.9352090
  72.7926239  25.6266300  18.9786871  73.8918194  26.3938085  19.6816690
  83.2762241  44.4143295  64.9655104  82.8448868  44.8523045  65.6992388
  82.6600838  43.7324429  64.6978617  26.0308991  70.6807592  13.8646848
  25.0817642  70.8035889  13.8474424  26.3725529  71.3751760  13.3014066
 106.2525558  37.4690270  36.0513926 107.1157455  37.8339720  36.2461853
 106.0194778  36.9731736  36.8362737   4.9069821  40.4432631  82.5304127
   4.0604340  40.7255507  82.8766823   5.5512844  40.8782959  83.0888557
  12.0733677  49.4883108  84.8052502  12.1103417  50.4207945  84.5923328
  12.3662316  49.4386101  85.7151890  42.1548710  93.6255911  25.3878172
  42.3614082  94.5198133  25.1159055  42.0575771  93.1422117  24.5673807
  91.8243885  37.8018951  80.5286694  91.8848038  36.8646908  80.3436565
  92.3388672  38.2164168  79.8360538  97.1386147  75.4433346  59.9089003
  97.7064896  76.0924721  60.3240824  97.3251247  75.5251932  58.9736223
   6.2316929  33.1646299  48.1887436   6.2282215  32.6509500  47.3810625
   5.7913243  32.6063466  48.8295507  17.9625759  99.2821196  22.1920545
  17.0464192  99.5206097  22.0505579  17.9654274  98.8333633  23.0375345
  69.3864330  10.8086244  12.8542478  69.6543964  11.7202321  12.7384813
  69.2240032  10.7241908  13.7937791  74.5784187  49.1715956  60.6702232
  74.7867680  48.2416439  60.5807066  74.2210484  49.4201183  59.8177242
 102.1709156  46.9059134  58.3845091 101.4507389  46.3132620  58.5997677
 101.7471313  47.7486277  58.2218122  22.6703297  24.9969268  88.1511021
  22.4655377  25.8525467  88.5282135  22.1112286  24.3844652  88.6291599
  56.7783985  98.2798460  17.9398592  57.5420628  97.7047565  17.9879530
  56.1686859  97.9228714  18.5856588  35.2622185  79.0608433  27.8261049
  35.6060276  78.1689408  27.8764780  35.5278835  79.3714073  26.9605405
  79.2215332   2.1823875   8.4735735  79.8772034   2.8724710   8.5741670
  79.2865833   1.9223014   7.5546892  91.1454487  33.4046650  68.6209202
  90.4837132  32.9027843  69.0967941  91.9731331  32.9752755  68.8372421
  20.2168881  91.5423107  80.5776405  20.2116619  91.8117332  79.6591568
  19.8294388  92.2815418  81.0462952  62.4854279  74.3310070  74.6816540
  62.4534798  73.6650944  75.3685093  63.3411026  74.7460890  74.7900915
  13.5800442   5.8348361  11.7558153  14.3574795   6.3683597  11.9206865
  13.8986667   5.1049224  11.2248380  55.3497467  92.9607418  18.8566930
  54.4599018  92.6680544  18.6598928  55.2434406  93.5840300  19.5753343
  91.3097954  68.8836002  78.5289288  91.8970203  68.8255024  79.2826080
  91.8827438  68.7746048  77.7699327  36.4651451  89.8784831   1.2084921
  37.3966847  89.7203758   1.0553129  36.4098415  90.1027086   2.1374185
  73.4411383  18.3409667  74.5150280  73.6659527  19.1295350  75.0088358
  72.5411320  18.1441498  74.7748041 108.9299415  83.2136920  17.1781404
 108.1024002  82.8705337  17.5152643 109.0202354  82.8141263  16.3130243
  57.7583393  35.7989684  14.0480955  58.3473190  36.3222209  13.5044534
  57.7631649  34.9325935  13.6411436  20.7499253  70.3824472  88.9981365
  19.8539864  70.2155638  88.7054253  20.8147942  69.9314594  89.8399353
  87.9665645   6.7254249   3.5074098  88.7282261   6.2214605   3.7939699
  87.3516735   6.6668073   4.2386491 106.0653210  39.7738218  69.1350603
 106.6339016  40.3075457  69.6901178 105.7002640  40.3917933  68.5017538
  50.9853062   1.4944593  13.5417421  50.8302673   0.5766670  13.7650259
  51.5219959   1.8284599  14.2605264   4.0558754  43.8433838  59.6988869
   4.7147404  43.2023096  59.9656200   3.2384621  43.3465195  59.6643353
  46.2664398  10.1031629   7.9314287  45.7157692  10.8855478   7.9609926
  46.8799480  10.2689830   7.2156484  10.3346955  80.4369354  71.1706591
  11.0058247  80.5686092  70.5009699  10.0363957  79.5372534  71.0371685
  80.3260708  30.8052874  75.5123425  79.5484877  30.3387642  75.2058268
  80.4185772  31.5405726  74.9065113  20.7972679 101.4873484   0.5382211
  20.0084553 100.9625414   0.6745393  20.5169258 102.3879316   0.7012804
  74.6037922  93.9425066  24.9809034  75.3233872  94.5370462  25.1928861
  74.4301758  94.0980413  24.0525205  56.5834602  12.4155942   8.1348474
  57.1452602  13.0339948   7.6677377  57.1886429  11.8911258   8.6591680
  79.9106773  26.1747543   3.0405386  80.0788864  25.3026620   3.3974512
  79.0248283  26.3870851   3.3344896  49.2244968  98.2237461   8.8476427
  48.6903153  97.4336508   8.9290865  48.6699543  98.8394335   8.3684213
  81.8710693  23.1546537   2.8600843  80.9891208  22.7940074   2.9513605
  82.4364742  22.3867265   2.7773149   8.2899914  94.8627022   5.8636434
   8.3958397  95.7611492   6.1764104   7.3718605  94.6551969   6.0374410
 107.1084118  61.8359184  85.5971622 107.4269772  62.7359390  85.5284691
 106.3409901  61.8092108  85.0257015  96.7433739  35.5204082  78.3425140
  97.4569416  35.3265524  78.9503574  97.1605587  36.0048151  77.6300955
  98.6986431   1.8637554  25.1416929  99.5574745   1.7354909  24.7389562
  98.5156139   2.7958671  25.0237711  78.8019657  53.6269045  73.5476637
  79.5448828  54.2291498  73.5877371  79.1661310  52.7798796  73.8048887
  67.5494655  33.0199329  18.3224352  67.5554069  32.4068157  19.0574701
  67.9734978  32.5428192  17.6091344  43.6175140  11.9914762  25.0656278
  42.9411539  12.0769588  24.3937166  43.2423815  11.3888685  25.7077844
  24.3692910  37.6725769  87.5416279  24.7982060  38.4750414  87.8388023
  24.1859566  37.1870255  88.3458996 106.5426525  22.0231000   6.7684419
 107.1224865  21.4785186   7.3008592 106.8568119  21.9024936   5.8723409
  41.4108810  77.7372148   8.4117086  41.9432030  77.9207638   9.1857774
  41.8837128  77.0411899   7.9554136  79.2980146  75.9508657  44.4400787
  79.6741819  76.8161297  44.6014643  78.9341736  76.0088587  43.5566282
  98.8958168  41.5809011  79.8792648  99.2747021  41.9357586  80.6834793
  98.2061863  42.2020149  79.6450281  57.5009403 100.0884798  22.1538980
  57.4934731  99.6482923  23.0038412  57.6472530 101.0109833  22.3632105
 104.7992802  55.0544310  68.3637762 104.1856575  54.3276739  68.4711361
 104.2418098  55.8201361  68.2253742  62.9740604   7.5022975  20.7712133
  63.0783924   6.6779367  20.2960451  63.7357506   7.5435058  21.3494451
  13.3881222  72.5492620  70.7006884  14.0418278  72.8798866  70.0845766
  13.9015232  72.1667814  71.4122772  98.5420799  52.2555733  84.3102264
  98.0385876  52.1965981  85.1221752  98.1840134  53.0214882  83.8614559
   8.3364044  86.4792633  67.2849464   7.6208721  87.0790005  67.0738745
   8.2796608  86.3630867  68.2333755  18.2399594  92.6216698  71.8756342
  18.9417588  92.0188999  72.1213675  17.4361264  92.1174908  72.0016575
  87.4543556  28.6682598   2.7463110  87.9070934  28.0683700   2.1535261
  87.5905403  29.5338718   2.3610742  73.9963436  85.4859543  85.8889294
  74.0759706  84.6787643  86.3971996  74.7642326  86.0012722  86.1359596
  19.9324642  83.9334965  79.7284222  19.6938359  84.3359470  78.8933659
  19.6720253  83.0170822  79.6357250  99.9846363  64.9454212  59.2909861
 100.2583885  64.6899271  60.1719046  99.1845894  64.4439411  59.1339111
  97.3675728  68.8661909  87.6762772  97.5094891  68.7748671  88.6184788
  96.9971657  68.0255604  87.4072647  26.8800434  29.1423313  43.7773473
  27.7903017  29.1346351  43.4813650  26.6160425  30.0603668  43.7161501
  80.1040062  36.5759937   2.3790891  79.7243866  37.3535720   2.7883394
  80.4865726  36.0851470   3.1063707   7.3894059  38.6953354  84.4320107
   8.1135784  38.3048201  84.9211979   7.8045784  39.0946460  83.6675358
  36.4097271  87.7692845  32.3728998  36.9201908  88.4814456  31.9875581
  36.2502632  87.1680191  31.6453798  91.2902260  68.1788540  69.2131329
  91.8906975  67.5528955  69.6179104  91.8593788  68.8623571  68.8594151
   3.7537991  70.6911755  69.4538975   2.8748452  70.4151201  69.1941595
   4.2197071  69.8735380  69.6289349 103.6134434  57.1687412  77.3125267
 102.8757763  56.6786671  76.9493437 103.5132122  57.0847225  78.2607460
  30.5532608  78.0468181  48.0793722  30.6630097  78.9976576  48.0699403
  29.6343670  77.9094794  47.8491743 100.3787613  57.2246170  81.0901070
 100.5122662  56.8903160  81.9770432 100.4958630  58.1711960  81.1707783
  33.1544002   8.0832902  10.6215246  32.3082479   7.6532308  10.4978140
  33.6308655   7.5070278  11.2191255  66.9656849  83.8009357  85.0536823
  66.7100811  82.9585648  84.6777916  67.4998569  84.2138004  84.3751335
  86.4294910  71.5790129  82.1032143  85.5357265  71.7232227  81.7923641
  86.9157124  71.3172960  81.3213348 106.7178631  78.9582348  86.8652344
 106.1155510  78.3001566  86.5182686 106.1549473  79.5754337  87.3325825
  94.1095257  32.2458935  88.9505291  94.1331291  32.8661418  89.6792030
  94.3642044  32.7637482  88.1868553  84.3152222  20.5250827  20.3070791
  83.7294945  21.2740795  20.1968248  84.3026909  20.3476421  21.2476022
  74.8575115  48.0570412  84.5381069  74.4574165  48.5779905  83.8418579
  74.9307871  47.1776342  84.1672897 102.7528271   5.7943813   5.6344755
 103.3326992   5.1003066   5.9479196 103.2695183   6.2591020   4.9762209
  13.8963639  75.8617067  73.0514479  13.0581127  75.4370594  72.8690958
  13.7971436  76.7473936  72.7022362  67.1298107   5.9994356  13.1288965
  67.3390182   6.6125194  13.8335951  67.9359516   5.4999963  12.9987581
  15.9420906  69.5217180  72.7675581  15.8032833  69.6745110  71.8328857
  16.2535797  68.6180735  72.8188610 105.3575325  39.7292733  86.8801308
 105.1177216  40.6558514  86.8667984 104.6003532  39.2914820  87.2690582
  37.0244249  33.8634673   4.5547159  36.2166103  34.3166248   4.3132551
  36.7439445  32.9754058   4.7758825  71.4430317   9.0898363  29.7592313
  71.4806351   9.4408647  30.6489523  72.3078235   8.7050191  29.6168287
  12.0599686  60.1995373  45.1575327  12.1387516  59.2478991  45.2239323
  11.3303601  60.3379059  44.5535803  64.9049648  38.4531108   5.9108408
  64.8800262  38.1077281   6.8032034  65.4026684  37.8022663   5.4159315
   8.6846577  79.3729448  46.8392277   8.5107361  78.8794136  47.6407337
   9.5999752  79.1820812  46.6342783  52.2980270  98.2116726  31.6341646
  51.4461956  98.2924345  32.0632322  52.3515568  97.2905233  31.3795049
  36.2595615  81.7371276   7.0436914  35.7428322  82.1051004   6.3268812
  36.3414059  80.8082178   6.8276746 105.2309895  58.9914942  44.4950294
 105.2055550  58.5731602  45.3555965 104.4470501  58.6704540  44.0493917
  68.9743694  13.1868688  24.5918710  68.0738052  12.8625146  24.5944746
  69.4804462  12.4919502  25.0128420  76.6057094  27.2531454  -0.0574820
  76.0142025  27.8619424   0.3849180  76.4921841  26.4260236   0.4107340
  11.7330586  41.8304348  77.1008587  11.1849438  41.0457039  77.0988274
  11.8786942  42.0184612  78.0280399  46.5910515  41.6422931  37.1146734
  47.5131496  41.8597785  37.2513254  46.1292061  42.1083633  37.8115900
 107.2896465   7.2893659  11.6143949 106.6089424   7.9622785  11.6223867
 106.8654713   6.5151826  11.9844587  63.2146629  13.2454196   8.4049661
  64.1341289  12.9819242   8.3676775  62.8646549  12.7861158   9.1683633
   2.3037659  67.7707481  88.8848972   2.7567803  68.6130667  88.9237785
   1.6809880  67.8667736  88.1643677  57.7972492  12.8956119  10.8139093
  58.6058315  13.3928529  10.6907041  57.2376236  13.4731952  11.3329847
  60.1717171   3.0851165  28.4245260  60.3092846   2.3135654  28.9740904
  59.3604645   3.4720842  28.7537153  76.1731609  29.4796745  32.2297914
  76.1764892  28.6869995  32.7663381  76.9635376  29.4098083  31.6943796
  81.9442081  49.2010975  88.8640213  81.9783497  50.0843716  88.4967327
  81.6250896  48.6550951  88.1454945  99.8321247  18.0470872  81.9997883
 100.1615334  18.9451671  81.9655037 100.6001186  17.5034130  81.8241882
  58.4580612  24.9970627  72.4085569  58.2381344  25.6698108  71.7641401
  57.9859400  24.2186761  72.1128416  45.4048039  97.5974118  47.5330162
  46.2197090  97.7453338  48.0128908  44.8245598  98.3010103  47.8237200
  84.8946190  20.7593703  53.4060764  85.2509499  21.6246557  53.6074400
  84.2281055  20.6126952  54.0772486  97.1949196   7.3891246  81.4814281
  96.3548756   7.5144041  81.9228745  97.0901108   7.8290337  80.6377888
  83.9883900  24.3124628  72.1404696  83.2573414  23.9632344  72.6502085
  83.6451626  25.1155210  71.7486429  39.5644022  88.8780593  80.8846951
  39.5996453  88.4704231  80.0193501  39.8786761  88.1994187  81.4821148
  35.2697111 102.8025856  71.3415241  35.2384735 102.0401587  71.9194221
  36.1706234 103.1185646  71.4103794  94.0540695  16.9670296  69.3006468
  94.0417671  17.7313209  68.7245083  94.9795628  16.8386352  69.5084858
  24.3607864  56.0803860   9.4016321  23.7861500  55.6848272   8.7462289
  24.0025005  56.9577655   9.5360429   9.1599022   2.2932094  46.1759806
   8.6714684   1.6361341  46.6718817   9.8702847   1.8023239  45.7629299
   8.3541927  48.1172770  22.7132566   8.9126835  47.7893311  22.0084341
   8.0392513  48.9634082  22.3952825  30.3324152  89.6541130  50.5716991
  29.7053887  90.3523480  50.3831959  29.8107983  88.9711677  50.9932899
  44.5178105  97.5194340  58.3393145  44.0791966  97.1953582  57.5526571
  44.0975548  98.3605545  58.5185623  60.1808525  85.2140771  71.5351439
  59.2312123  85.2938496  71.4454365  60.4582382  84.7523951  70.7438517
  93.0563759  80.3889063   0.1257665  93.8327526  80.0198963  -0.2952998
  93.2684206  81.3139489   0.2505357  45.6406841  50.5899486  17.8896673
  44.9042473  51.0027261  18.3407934  45.4380760  50.6896789  16.9594915
  84.3889141  26.6215420  28.3606791  85.0279045  27.1287751  28.8613200
  84.2705917  25.8182693  28.8676167  93.4851551   4.2284554  84.9344540
  93.2159996   4.0374824  84.0359402  92.8956318   4.9273753  85.2176476
   7.6102791  49.1928118  11.1227567   8.5280571  49.3141334  10.8794649
   7.1622572  49.9544695  10.7548006  61.1161972  90.3433000  61.8599987
  61.3672043  89.7846686  61.1243629  61.7178131  91.0863077  61.8126965
  16.6962490  38.2839694  22.8229578  16.0205803  37.6191035  22.6900823
  17.3759708  38.0654552  22.1854170  84.8233509  42.7120447  84.7840977
  84.1840553  42.5247860  84.0967369  85.4431534  43.3169127  84.3763924
  36.3894520  58.1903955   2.0842416  36.1046562  59.0615395   1.8081434
  37.2814331  58.1116345   1.7460115  59.5578552  91.6736495  71.4757013
  58.6526371  91.3764643  71.3835621  59.8834873  91.2133919  72.2492409
  13.6362110  21.7219377  73.5672855  13.8855873  22.5548410  73.9676809
  12.6845394  21.7741823  73.4787464  81.7835712   8.6460072  83.4595203
  81.2038803   8.8519472  84.1928482  82.3803902   9.3926603  83.4089851
  51.6407276  93.3160805  63.4266853  51.5294243  93.0424803  64.3371725
  52.5430752  93.6320346  63.3801413  66.6662455   6.6624951  78.9260817
  65.9824562   7.3096240  79.0989637  67.0326042   6.9212455  78.0804729
  76.0991049   6.2236178  77.5840807  75.8086538   6.3705814  78.4842300
  76.9649696   6.6295516  77.5425005  40.6313572  82.5244143  24.2260130
  41.4067421  83.0654695  24.3752439  39.8960171  83.0883983  24.4656522
  12.3053227  74.4620684   4.9336298  12.9351387  74.9391177   5.4739912
  12.3323784  74.9059155   4.0859850  51.0609509  80.4853593  84.8376274
  50.8015419  79.5661532  84.9008369  52.0146157  80.4602467  84.7593021
 104.9217415  45.2381611  72.6027346 104.6916485  44.5902824  73.2687283
 105.3094578  45.9611940  73.0958176  37.6266251  52.0323792  15.2945383
  36.8569336  52.5435239  15.5446298  37.7025662  52.1608265  14.3490369
  21.2125645  41.6704395  11.4783437  20.6387863  40.9201363  11.3232191
  21.9365559  41.5493610  10.8640058  84.7749615   4.3393391  78.3052731
  85.4780006   4.6579984  77.7392149  84.3233490   5.1318288  78.5955238
 100.2592014  68.9159789   2.7343233 100.3605388  68.5234824   3.6014516
  99.8773311  69.7770849   2.9043348 106.9878887  21.3315156   4.0078027
 106.2001680  21.4452866   3.4760244 107.5340723  20.7304123   3.5012586
  63.5075426  25.5580807  85.7031822  63.2564306  25.2925825  84.8184872
  64.4089794  25.2506423  85.7987213  73.2699760  20.8079378   1.8855913
  74.0879997  20.4484502   2.2288664  73.0385193  20.2270070   1.1608942
  88.9660645  16.5327704  63.1027508  88.4119511  15.8769965  63.5260105
  89.8192596  16.1070967  63.0185556  66.8109013  93.1476819  53.6095333
  66.7482926  93.3692514  52.6804352  65.9636856  93.4033417  53.9743519
  52.7870560   6.3047135  86.8905735  53.1692791   6.4944768  86.0337639
  53.1374073   6.9853729  87.4651909   4.1687809  22.1923375  64.9415970
   4.9093663  21.6442728  65.2012062   3.8821160  22.6083827  65.7545900
   6.4817581  73.5803082  17.5945718   6.4671669  73.0569413  16.7932565
   6.1343298  74.4322613  17.3305566  69.2830275  84.1179350  23.4161337
  68.7524294  84.9127534  23.3617170  69.0334247  83.6100128  22.6441534
  32.9963646  66.0476914  10.5347593  32.0552311  66.0286632  10.3611810
  33.2318173  66.9737080  10.4774244  88.5669781  95.0968533  72.4219370
  88.7703491  95.3996729  73.3069086  88.3114125  95.8896362  71.9503355
  88.6985302  39.5854783  80.1019764  88.6400223  38.9096045  79.4266987
  88.6213207  40.4103613  79.6225643 102.5184917  12.1069229  64.2342567
 101.9416523  12.4425161  64.9204540 102.3508835  11.1646187  64.2200994
  88.5875416  28.3986068  60.4896975  89.1436195  27.6264095  60.5932617
  89.1922569  29.0975714  60.2406979 107.7805017  71.4222601   1.9605978
 108.3344864  72.1658638   1.7231424 108.3974289  70.7186439   2.1619852
  91.1727499  64.4157222  12.2629125  90.6443189  64.4307783  11.4649351
  91.6385101  65.2519467  12.2575624  62.0514752 101.8116914  60.6962872
  62.3916126 102.4287191  60.0483513  62.1271874 102.2745918  61.5306854
  69.2630752   1.5496436   0.6854494  69.7012409   1.7130796  -0.1497309
  68.3324989   1.5122119   0.4644163  78.0458021  23.8700032  72.5841713
  78.6315489  24.5953298  72.3672915  77.4977446  23.7640119  71.8065929
  88.3334087 102.1083048  38.7555654  87.6247143 102.7043703  38.9978273
  88.3794903 102.1663406  37.8012426  42.3339010  93.9107232  87.0865631
  42.0986058  92.9830300  87.0706844  43.2647110  93.9179485  87.3096561
  93.4338951  39.0827036  78.4028482  93.4365845  39.2911577  77.4686241
  93.0110931  39.8360276  78.8151217  40.4005028  97.8862458  84.1045761
  41.0141064  98.3402978  83.5270309  40.8641268  97.0918452  84.3695545
  55.2262974  31.4820480  63.7435722  54.5388317  31.8585777  63.1941700
  55.9192133  32.1424222  63.7464046  30.8598862  58.2104268  25.3422983
  31.7868576  58.4027937  25.4835374  30.4581127  58.3220771  26.2038858
  89.8531151  26.6869855  70.6915522  90.7809830  26.5782595  70.9000826
  89.3938828  26.2389636  71.4019156   0.4138600  13.0578029  66.1437178
  -0.3981365  12.5517464  66.1153316   0.8502041  12.7657938  66.9440699
   9.2644272   2.5982788  17.7777155   9.4565353   2.1913126  18.6225279
   9.6186028   3.4843805  17.8526647  83.7306570  64.6881977   1.1834676
  83.2407116  64.6824291   2.0057542  83.6826776  63.7851468   0.8697374
  83.6862065  85.4176008  80.0881195  83.7713982  84.5035266  79.8171186
  83.5061718  85.8922290  79.2766142  62.4361683 101.7889295  73.7559366
  62.4326397 101.9673344  72.8155184  62.9607273 102.4958577  74.1318655
  35.5728365 100.5790532  40.6412315  36.0672976 101.0803715  39.9928355
  36.1164786  99.8106908  40.8153200  97.0041943  63.2279921  60.8977461
  96.7291641  62.3434162  61.1388206  97.8201199  63.3646917  61.3791990
  15.0519787  29.9679708  62.2464371  15.0028168  30.7563519  61.7058134
  15.9835278  29.8706484  62.4438715  93.2636070  27.7950716  78.4659338
  92.9726791  26.8889189  78.3635521  92.9858017  28.0374646  79.3492794
  49.4058514  28.6230421  84.8207664  49.5671511  28.9978385  83.9548969
  49.7715950  27.7398515  84.7713852   4.8642263  45.6552163   5.4717977
   5.2440605  45.1889297   4.7271211   4.0669642  46.0541048   5.1232393
  54.0633370  64.2744361  73.7791252  53.2247711  63.9086877  73.4976006
  54.0512825  64.1947352  74.7329283  80.5182384  80.7890680   5.6812437
  81.3495420  81.2518838   5.5764921  80.7456039  79.8640325   5.5871828
  71.4125299  30.1832628  80.8029270  70.7206726  30.5182362  81.3733292
  70.9604788  29.5948172  80.1982689  76.2082148  26.1609411  62.5153446
  76.1165905  26.4164901  61.5974522  75.3469849  26.3289022  62.8978395
  65.5768299  38.2284665  78.4405422  65.8096027  39.1224647  78.1899214
  64.7700739  38.3239937  78.9467573  76.4763546   4.1417336  88.3533001
  75.6927919   3.6168388  88.5168552  76.1699486   4.8657876  87.8073215
   0.7731924  38.5919955   4.8230512   0.7641850  38.3720484   5.7545908
   1.5512142  38.1519702   4.4805677  17.9439602  73.6316302   1.1325891
  18.5022602  73.6615613   0.3556497  17.0518646  73.6744955   0.7882650
  19.4401035  77.3814371  18.1182153  19.6761665  78.0720356  18.7375600
  20.2521191  77.1943143  17.6472051   5.5188595  20.0909686  60.4751205
   5.9494435  20.3165197  59.6505260   5.1493012  20.9173346  60.7862091
  14.7727143   2.2826453  88.4344673  14.4221150   2.6004660  87.6024246
  14.0396630   2.3533601  89.0459061  93.6269354  64.9737432   5.3771169
  93.3163284  64.1778341   4.9455125  93.0343031  65.6597259   5.0697858
  93.2929420  28.7523794  81.2492466  92.6579094  29.1877103  81.8179703
  93.2082653  27.8231668  81.4628410  79.6998501  14.1510749  78.1428051
  79.1241980  14.5517802  77.4914265  79.6952963  14.7654963  78.8767624
  34.3994213  91.6396343  65.1826859  35.2713181  92.0303153  65.2409458
  33.8002230  92.3854445  65.2136803  45.2001143  45.9507895  65.7367659
  45.9949684  46.3380623  66.1034584  45.4090452  45.8033943  64.8143482
  58.6632061  22.2322655  78.9351273  59.3039036  21.9416904  78.2860470
  58.1787205  22.9318857  78.4969139   6.7035637  82.0843485   8.8127382
   6.9668207  81.1727479   8.9388807   5.7849846  82.0339802   8.5483320
 104.1942024  24.3133664  86.8596554 104.7847652  23.5962677  86.6289139
 103.5890388  23.9303493  87.4947166  64.0080627   7.5020734  23.8808687
  64.5229706   7.0233909  23.2312830  64.3846210   7.2442476  24.7222765
  15.4993210  74.9123481  17.4762495  16.3073502  75.2874377  17.8264291
  14.8110828  75.2469471  18.0512293  13.5288296  80.0818088   0.1619299
  13.1516323  80.9225252   0.4210622  14.2320309  80.3118041  -0.4453890
  22.4674059  93.5342883  77.2641373  23.1131817  94.2072730  77.4793005
  22.7372051  92.7713036  77.7753067  15.5518684  46.4656743   4.8113783
  15.1807270  46.3197091   3.9412172  16.2815533  47.0670858   4.6627386
  48.1179310  79.1640030  56.6809654  48.2849575  79.7385799  57.4280882
  48.2502724  78.2802903  57.0241451  99.4459057  24.5654631  84.7488117
  99.1028690  24.4880486  83.8585567  98.7900352  25.0848556  85.2138901
  64.2672253  37.5086212  82.9802990  64.6489954  38.0437899  83.6760521
  64.7210407  37.7895236  82.1856976  97.6211929  19.3679678  79.4464874
  97.6923847  20.2508497  79.0836048  96.8471146  19.4017196  80.0085258
  86.1619257  33.1790355   2.0599992  85.8029102  33.5286215   1.2444456
  85.3932213  32.9853681   2.5964887  67.7907753   8.2672203  87.1735096
  67.4849844   8.4761238  88.0561733  67.0740843   7.7663296  86.7840290
  93.5872078   8.1374550  86.2321281  94.0163422   8.9770418  86.0672951
  94.2173958   7.6456481  86.7586327  25.2703629  72.2637418   0.3857668
  24.3355331  72.1493009   0.2148111  25.3996906  73.2121637   0.3847463
  20.5700566  99.6923619  55.8153391  20.2907873  99.1508417  55.0770998
  20.4249026  99.1417118  56.5847158 106.0724710  74.5886853   2.6626165
 106.9756101  74.5238784   2.9730566 105.6443046  75.1699880   3.2910974
   3.2566773  12.6962948  54.7392130   3.5134541  13.4849918  54.2614555
   3.3554303  12.9322135  55.6616163  69.0988423 102.0732307  84.0561104
  68.3016373 101.6977902  84.4299316  69.7731854 101.9080829  84.7150707
   0.1468693  10.1173985  39.9154949   1.1021458  10.1451409  39.8615003
  -0.0669635  10.6740558  40.6642532  48.7775112  67.4125873  64.6031094
  48.4840180  67.0580923  63.7638044  48.7078072  66.6768204  65.2114058
  25.1394425  96.0328224   9.9594934  24.3269119  95.7927206   9.5140989
  25.7984123  95.4461077   9.5883424 104.8306535  24.9626449   4.2754896
 104.5886968  25.6391313   4.9079855 104.1868614  24.2672756   4.4104631
  80.4614830  48.8037205  79.1583014  80.1023006  48.9351845  80.0357628
  81.2162781  48.2304239  79.2918873  96.0156155   5.6255347  78.6356211
  96.7523384   6.2041402  78.4389114  95.3006172   5.9544706  78.0908251
  62.0443321 103.0215211  81.5678596  62.8070236 102.5811736  81.9428539
  62.3345257 103.3070344  80.7015419  78.2836819  37.7719903  62.1779537
  79.1309690  38.0506086  62.5253820  77.7340412  38.5538197  62.2315216
  89.3303608  57.8384426  12.2028501  89.0115284  57.9387012  13.0998094
  88.6535381  58.2444611  11.6612871  23.9612732  58.4786722  39.5037992
  24.4137249  58.2876792  40.3254087  23.8795052  57.6282677  39.0721090
  43.7501202  62.4946359   4.8701341  42.8942928  62.8611877   4.6477850
  44.1501293  62.2903755   4.0248544   9.1142902  80.5965999   3.3581789
   9.3871841  81.2241247   2.6888712   9.2192135  81.0674408   4.1849382
  75.9985971   4.7273943  69.7547913  75.5828285   5.3001827  69.1103745
  76.8081903   5.1802856  69.9907637  96.9298719  46.2106147  27.3718603
  96.6250156  47.0894947  27.1463258  97.7594827  46.1173644  26.9035871
  39.3003712  24.8745706   2.5932367  39.4074497  25.8093288   2.7692850
  38.6552486  24.5819643   3.2369955  18.7697159  24.6592832  53.5556984
  18.1734501  24.6962261  54.3035841  18.2296883  24.3358636  52.8345823
  68.0529451   0.7134622  43.0506802  68.6670494   0.2955776  43.6544037
  68.4885502   0.6722801  42.1993351   6.2602841   7.2550267  53.9299917
   5.3680455   7.4367326  54.2251492   6.6199242   6.6725421  54.5990181
  20.0009785  92.8195742   8.9445074  19.1801224  92.8594330   8.4537561
  20.1361618  91.8864897   9.1097696  89.5291996  14.7181821  81.7058849
  88.9477921  15.4179204  82.0034790  89.9825096  15.0891554  80.9488392
  -0.2383197  36.7519283  66.2876177   0.6975113  36.6015196  66.1540699
  -0.3239120  37.7042627  66.3319588  59.8238930   4.4473068   2.3113973
  60.5447944   3.9555351   2.7047117  59.0834030   3.8409797   2.3276384
  77.5532675  65.4495001  75.6456566  77.7429962  66.0586643  76.3592148
  77.8604937  65.8993864  74.8586082  97.6604271  52.8232241  72.1208811
  98.5948753  52.9382944  71.9482374  97.5094891  53.2898855  72.9428720
  74.0067863  51.4953756  83.9453888  74.5867300  51.5346050  83.1848907
  73.6340427  50.6141853  83.9171505  87.6007843  37.9855061  70.6089830
  88.2299232  38.5656548  71.0377455  87.1776009  37.5173497  71.3286877
  73.8900709  28.0997682  57.5187969  73.9164639  29.0354419  57.7189159
  73.0125761  27.8230476  57.7827311  25.2405796  56.8454000  20.7598837
  24.6868954  57.1393445  20.0365121  24.7589645  56.1153021  21.1487730
  91.7226505  21.9817138  87.6512337  92.0050049  21.0672855  87.6329136
  90.7994175  21.9523907  87.4002361   5.1850544  24.0897489  78.4962559
   5.6039940  24.3624878  79.3125534   5.8541142  24.2280149  77.8258324
  20.8196507  57.0758775   9.2326219  21.1828289  57.9612359   9.2108019
  20.3788147  57.0186522  10.0803335  55.3127648  95.8730065  16.5209746
  55.9982086  95.8839535  17.1890140  55.2971817  96.7669486  16.1791325
   5.0543343  13.4597576  73.9110374   4.4706570  14.2033553  73.7606764
   5.1340329  13.4065902  74.8634338   5.9487187  31.9594359  72.3062754
   6.7709957  31.7160416  71.8810034   5.3090607  31.9838262  71.5946102
  22.0793282  27.1052313  75.4099989  22.6931416  27.7945518  75.1564217
  21.6465603  27.4459839  76.1928320  11.1810051  46.1744642  61.8189192
  10.3894650  45.9220505  62.2943068  11.3753163  45.4216957  61.2605143
  19.0542733  19.3173063  83.5935593  18.2224404  19.5179975  83.1646061
  19.6956765  19.8643553  83.1401634  79.4253588  70.9048223  64.1521263
  79.2969656  70.0317287  64.5228767  79.4959116  70.7565880  63.2091093
  94.5825672  34.2651463  86.8391418  94.5888805  33.6604071  86.0971928
  94.0849686  35.0212002  86.5276718 105.1778435  96.7063740  14.1398485
 104.7135233  97.4120262  14.5900686 106.0076784  97.0997456  13.8699110
  91.9299030  36.7058802  73.0822754  92.0906830  36.0691047  72.3859310
  92.5963497  36.5130305  73.7417364  87.2849655   0.7234339  87.9292011
  87.1360016   0.8780856  86.9963932  87.1548176  -0.2184270  88.0396080
  91.7885017  19.1381443  75.4203272  91.8167686  18.2334745  75.1088715
  92.3756981  19.6125317  74.8317862  83.0144978  36.9005775  72.0091057
  83.5051537  37.0888495  71.2090778  82.2856712  37.5209308  71.9946718
  32.3828564  63.0172041   6.4508588  32.3675690  62.8751293   7.3973329
  33.3097324  62.9700115   6.2165315   0.3743206  17.0999479  47.3815107
   0.5207859  16.6534626  48.2154369   1.2412869  17.4107885  47.1207523
  34.3126259  93.5721758  34.8509271  34.7712956  92.9197100  35.3802068
  34.9899159  93.9382961  34.2821748  85.6863667  79.2531835  80.5191803
  85.8273007  78.6403524  79.7975063  85.3534104  78.7097227  81.2333393
 107.1222019  20.6251478  66.3782406 107.1933556  19.9286377  65.7255220
 107.2055626  21.4348316  65.8745575  97.4184513  62.6305056  53.7391424
  96.4890099  62.4026012  53.7183046  97.7379513  62.2583103  54.5611048
  61.7053581  86.2960540  41.8348932  61.7387463  86.9770454  41.1630535
  60.8230854  86.3629293  42.2000742  87.7421379  31.7614317  68.8447571
  87.5703239  32.6912928  68.6962080  88.0457592  31.4356208  67.9974747
  94.4520760  30.4525781  72.6592636  94.1844749  31.2114954  73.1775904
  93.6711121  30.2172542  72.1583128 106.8913651  47.7829409  85.5550861
 106.6081905  46.9787121  85.9901333 107.6761246  47.5289631  85.0694084
   6.8584095  66.9039965  35.4570818   6.6169392  67.2507048  36.3159871
   7.4689137  67.5496340  35.1011777  16.2060200  25.2953959  69.4718504
  16.7327153  25.8416438  68.8883829  16.8480622  24.8067069  69.9868298
 103.4816812  64.5795980  22.6240308 103.8718675  63.7326172  22.8399236
 102.5717186  64.3759706  22.4078424  38.3433399  89.0853885   3.7637193
  38.3998070  89.1549042   2.8107221  37.6905212  88.4020570   3.9157541
  51.9888353  23.6086750  84.7876930  51.3696766  23.7097001  85.5106449
  52.4562740  22.7968502  84.9843502  92.4318981  32.2682953  62.5255966
  92.3338318  33.1877398  62.2781420  91.5540886  31.8991780  62.4284697
  91.4935207  37.3168969  66.0105324  90.9029484  38.0654407  66.0950089
  90.9801292  36.5706468  66.3199949  69.5586824  40.0471783  82.8488827
  70.0649071  39.2544961  82.6710510  68.8323116  40.0121546  82.2264767
  42.4156914  74.5569303   9.0814169  42.8748856  74.7470525   8.2633550
  41.6883049  73.9914158   8.8219412 102.0855427  34.1533732  65.8410883
 101.6777897  33.3566356  65.5017138 101.3964176  34.5752001  66.3543081
  86.8063354  17.7031744  45.3062534  87.4279785  18.3389568  45.6606150
  85.9735298  17.9246056  45.7229519  33.8896489  22.2380877  40.4762411
  33.7030053  21.3396835  40.2037239  33.2167959  22.7641487  40.0440884
  72.9660416  18.8284147  78.3343983  72.4467087  19.5205927  78.7435627
  72.7302551  18.8681781  77.4075460  19.8710381  27.8531194  77.3107386
  19.6715771  27.8663254  78.2468367  19.0546166  27.5746942  76.8957996
   2.3423204  66.4271489   8.3518369   2.5729952  66.9207480   9.1388471
   1.4662895  66.0857549   8.5314138  34.5786820  60.0748411   6.6468485
  34.5373402  60.6411430   7.4174554  33.6882267  60.0827178   6.2957819
 103.3500957  38.6410213  73.8476896 102.6404953  37.9999876  73.8055468
 103.4906006  38.7815738  74.7840309  61.0936699  69.5100429   1.6746862
  61.9783745  69.3471637   2.0017679  60.5228005  69.3022266   2.4143846
  11.8618428  30.1360583  86.0583782  11.1108147  30.7293749  86.0456371
  11.5134560  29.3161774  86.4086056  -0.1513160  12.7901912  81.0056210
   0.4501377  13.1572413  80.3577328   0.4179989  12.4572778  81.6993713
   0.0767647  13.4885764  45.5638742  -0.2039207  13.3861458  46.4732456
   0.8556877  12.9371488  45.4900742   3.6240898  32.9314327  86.0680866
   2.8674256  33.4786630  86.2783909   4.0102612  33.3434582  85.2952099
  66.7842461  88.9657842  61.5071726  66.6287876  89.4336676  60.6867123
  65.9136940  88.6904811  61.7945528  87.4608135  19.2622626  80.1910782
  86.8442345  18.6797810  80.6346798  87.1442509  19.3037093  79.2886877
   9.2912827  30.3701284  10.5604894   8.5297070  30.5954817  10.0262220
   9.5459423  31.1947730  10.9744222 102.2177433  83.8195756   4.4188173
 101.5860962  83.7154105   3.7071951 103.0351852  83.4670928   4.0670068
 103.5704041  29.1191506  64.9753284 104.4434452  29.0517259  65.3619623
 103.6511803  28.6876798  64.1247177  95.8534813  14.1634786  58.7317085
  96.5821552  13.6627340  58.3649349  95.2033901  13.5019660  58.9683676
  34.2409382  88.4980228   4.1447981  33.7952957  88.6496022   3.3113344
  34.4171772  89.3751362   4.4851549  14.6624050  57.8718969  18.3970602
  13.9423618  57.7523735  17.7778013  14.6699200  57.0663383  18.9140279
  96.6149616   7.6893783  51.2789822  96.5958118   6.8527246  51.7436075
  96.9784164   7.4775940  50.4191685  12.2729549  76.1020973   2.8421075
  11.8399773  76.9480660   2.9565771  13.0919705  76.3110474   2.3929079
  74.1156006  -0.0070356  63.2326269  75.0587940   0.1385180  63.1589079
  73.7316847   0.8663578  63.1550169  82.2638988  18.9498460  65.6548452
  81.5468311  19.2279565  65.0850201  81.9411659  19.1102564  66.5416050
   8.5849606  44.9289799  40.3837824   8.5970150  45.4505110  39.5812321
   8.6146580  45.5748558  41.0896111   2.9413925  25.3984165  71.3498020
   3.4054505  26.1819983  71.6445541   2.0671212  25.7111096  71.1171770
  64.4243885  91.7901610  79.0448284  64.9546601  91.9840156  79.8177910
  65.0441052  91.4208042  78.4157324 105.2793121  61.7977333  72.4640751
 104.4885445  62.3215532  72.5926590 105.2345371  61.5168190  71.5501213
   2.1560036  23.7900758  81.7573547   2.3434960  24.4643736  81.1043549
   1.4258419  24.1444945  82.2647762 104.0476608   3.1580874  69.8601580
 103.8995361   2.8974360  68.9511204 103.6415386   2.4629115  70.3778696
  21.5886341  12.7432692  69.8792982  22.4957310  13.0436110  69.8227406
  21.1277806  13.2451928  69.2070436  70.4977655  11.6074562  49.9122095
  70.6096363  11.3936436  48.9859247  71.3837481  11.7916465  50.2241993
 108.3546257  28.5551858  59.7416401 108.2457066  27.7895379  60.3056908
 107.5304604  29.0345097  59.8266792  99.1800213  31.4504099  82.3860264
 100.1339626  31.3958287  82.4429893  98.9683533  32.3160481  82.7354527
  74.0592957  22.7502584  74.4212914  74.8500633  23.1949162  74.7265673
  74.0913057  21.8901682  74.8401594  66.6384850  82.5348690  24.9576814
  66.0549698  82.0769480  25.5627115  66.5889511  83.4525016  25.2255209
   8.4172570  59.1479492  67.2653770   7.7530800  59.8371744  67.2736263
   9.0869271  59.4533205  67.8773594  38.1519066  18.8115203  86.9030762
  38.6348282  18.8536608  87.7284431  37.4280869  19.4273579  87.0173740
  10.2267586  34.2413235  66.2204647  10.2243649  35.1833463  66.3902235
  11.1496102  34.0240526  66.0886383  37.7351723  82.8512457  12.2923525
  38.5146484  83.3411506  12.0303590  37.5667915  82.2591641  11.5593298
   9.2525253  89.4965890   7.7137621   8.4128723  89.2263678   7.3420293
   9.4785748  90.2962115   7.2386415  14.6470963  12.9391134  53.0268621
  14.8634182  12.1085429  52.6030827  14.4609867  13.5363364  52.3023462
  25.1840912  42.4511242  63.1332779  25.4431664  42.4139929  64.0540028
  24.5299279  43.1489372  63.0964899  90.9251881  19.6146667  58.3116865
  90.3453827  19.0473831  58.8198709  91.1270237  20.3409648  58.9015913
  78.1893587  33.2489944  69.4180536  78.2363081  32.7002287  68.6351871
  77.2551727  33.4232974  69.5326948  95.8574104  43.8345003  47.9227972
  96.5151310  44.1985321  48.5153484  95.3754044  43.2041788  48.4581423
  95.8038235  26.9259667  83.0487347  95.5493450  27.1708012  82.1590614
  95.0896072  27.2472048  83.5991287  59.9488211  26.2086248  82.9000568
  59.5200491  26.2407899  83.7552452  59.8098087  25.3117037  82.5960159
  63.3213949   8.0833250  87.3202324  63.4759331   8.7673616  87.9717255
  62.9582930   8.5481864  86.5663815 103.6238098  38.1971622  55.8594656
 104.3272591  37.6881504  56.2623358 103.8233376  39.1048121  56.0887957
  24.9810562  81.2926248  16.6748293  25.6307564  81.5436724  17.3314150
  24.1706333  81.7088416  16.9684465  93.8881016  28.8846731  54.3991566
  93.2192421  28.6164737  53.7691402  94.6427441  28.3314586  54.1973925
  71.6116047   5.8985597  64.4851637  71.9728231   6.5012872  63.8351870
  72.3794270   5.5050468  64.8996878  82.9658699  27.0175076  57.3276138
  83.3856583  26.5764785  56.5890312  82.1649742  27.3910069  56.9597912
  12.4345146  21.6016078  55.3038454  11.9853531  22.1227789  54.6383619
  11.7335163  21.1241889  55.7475853  77.0806932  21.2569356  67.2373867
  77.5820780  22.0248246  67.5116014  76.3702679  21.1942506  67.8758192
  12.2563206  21.3839078  58.4902573  12.5143372  21.6327906  57.6027203
  12.1334492  20.4356146  58.4469271  28.7120686  69.4465592  33.3531339
  29.5780811  69.2057898  33.6822088  28.2542381  69.7965792  34.1174085
   2.0591770  44.0066385  78.9963102   2.4716126  43.2868481  79.4738388
   1.1417137  43.9796114  79.2678833  18.8915215  72.3280647  13.8510473
  18.4321079  72.6318696  13.0681856  18.3118210  72.5634840  14.5754488
  95.1294899  22.6243520  88.7160397  95.0374603  23.2746387  89.4123840
  94.9720097  21.7855048  89.1493607  92.4489117  49.6051741  62.8043938
  91.5589905  49.8755980  63.0305386  92.9524231  49.7434950  63.6066198
  93.8777351  34.3142605  72.1768427  94.4303322  33.6660910  71.7400980
  93.5972309  33.8844156  72.9847908  77.2622204   1.7492598  77.8099155
  77.4060774   2.0631227  78.7026787  76.5090322   2.2509649  77.4981022
  89.9230671   0.5856408  89.1720867  90.1462078   1.4979967  89.3565941
  88.9795017   0.5976081  89.0115261 102.0783520  68.9030218  74.5805597
 101.7529106  68.0174065  74.4193172 102.9917049  68.7792301  74.8388338
  78.0824757  37.4157453  66.9368172  78.3906984  36.8296528  66.2456417
  78.3730888  38.2850480  66.6609716  91.0662079  15.4080224  76.8568945
  91.5380001  15.7913744  76.1175108  90.9761429  14.4825566  76.6296625
 101.7338753  60.3736639  78.0622244 102.1761990  60.2219582  78.8974285
 101.1398315  59.6291542  77.9671001 106.4969038  72.1788671   4.7692735
 106.6982721  72.2485927   3.8360937 107.1217226  72.7668217   5.1937158
  96.6408062  31.6336465  79.7565269  96.7705441  31.4284325  80.6824303
  95.6901455  31.6557336  79.6470213   5.3927813  57.8361818  20.1128919
   5.1966343  57.0871141  20.6756170   4.5469246  58.2642081  19.9804170
  99.8706818  16.4443612  88.8107014 100.1998615  16.9500458  88.0676270
 100.0116158  17.0123291  89.5681858  50.8360275   4.9764530  15.9874017
  51.6544994   5.1217595  16.4619692  50.5469211   4.1084043  16.2687166
  73.4996080  28.7222004  82.1635628  74.4007874  29.0448189  82.1588612
  73.0631876  29.2205644  81.4726162  95.3941727  35.6331325  88.9769363
  95.2234936  35.0748086  88.2184029  94.9517822  35.1929545  89.7027206
  74.6098423  40.8118725  75.6437922  74.5389271  39.8827362  75.8626747
  74.2089796  40.8851767  74.7776699  25.8630428  98.1097820  -0.0336878
  26.2712631  97.9634741   0.8196409  26.5978870  98.2631615  -0.6275885
 108.9937519  69.2847636   3.0145223 109.2381309  68.9233914   2.1625097
 108.5111068  68.5788348   3.4445818  46.0281334  85.6096223   5.3329618
  45.1811466  86.0505417   5.2663286  46.3825188  85.8975461   6.1742361
  23.0363998  86.7013410  26.5171583  23.2616673  87.4852279  27.0181615
  23.6828575  86.0496619  26.7885168 104.9111748  45.7687283  49.1513538
 104.4082642  46.2889957  48.5247421 104.2817402  45.1357079  49.4968081
  10.7020699  36.8655753  67.1114397  10.2759777  37.6956296  66.8976831
  10.6052433  36.7840052  68.0602264 104.7359180  27.1536064  57.8778076
 104.7168732  28.1040621  57.9896307 104.3213463  26.8109298  58.6696005
  37.6119862  52.4413825   4.9760778  37.6518021  51.7296174   5.6148489
  37.3314438  53.2030713   5.4833753  66.5660191  28.7967086  77.7755785
  66.9549274  28.6860681  76.9079733  66.7802238  29.6967530  78.0210638
   3.2881485   1.2905894  77.6603889   3.4122406   0.5990559  77.0103025
   4.1668640   1.4608863  77.9996347  92.2612476  33.0287051  53.9267349
  92.7446079  33.6221790  53.3519506  92.5986290  33.2160068  54.8027086
  12.5767742  24.4735670  63.4670544  12.5563179  24.0956521  62.5878525
  12.1180092  23.8350153  64.0129614   0.3099953   4.4801307  52.0612335
   1.0122525   3.8488352  52.2178745  -0.3403438   3.9940560  51.5542698
  12.8423748  99.2351416  13.6865194  12.5671730  98.3249691  13.7964494
  12.8963528  99.5784262  14.5784147  31.8224487  94.8661783  36.0821302
  32.5051174  94.4429758  35.5614622  31.8671284  95.7888010  35.8311136
  51.9512345  84.2084955  56.1238480  51.1228729  84.6087419  55.8595467
  52.2643925  84.7581803  56.8421841  63.2168270  96.2162369  86.7520618
  63.2899739  95.3456645  87.1431923  63.9795948  96.6916149  87.0813560
  86.3995537  28.7518493  11.8292959  86.5112003  28.2436887  11.0258443
  86.6535076  29.6423046  11.5867479  14.3403565  37.4265313  51.7443371
  13.4912907  37.3506236  52.1797132  14.6054970  36.5221095  51.5771437
  45.4685745  92.4386242  36.0396917  45.3707752  92.3403671  35.0925787
  44.9936066  91.6936901  36.4080866   0.4919754  46.4872313  77.8849792
   0.9762608  45.6678343  77.9864311  -0.0571502  46.3469696  77.1136093
  10.8124790  80.7659390  10.8511980  11.3083324  81.2780216  11.4900453
  11.4722118  80.4489401  10.2343614  11.1479054  93.6427763   0.3233392
  11.6025124  93.3597067  -0.4700320  11.7946587  93.5362652   1.0209043
  25.5947243  47.4862719  48.8040352  26.4021717  47.9121590  49.0919113
  25.8901631  46.7168808  48.3172274  82.7470303  47.1743298  52.0031738
  82.2913742  46.7057467  52.7024937  82.3362827  46.8606091  51.1975050
  87.6286221  24.1799474  77.3180866  87.0789337  24.7921371  77.8072691
  87.2509766  23.3197451  77.5015831  27.8579102  56.9897100  19.7957475
  26.9801102  56.9721451  20.1770551  27.7529488  56.5858605  18.9342840
  85.9105492  77.4577856  73.4988117  86.4091873  77.7784061  74.2503357
  86.4269161  76.7247009  73.1638861   1.0260712  71.5583515  77.1630335
   1.8889462  71.1911964  76.9709730   0.8344876  72.1238804  76.4149046
  28.3158741  72.8388122   3.9366014  27.4505100  72.4413565   4.0335519
  28.6620388  72.8794101   4.8280866  73.2147408   6.1630040  83.4904099
  74.0028667   6.2612855  84.0246582  73.3566999   6.7459905  82.7446175
  84.8678589   5.7472146  53.7446594  84.7890568   5.5140817  52.8196335
  84.1682434   5.2564043  54.1757965  76.4170837  27.0902514  80.4089832
  76.8849897  27.4334407  81.1702442  77.0748568  27.0670724  79.7139740
  11.0594117   0.0106300  57.0091438  11.5395581   0.4562847  57.7070570
  10.1407086   0.0790058  57.2690344  53.5906563  98.8445309   3.4921129
  54.1535339  99.5506027   3.8097055  53.7642727  98.1142595   4.0860803
  42.4311520  96.9275784  56.6584778  41.4871384  97.0702772  56.7270851
  42.5656344  96.0448300  57.0032978  30.1280724  19.7341931  31.4380455
  29.4344078  20.3919458  31.4873052  29.9100243  19.1042495  32.1249676
  15.0319634  67.0363286   7.4081094  14.7613869  66.8457714   6.5099485
  15.9688149  67.2211793   7.3419149   7.3168049  78.6345222  32.1999509
   8.2734356  78.6552861  32.2258241   7.0821676  77.8290584  32.6608331
   9.2300663  89.3078831  15.6547983   9.0632496  89.6924451  14.7942693
  10.1843033  89.2668298  15.7178838  11.6382061  20.1048851  69.3952990
  11.8875920  19.1820812  69.3455362  12.4528252  20.5622244  69.6037960
  73.6300039  47.1158075  76.6283464  72.8837204  46.5880108  76.3442326
  74.1964102  47.1638727  75.8582163  13.9592110  12.6331103  55.5836058
  14.3401181  11.9370055  56.1189413  14.2379986  12.4285793  54.6910381
  43.5434589  81.2637833  40.9093340  44.2027245  81.9251230  41.1196478
  43.3752689  81.3820770  39.9744756  93.2283401  18.6612332  65.7897234
  93.8380432  18.8115430  65.0672960  93.1658077  17.7083826  65.8560419
  86.3059902  58.6650848  79.6312046  86.5921307  58.8913059  78.7462330
  86.9005585  59.1473389  80.2057934  86.0225939  77.1231010  11.1147077
  85.2080034  77.5995901  11.2747915  85.8951639  76.7112306  10.2600916
   6.0939347  37.8666401  88.7119293   5.8302628  38.3131528  87.9073620
   5.5389630  38.2496381  89.3913078   5.7414185  39.4809794  86.2879372
   6.3224064  39.3813539  85.5337811   4.8662697  39.3088484  85.9404755
  41.3919115  14.4326532  85.2851200  42.1381569  14.4856417  84.6880054
  41.2064123  15.3423786  85.5179787  26.1928711  83.2731154   1.0000761
  25.8126888  83.3929398   1.8703230  25.9715233  82.3722866   0.7639654
  98.7864876  37.1216726  70.7494116  98.1507397  37.0646405  71.4627171
  98.2660961  37.3645425  69.9836159   5.7022892  28.0833220  80.9970570
   6.4171730  28.6222267  80.6583023   5.8270394  28.0889678  81.9460773
  16.6741524  80.3807428   7.8725965  17.5996552  80.5758837   8.0195482
  16.6280708  80.1163962   6.9537790  13.1756744  86.7076614  41.5929468
  13.4200916  85.8698442  41.9860704  12.5086365  87.0624760  42.1806486
  14.3278538  48.9249086  77.6579094  15.2513729  49.1523933  77.5502348
  13.9862477  49.5878983  78.2578993  75.7644129  47.5763464  81.3712215
  75.8441973  46.8237638  81.9572926  74.9033165  47.9442501  81.5696907
   0.4628788  20.8242559  45.0205946   0.1523339  21.5603375  45.5478334
   1.3181721  20.6077242  45.3918266  82.0426918  92.0671867  85.1165009
  81.1970211  91.8803488  85.5241299  82.5169731  91.2367510  85.1573753
  41.4838276  90.8838537  12.0894964  40.8250866  90.9328368  11.3967474
  40.9779701  90.8924249  12.9020651  85.1608181  34.2350292  59.2913437
  84.4709015  33.6151981  59.5281076  84.8047733  34.7157860  58.5441208
  73.2930828  91.9705736  86.1658001  73.0601288  91.7608844  85.2613640
  72.7232720  92.7044760  86.3958931  67.1421394  68.3408573  12.7388628
  67.9307995  68.2320276  12.2074373  66.7115555  69.1135040  12.3730238
  13.5719166  70.2555588   3.3270033  12.7500401  70.5626705   3.7096651
  13.8933239  71.0010519   2.8198869   9.2961464  60.5849227   0.3188188
  10.1812611  60.9421429   0.2466447   9.1323719  60.1771232  -0.5315440
 100.3507328  48.8556623  45.6793499  99.4927883  48.6332178  45.3178501
 100.1970482  49.6514606  46.1885834  89.7379017  16.1109340  71.4764500
  89.0436840  15.5095339  71.2069607  89.6025372  16.8900657  70.9371328
  10.0014244  53.1424236  82.9364300   9.8264157  52.3124218  83.3799362
   9.3535267  53.7478495  83.2968712  85.6929089 100.8764874  52.5051880
  85.0493027 100.1752763  52.6066923  85.8461453 101.1917298  53.3959055
  31.7433678  21.4457250  88.2857704  31.5707241  20.5275559  88.0774593
  32.4462925  21.6989946  87.6874542   7.7981697  21.4249516  40.9358644
   7.6992070  21.3100028  41.8809700   7.9543816  22.3626328  40.8236885
  26.8660984  66.3823750  14.4925649  26.6449509  65.5298486  14.8674257
  26.1948357  66.9745293  14.8316629  28.9912472 102.3326900  16.0395868
  29.0014324 102.2275093  15.0882394  29.6096478 103.0434969  16.2086065
  93.9982685   4.3448058  42.3387773  93.4414848   5.0621406  42.0360334
  93.4034809   3.5997526  42.4245699  66.3071903   3.1191627  23.5662515
  66.8570598   3.0476133  22.7860220  66.3302883   2.2454301  23.9564951
 101.6445351  48.2228518  76.8814898 102.1207237  47.7880430  76.1740828
 101.7389679  49.1569471  76.6949940  15.2167641  72.4890614  33.6630464
  14.6793782  71.7600870  33.9729548  14.7822129  72.7836370  32.8626585
  40.8158360  95.5418661  27.5132997  40.1877461  94.9581459  27.0878465
  41.1749897  96.0685852  26.7992933  73.7515783  34.9432516  65.2172089
  73.5293150  34.1886902  65.7626152  73.5210085  35.7022357  65.7529402
 107.2896099  16.6344821  59.7697830 106.8587589  15.7955480  59.6061039
 108.1222057  16.4001715  60.1798058   6.2794815  31.7116284  81.3356018
   6.2738072  32.6223087  81.6303253   5.3565823  31.4579463  81.3238335
  29.7169838  52.0755016   3.4393461  29.0639267  52.5054416   3.9915140
  30.2285347  51.5401890   4.0459688  77.9407644  37.7396703  55.9776783
  77.1151209  38.1978130  56.1346817  78.0443239  37.1657705  56.7367220
  97.6854324  50.4096556  68.5334635  96.7376137  50.2776051  68.5539913
  98.0436611  49.6445370  68.9834595  78.0899286  22.2748065  81.4885235
  78.3900356  22.3093247  80.5802441  77.2528124  21.8125010  81.4467812
  99.3623352  34.0194917  58.7776327  98.4314728  33.9817739  58.5578680
  99.7160912  33.1866646  58.4653950  95.4464722  40.0923920  66.0215282
  95.3541470  39.2638111  65.5512428  95.8125210  40.6954765  65.3745890
  33.4046612  86.6476872  30.6750448  33.0578671  87.1077397  31.4394529
  32.7894363  85.9291914  30.5284364 104.7152710  44.7767687  64.5252991
 104.0896702  44.1426897  64.8757219 105.0486565  45.2355576  65.2963972
 104.6077919  34.7834015  47.5471973 104.5330524  35.6221175  48.0023861
 105.3330898  34.3373632  47.9844904  29.9916134  86.9936254  35.4321726
  29.8299275  87.0700171  36.3725145  30.9049568  86.7144659  35.3680856
  45.0484428  73.0813649  25.4396684  45.3486023  73.6450270  24.7266348
  44.4782314  72.4406746  25.0146825 105.1885700  38.9662743  65.0954580
 105.7436466  38.7873197  64.3364477 105.0683403  38.1123567  65.5109119
  82.1559525  67.3445988  82.9698086  83.0867767  67.2173929  82.7864647
  81.7115879  66.7174053  82.3993778  90.5540069   0.0589219  14.0795953
  91.3044533  -0.1086434  14.6496637  90.0287231   0.7006828  14.5575578
 108.3252811   7.8970855  70.3892136 107.9808807   7.1798605  69.8570347
 108.2419491   8.6705577  69.8315144  88.4902000  95.6754684  74.9873257
  88.2821655  95.6621933  75.9215546  89.0871429  96.4167404  74.8853779
 102.6079941  43.4697628  59.7538424 102.3444462  43.9896965  58.9946079
 103.1230354  44.0727282  60.2899408  92.5925350  44.1535330  47.4195004
  93.1905556  44.2427158  46.6774416  92.5616837  43.2122326  47.5904655
  12.0883595  32.4604011  74.6198702  12.7076470  33.0677438  75.0246572
  12.2231613  31.6350722  75.0855923   7.4647461  27.3324800  70.8336496
   6.8210446  26.9956851  70.2103901   7.7078472  28.1907845  70.4866028
  27.9104195  94.8984650   7.1089037  27.1391258  94.3318346   7.1253641
  28.6504994  94.2940309   7.0526846  72.4974012  76.9669724  56.3057327
  72.5375795  77.5855112  57.0351362  73.3239889  77.0923138  55.8396006
  34.8219929  79.4328335  17.5157316  34.7157250  79.8267320  18.3816297
  35.4070530  80.0309065  17.0507009  41.4315090  81.0084608  12.0376833
  42.2388039  81.5144709  12.1296365  41.3666496  80.5107501  12.8527410
  79.2201233   0.5064255  88.4516907  78.4684467   0.3670095  89.0277004
  79.2739630   1.4571074  88.3540344  95.4090786  45.5761623  31.5515590
  95.8511353  45.0341320  30.8980918  95.7373238  45.2545357  32.3912287
  12.9827820  25.0733852  76.8197727  12.3488175  24.9953604  76.1068678
  12.9904019  26.0066319  77.0324373  59.1112789  10.6259195  -0.0392573
  59.2812618  10.2702466   0.8330019  58.2489570  11.0351173   0.0328119
   7.6122319  28.9641929  78.9452267   6.8439137  28.7090302  78.4345198
   8.0973088  29.5550251  78.3691692 101.0615253  55.0995064  66.2161779
 101.2576389  54.4184923  65.5727530 101.7503834  55.7523155  66.0915089
  92.3555470  34.2137027  84.2240810  91.9409943  33.9958072  83.3892727
  93.1707954  33.7121153  84.2247772  13.0649887  42.8519535  72.0464611
  12.2712170  42.9798889  72.5658751  13.7770115  43.1207991  72.6269722
 107.8757286  46.7031574  70.6110811 107.1062946  46.1341810  70.5898142
 107.9787636  46.9322395  71.5347385  23.8024365  51.4922523  61.7550993
  24.5130192  51.5591192  61.1172676  23.0415665  51.8598223  61.3054180
  98.5561275   5.6611788  53.8395548  99.3379974   5.1337314  53.6761284
  97.8860188   5.2778363  53.2736635 103.4216213  18.1611085  71.5028000
 103.8841057  18.4247017  70.7072783 103.2362747  18.9837074  71.9558048
  25.4274784  36.9686770  52.6754999  25.1754032  37.8400993  52.3700237
  25.3459870  37.0159292  53.6280537  54.5797215  64.4980100   8.9508302
  54.0249119  65.1100519   9.4343813  55.0775204  64.0397432   9.6279009
   5.7082497  68.7899160  86.4407063   6.1195027  69.6260452  86.2216473
   5.4040943  68.4453392  85.6010723  79.5654631  61.7916012  83.6137199
  79.0213251  62.4924564  83.9728165  79.6864319  62.0293999  82.6944542
 100.2355003  23.4033656  49.2298746  99.9128723  22.5827670  49.6023798
  99.7938919  24.0858150  49.7353220   6.6210972  44.5117521  85.3904247
   6.9034897  44.4950199  84.4759846   5.9038101  43.8792419  85.4312038
   6.0803639  55.7440519  70.1358891   6.5443360  54.9696064  69.8177671
   6.3286911  56.4391804  69.5264959  53.6412678  85.6695679   3.2232053
  53.9308605  86.5803817   3.1704385  52.6898918  85.7148316   3.1279524
  19.6538674  65.2897978  75.9383535  19.8769890  65.0989151  76.8494034
  19.0764939  64.5721912  75.6777620  27.7851925  79.9691441  28.2757909
  28.5095367  80.2920702  27.7398069  27.0887432  80.6137827  28.1507261
  48.9990101  90.8162239   0.5645330  48.3054314  91.4553383   0.4011209
  49.2000351  90.9136489   1.4953001   2.2654257  84.2262152   2.7341516
   1.4109240  83.7972882   2.6885183   2.5669060  84.0649989   3.6282117
   7.9195153  83.5976219  66.7257833   8.0575405  84.3139648  66.1060858
   7.0874058  83.8055420  67.1507502  67.1514782   0.5051414  24.5052011
  67.6533874   1.2728540  24.7789438  67.8149971  -0.1467093  24.2792375
  70.2455902  13.6838603  82.5657463  70.2031803  13.8529778  81.6245556
  70.9836864  14.2114460  82.8708744  75.1708794  38.7005711  86.4384079
  75.1205063  37.8637743  86.9004345  74.9690533  39.3556070  87.1065617
   3.9620647  69.8999634   9.2653425   3.5526667  70.2285626  10.0657423
   3.2417307  69.5087412   8.7710817 105.9184361  22.3683882  55.4447508
 105.7523727  22.0172310  56.3195896 106.5726566  21.7785716  55.0701237
  62.3958302  38.2354498  76.0555935  63.2497740  38.6384034  75.8986044
  61.7988920  38.7043667  75.4724884  43.6100254  85.9686520   7.6603181
  44.5452938  85.9448364   7.8626592  43.1808338  86.0032418   8.5152013
  50.5845913   3.1534997   2.8155286  49.9551090   2.9118339   3.4949358
  51.4391216   2.9602710   3.2010992  10.1431595  20.1485658  56.1458969
   9.7231041  19.4815493  56.6889238  10.3361355  19.7003555  55.3224277
 101.4949402  21.5021984   3.4501703 101.4703449  20.6848756   2.9525621
 101.2781795  22.1793786   2.8093393  99.9163246  21.4285016  45.0377417
  99.0952301  21.8988371  45.1820230 100.5980492  22.0668030  45.2476311
  61.4944729  14.2420284  25.0164087  60.8960995  14.6971790  24.4239290
  62.3594936  14.3678037  24.6263464  85.8709908  33.2466412  79.6541595
  85.0633240  32.9480290  79.2361403  86.4066696  32.4571586  79.7315598
  99.1871071  38.6485386  86.1791897  99.7849369  39.3695140  86.3767242
  99.2526150  38.0684018  86.9377232  72.0843267   8.4428364  55.2862644
  72.6953125   9.1149843  55.5881691  71.4809418   8.3209854  56.0192823
  39.8258362  89.0717152   5.8465440  39.2413578  89.2538717   5.1107271
  39.5216045  88.2324770   6.1920221  76.5661860  24.4689703  58.4904146
  76.8001413  24.7373724  59.3789291  75.7481718  24.9313998  58.3080864
   4.5189320   1.0977773  82.2521973   4.3721424   0.5665965  83.0348396
   5.4384362   1.3577907  82.3081875 104.3167496  27.3959041  83.0201721
 105.1725101  27.1955824  82.6409817 104.1943932  26.7324090  83.6991692
  49.6022472  63.5266354  16.5507085  49.8391209  62.6232996  16.3406904
  49.3064175  63.4913686  17.4603708   8.5409126  63.8114062  24.8386343
   8.5113392  64.7401038  24.6086843   9.2402134  63.7478760  25.4891451
  49.8947964  79.4211963  15.7487161  49.1771374  78.7894371  15.7941778
  49.4680176  80.2545979  15.5498846  24.3655453  58.0674389   1.6483934
  24.5750389  58.8858983   2.0983560  23.4677563  57.8702834   1.9154890
  53.8444195  78.7185409   6.2459047  53.4271298  78.1286576   6.8737085
  54.2852364  79.3725827   6.7882593 107.0728588  41.1856556  71.4444733
 106.1674500  40.9665012  71.6645527 107.5986290  40.5597830  71.9425488
   3.5115467   4.1028723  54.8293161   3.7106644   3.7748423  53.9524031
   3.7264477   3.3745077  55.4120159  89.7488976   5.1512855  79.8973179
  90.6983948   5.2455562  79.9734640  89.4436169   6.0159498  79.6227455
  92.0095037  73.9981392   0.0840433  91.8149971  73.6274174   0.9448297
  91.2753128  73.7247732  -0.4659312  76.4338636  28.4961772  56.4083815
  76.0993624  29.3903518  56.4775991  75.6504726  27.9461908  56.4152765
  28.4618244  94.0472486  18.1892545  28.8922272  94.2467049  19.0206392
  27.5299416  94.1780355  18.3645494  53.1844601   1.6286937   1.8463667
  53.1072124   2.2806112   1.1497553  52.6520523   0.8923475   1.5454061
   8.6833130  41.3366461  63.5700941   8.9328991  41.8111324  64.3630648
   9.0821301  40.4725361  63.6724997  17.9771481  93.1189754   7.2677763
  18.5152493  93.3277777   6.5041883  17.5394783  92.2999552   7.0356329
  43.6017857  93.8646915   8.7701090  44.0381203  93.5072449   7.9967554
  43.2006893  93.1046083   9.1915758   0.8951794  32.5021982  78.4341908
   1.0334812  31.5661263  78.2897186  -0.0515808  32.6193428  78.3557129
  50.9958229  73.8831475  21.0309370  51.0920010  74.8306230  21.1272295
  51.6912327  73.6323765  20.4228742  94.5791721  23.7575746  76.3275576
  94.0660000  23.4966254  75.5628443  95.3208351  24.2416620  75.9644604
  10.4851948  93.9286137  58.3471203  11.3602959  93.8184547  58.7190008
   9.9080025  93.4600735  58.9500713  78.6029339  79.1161203  68.9528799
  79.2397118  79.7989464  69.1638088  77.9412794  79.5610094  68.4232426
  84.0665531  40.9718990  78.9274931  83.2848358  40.4679823  78.7012005
  84.2844582  40.6898880  79.8158741  18.1859242  14.6321917  74.8731995
  17.6204811  15.0599349  75.5162716  17.8504025  14.9259984  74.0262461
  26.8277702  97.6548555   2.5852449  26.8701706  97.3154667   3.4792574
  26.8065891  98.6059740   2.6908739  99.6658157  73.1730225  12.7639635
  98.7394594  73.2880834  12.5521715  99.9832081  72.5437024  12.1163137
  99.0935230  27.7413106  69.3103838  98.7914944  28.0669880  68.4624815
  99.5496559  28.4851193  69.7039843  70.2753624   3.2588045   8.6994321
  70.1194557   2.5585882   8.0656965  70.5110344   4.0172712   8.1651933
 102.0229721  35.9124494  82.9699326 102.7356529  36.5438771  82.8718662
 101.9695759  35.4774642  82.1189499  73.6943706   0.9856979  13.6343820
  74.3510708   0.3328315  13.8767488  73.7146648   1.0020725  12.6775415
   3.3709179  38.3462262  40.7818460   4.2728173  38.6487770  40.8879662
   2.8573643  38.9199138  41.3505077  93.5639477  35.6636214  61.7608929
  93.0393600  35.7161117  60.9619617  94.3954945  36.0771179  61.5290070
  46.9190868  12.4417726   4.8190839  47.6320824  12.9651204   5.1851041
  46.1394962  12.9850332   4.9345834  57.9162868   7.0310632   7.9986150
  57.4932941   7.1083681   7.1434362  58.3247455   6.1654703   7.9864175
   4.9927746  37.5239038  75.0648499   5.6657349  37.1493816  75.6332588
   4.8439442  38.4017801  75.4161549  26.4108238  99.2160156   6.6150053
  25.5906448  99.1276625   7.1005209  26.4543591  98.4282520   6.0729940
 106.2028694  76.2262106  68.1646585 105.7826614  77.0194626  68.4969473
 105.5053806  75.5707026  68.1575346   3.6248623  47.6040220  88.9506149
   2.8033673  47.1816063  89.2014790   4.1162621  46.9205284  88.4949875
  87.9521275  34.0401673  85.2466393  87.6120949  34.5718503  85.9663010
  88.8981724  34.0189052  85.3907871   5.6341778  88.0996227  78.6510277
   5.2418648  87.2428703  78.8192225   4.9040161  88.6435986  78.3557701
   7.8486691  87.0089701   2.5741918   7.6793060  86.6760805   1.6928728
   7.8515873  86.2286165   3.1285150  99.2524624  48.1427050  55.9403086
  98.4970188  48.7198639  55.8288383  99.9002171  48.6811352  56.3949966
  80.7026180  15.6756011  23.8324316  81.5555462  15.7650796  23.4072931
  80.0752052  15.9811107  23.1772573  91.6771030  24.6723080  39.9093866
  92.0021343  24.4472098  39.0376544  92.4591446  24.6829295  40.4612303
  12.8328739  78.4006214  72.5008535  12.5110852  78.1148338  71.6458654
  12.6661145  79.3430471  72.5167465  69.1748222   6.3210431   4.2510374
  69.8638996   6.8797294   4.6105821  68.4614834   6.9244234   4.0429456
  35.0683365 101.2470701  22.3273142  35.1931915 102.1483400  22.0300634
  35.6372604 100.7267740  21.7600019 100.7122612  67.8772163  89.0015411
 101.4241123  68.2306051  88.4680462 100.2004528  67.3428011  88.3943462
  85.9015274  46.5710402  71.2454271  85.7914162  46.1471176  70.3943157
  86.2111092  47.4522161  71.0358429  53.1173668  99.5443943  11.1685903
  53.6416683  99.2102316  11.8963773  52.7209435 100.3469589  11.5076597
   2.5338494  50.2742624  66.3609648   3.2257687  50.0599289  66.9866848
   2.7557122  49.7717333  65.5770826  68.4660324   3.9317171  16.5085085
  69.2338737   4.2241613  16.9995458  68.7829288   3.8208286  15.6121214
  67.2355318  28.7874246  66.7896557  68.0805159  28.4259844  66.5220737
  67.4385166  29.3345428  67.5484037  97.7697277  57.7899837  67.0803261
  98.0081558  56.8930531  67.3146343  96.9038582  57.7108479  66.6800308
  74.1115532   0.3041090  54.6931505  73.9490471   0.3103555  55.6364346
  73.2416210   0.3726781  54.2997789   3.0469071  38.2267332  73.2845640
   3.4779679  38.7355304  72.5978708   3.7592255  37.9516435  73.8617563
  53.1528164  79.5879399  27.7363181  52.6104904  80.3738748  27.6697350
  53.8736130  79.8424207  28.3124423  96.8555641  20.3636336  57.4168301
  96.8894672  21.0274744  58.1055975  96.3652992  19.6394873  57.8060484
  18.4693466  24.0225697  50.5502272  17.8064381  24.2480659  49.8975849
  19.2422901  24.5233560  50.2894354  88.8487911  12.0473135  78.0994987
  89.1761398  11.9606459  77.2042036  89.2823982  12.8305280  78.4383011
  89.6184540  32.2662592  62.4915171  89.9558640  32.8364754  63.1823444
  88.9088058  31.7781734  62.9091263  85.9425926  42.5986242  50.9179497
  85.4344463  42.8706551  51.6821575  86.2327290  43.4188747  50.5188990
  49.6998383  84.6476757  42.8178549  48.7585331  84.5246517  42.6952219
  50.0919033  83.8384294  42.4897718 102.1129608   8.6359990  87.1319485
 101.8882942   9.0588045  86.3031006 101.8557453   9.2697823  87.8015709
  93.5841656  12.3123550  59.0616179  92.7415180  11.9553876  59.3422318
  94.2164803  11.6238952  59.2676115  97.0882702   7.8406471  57.8191471
  97.7007866   7.3505157  57.2706699  96.2256527   7.6310486  57.4611139
 105.9779930  42.5765419  57.8980160 105.3747940  42.9340267  58.5496187
 106.2612438  41.7400932  58.2672787  42.3313833  88.6352383  51.7166805
  42.5698258  88.3218252  50.8442402  43.1670452  88.7303292  52.1736908
  26.7809426  33.3071399  77.3898792  25.9668385  33.0969906  76.9323826
  27.3486363  32.5538993  77.2268057  95.2420807  21.0215688  73.5312891
  95.3646183  20.5465388  74.3532181  94.4655991  21.5611863  73.6799860
  57.7909145  59.1239783   9.6689661  58.5964356  59.2976758   9.1819341
  57.7170715  58.1696668   9.6772154  93.2101036 101.9221892  74.2973661
  94.1388394 101.9890426  74.0755272  93.1277634 101.0723053  74.7299767
  11.4600884  56.0265684  27.4382162  10.7183682  56.5409613  27.7567959
  11.0993134  55.1524305  27.2900534  11.8773590  25.4463840  85.4671001
  11.2582432  26.1740470  85.4085350  11.4911591  24.8546982  86.1128426
 103.6822414  37.1225095  59.3062878 103.5277653  38.0506206  59.4822884
 104.5492935  36.9501972  59.6733809  90.4044628  40.7332706  29.4681644
  90.2577496  40.4361343  30.3661704  90.9648705  41.5038919  29.5594096
  26.8572365  16.6911352   4.0972885  27.2882401  17.2983384   3.4958184
  26.5439736  15.9810126   3.5370857  66.7804607  32.0827762   3.6631258
  66.8049702  32.6428214   2.8872545  67.5890526  32.2881595   4.1324003
  75.5640007 100.8099248  12.4341643  75.2868344 100.3475850  11.6431808
  76.4200665 100.4358797  12.6426709   8.9519249  39.6712637  56.9131565
   8.4816586  39.0003014  56.4182949   9.6514736  39.9562645  56.3252449
 105.2698612  22.2018647  30.0464129 104.4579697  21.9992614  30.5111933
 105.9290028  21.6461968  30.4623365  98.1799698  45.8198929  62.8623390
  98.0807018  46.1821699  63.7427568  99.1261005  45.7387304  62.7420092
 101.7168236   9.2585576  54.7682285 100.8495712   8.8845283  54.9238062
 101.9205475   9.0226698  53.8631964 107.9635502 100.3721805  60.7664156
 108.3889652 101.0429180  61.3006163 108.0805660 100.6736787  59.8655081
 108.7194920  35.6994605  55.3762960 107.9373932  36.0689759  54.9664021
 109.3090725  35.5156589  54.6449614  85.5463291 103.0573956  59.5867682
  84.9180962 102.6523280  60.1846552  86.1486794 102.3498837  59.3569040
 104.1427135  30.8774567  53.1191206 103.9268112  31.1059976  52.2150278
 103.6401558  31.4961457  53.6491108  59.9131250  23.4500885  31.2390804
  60.6466722  23.0251884  30.7945585  59.2853498  23.6362934  30.5408955
  14.0088307  33.7626863  51.0400391  13.2022892  33.3220315  50.7725668
  14.3292939  34.1813493  50.2411318  28.0687271   8.4740746  64.3139172
  28.6564003   8.6928922  63.5907412  28.6133133   7.9746300  64.9223661
   1.8893277  59.6003485  55.8146238   2.5467049  59.5239019  55.1230669
   1.1891018  60.1222754  55.4228210  17.8156506  20.7757831  62.7194357
  17.8230702  21.6595936  62.3519373  17.0599686  20.7669950  63.3068895
 107.1677113  34.8158526  66.4940023 107.4555302  34.0832901  65.9492636
 107.8218174  35.4981565  66.3429213  42.4394451  13.4568477  65.6367636
  42.4127518  12.7072418  65.0421143  42.1679245  14.1998696  65.0978518
  22.0128094  -0.3118588  33.1197500  22.5172650   0.3972398  32.7210927
  21.2072884   0.1077591  33.4219146  96.1728764  10.4131293  57.6337481
  95.5719090  10.1863217  56.9240808  96.5158367   9.5718700  57.9352379
  91.2340546  35.3853345  79.6438694  91.3382626  34.5116472  80.0207520
  90.3080845  35.4348874  79.4064713  33.1895768  27.2282720  61.5323257
  33.2128273  27.5107479  62.4466038  32.8239285  27.9761147  61.0598135
   8.1140457   2.9090795  70.9016514   7.2398793   2.5228855  70.8476543
   8.2259213   3.3660397  70.0680447  28.0278717  28.4167862  51.7345428
  27.6260983  28.1826353  50.8978939  27.5226723  27.9316401  52.3869514
  15.1825177  34.1027737  62.9562092  15.7817971  33.7157607  63.5944223
  15.7095181  34.2041421  62.1636057  78.0949545   8.3734334  78.3327436
  78.8760424   8.9130247  78.2103729  77.6174593   8.8009858  79.0436792
  26.2847172   7.6666087  84.8328686  26.0089241   8.5629684  85.0244713
  27.2317444   7.7288300  84.7083759  87.6977062  27.8180575  56.1446190
  88.5114765  28.2062721  55.8232117  87.4322033  28.3841109  56.8694115
  15.8023964  45.1296663  62.1070576  16.5909706  44.5886230  62.0664215
  15.1216828  44.5372915  62.4263668   2.5028073  34.7863054  72.1228886
   2.1711193  35.6134772  72.4721718   2.8376995  35.0100970  71.2545586
  30.3910672  27.2101855  84.3521309  29.6154915  26.9204497  84.8325062
  30.1348625  28.0479932  83.9665508 106.1095546  81.1390236   5.2782877
 105.8754658  80.2827480   5.6363733 105.3042053  81.6526845   5.3398664
  19.3166504  89.2570594  33.4289606  20.1521454  89.1082433  33.8717229
  19.3028126  88.6131337  32.7208574   2.8670346  25.4328108  84.6693707
   2.1991192  25.0775623  85.2558136   2.5308930  26.2926102  84.4164276
 108.4262562  45.7500172  62.6159763 108.0276489  45.8211613  61.7486382
 108.1963825  44.8698330  62.9137468   9.2321812  18.4742832  58.1658602
   9.4359242  18.9899302  58.9461374   9.1911160  17.5709414  58.4797382
  37.0913944  96.4128950  34.3101652  38.0004654  96.7092922  34.2658479
  36.9940147  96.0709789  35.1989038  97.5501633  19.9960995  35.3139758
  97.9413986  19.5410836  36.0597134  96.6763973  20.2439547  35.6161833
 101.7203712  23.3748865  75.1757669 100.8307648  23.0256009  75.1225090
 101.6908169  23.9955115  75.9039021  69.5719147  13.0245674  77.5234985
  68.8462877  13.3403814  76.9850206  69.3726635  12.1008384  77.6759958
 100.4074192  25.5659389  68.6758757  99.7322369  24.8970580  68.5620928
  99.9231529  26.3905883  68.7166739  47.8715286  72.1814492   4.6068151
  48.6414490  72.4689153   4.1160829  47.9461727  72.6257279   5.4513700
  45.3131733  99.3883970   5.6412847  45.2972183  99.0544012   4.7443826
  45.3033600 100.3404406   5.5425413  82.2961903  35.6668949  61.5822458
  82.7139568  34.8316288  61.7921019  83.0254364  36.2656379  61.4211798
  17.4005734  32.2575426  23.1016135  18.2939469  32.5992489  23.0648184
  17.3991810  31.5240431  22.4866271  15.5346428  42.3709249  78.7523794
  15.6026017  43.3239079  78.6938286  16.3201939  42.1036482  79.2295647
  97.6382637  43.5788870  56.6239500  97.6705456  43.0874300  57.4447155
  97.6061726  44.4962883  56.8951988 103.7682056  18.4842777  42.1109295
 104.3686867  18.8629901  42.7529812 103.3624840  17.7475202  42.5678825
  23.8709389  20.9938049  60.6291580  24.6533047  21.0471010  60.0802565
  24.2000614  20.7394767  61.4912605   2.2716175   9.8694330  56.7325592
   1.6743599   9.5035571  56.0801363   2.1805798  10.8173585  56.6356993
  95.5339146  26.2790990  79.1452074  95.9909534  26.9571853  79.6427441
  94.9843884  26.7634749  78.5290575  86.4388275  35.8417726  61.0811329
  86.3481236  35.4465175  60.2140808  85.6857681  36.4277291  61.1572170
   8.9780842  35.4339337  74.6519279   9.7963177  35.4256415  75.1485729
   8.7817704  34.5097613  74.4983101  87.3553276  10.6766331  57.4940205
  87.6417160  10.0325572  56.8464231  87.7668762  11.4949584  57.2161579
 106.1010551  14.8061931  45.6010008 105.6919861  15.6585419  45.7506609
 106.7509747  14.7265375  46.2992048  97.8835846  79.7012579  72.5585127
  98.1944348  78.8866316  72.1635580  96.9632794  79.7562920  72.3011351
  90.2755260  13.7180614  84.0833187  90.3777790  14.4402683  84.7031498
  90.1296234  14.1455626  83.2394028  14.1157662  23.4783268  69.1170359
  13.6630379  23.7630582  68.3231878  14.6151291  24.2457175  69.3962908
 101.8692875  53.8320637  72.6576948 101.4898109  54.0921116  73.4971046
 102.7950001  54.0642357  72.7311373  90.3822803  35.5926752  75.8675480
  91.3027382  35.4290819  76.0730267  90.3140163  36.5460825  75.8166456
   8.1442200  17.1521473  52.0797825   7.2052704  16.9692278  52.0458460
   8.5404717  16.3222229  52.3451900  66.0555340  90.9915947  56.2445068
  66.6105820  90.5609428  55.5943584  65.1624180  90.8385121  55.9360695
  51.0455872  93.5872232  48.4924078  50.5844952  94.4247877  48.5383844
  50.8718373  93.2664250  47.6074600  12.1280609  32.9941058  71.8150330
  12.2674691  33.1771326  72.7441692  12.3137795  33.8245964  71.3768244
  89.7748470  22.4392891  79.0727997  88.8596535  22.3492575  78.8071728
  90.2753925  22.1792030  78.2994699  34.9342785  83.0952790   5.1043470
  34.0403805  82.8713205   5.3632219  34.9108181  84.0405395   4.9554689
  83.4679699  34.8670220  64.9733210  84.3483162  34.9896049  65.3285599
  83.6104584  34.4920087  64.1042423  58.3954582  79.0501120   5.4445703
  57.6550827  78.8283446   4.8798616  58.8024006  79.8055461   5.0203664
  94.5383644  28.0326867  58.8531399  95.3995705  28.4437561  58.7784863
  94.7150135  27.0938826  58.7925482  77.5779781  58.1018546   6.1887415
  78.3856068  57.5944391   6.2694032  77.8229389  58.8590094   5.6568201
  42.7536713  24.5104432  81.5530491  43.1594788  23.8361573  81.0081768
  43.3534657  25.2545142  81.4997292  19.3831860  75.9277344  56.6101360
  18.8719117  75.2596521  56.1535263  18.7728630  76.6550827  56.7314100
  12.4946343  15.4395390  48.3862829  12.4532448  16.0464478  49.1253233
  12.6467930  14.5838213  48.7873173 105.6805515   6.8171537  47.6423264
 104.9369907   6.2763196  47.9085064 105.3885841   7.2467691  46.8383265
  14.7767960  41.0043383  37.0337033  14.4235073  40.1548767  36.7694354
  14.9618279  41.4538097  36.2090969  16.3322769  40.9486532  69.8444557
  16.7648350  40.1323652  69.5938778  15.5473839  40.9814739  69.2975569
   0.4192292  19.5802259  87.9176521   0.8603607  20.4282928  87.8684330
   0.4986035  19.3218994  88.8359070 102.8631783  55.3978300  63.7311792
 103.0099773  54.4520044  63.7214804 102.0376205  55.5169106  63.2615948
  74.0878703  32.6437465   4.4709833  74.7661707  33.1578246   4.0329607
  74.5579559  31.9019214   4.8516996  67.2870253  59.6757069   9.6159418
  67.6983618  59.3016091   8.8367899  66.3945102  59.8833599   9.3392999
  69.9141024 102.8190687  28.2431085  69.7580193 101.9689539  28.6544187
  69.3557166 102.8151205  27.4656637   6.0422167   1.4734832  18.7548025
   6.5034946   1.5331832  19.5913942   5.1481184   1.7512838  18.9539201
  87.0235155   3.6720125  12.8584917  87.2323678   3.1129733  13.6068781
  87.8680739   3.8358251  12.4388273  36.9850114  88.8095715  63.2722242
  37.5987330  89.4240144  62.8696878  37.5146377  88.0372599  63.4703691
  16.7868589  93.2732227  17.1600206  16.9979583  94.0347364  17.7001722
  15.8819293  93.4187534  16.8840654  83.2409189   2.1552745  21.1962373
  82.7283988   2.9337732  21.4141710  82.6190690   1.5739051  20.7585771
 101.7858003  96.4548901  17.2953470 101.4724468  97.3573616  17.2354658
 102.7300619  96.5192249  17.1522768  13.7567505  34.6051208  17.2325666
  13.7464126  33.9703838  17.9489668  13.8089403  34.0709392  16.4400060
  23.9747223  27.2489873  34.5817049  23.5164961  26.4308683  34.7739179
  23.3241638  27.9319183  34.7448309  96.1061714  53.5733978  41.9093950
  96.2002108  54.3001262  42.5252302  96.4018986  52.8054038  42.3982294
  98.7831757   3.7728254  12.0711477  99.1981528   4.6312562  11.9867666
  99.4245598   3.1603042  11.7110307  19.6682247   2.0340530  23.3312757
  20.3242620   1.4427272  23.7003095  20.1236042   2.8712407  23.2419737
  97.4572777  88.1353310  43.9608915  97.0608734  88.2328608  44.8266752
  98.3543323  87.8526237  44.1386564  12.0779070   6.1629621  28.4297521
  12.9440292   5.7996313  28.6143072  11.5311321   5.3984825  28.2485254
  82.5592480   2.4564783   7.1244486  82.2358457   3.1870834   6.5973241
  83.3078597   2.1191255   6.6325147   5.4692825  22.7289955   5.6517275
   4.8932966  23.2044402   6.2504156   5.1788172  21.8189279   5.7120664
  89.3321679   7.1866075  44.4555528  89.0756700   7.8149358  43.7805326
  90.2658770   7.0401136  44.3040331 104.3689678  37.7615157  23.3884485
 104.1163347  36.9008438  23.0543001 104.6098850  38.2602588  22.6077802
   4.9741110   0.5006400  33.9557035   4.0661272   0.3172008  33.7145670
   5.0942262   1.4275161  33.7490614  15.3232321  14.1338388   1.0002477
  14.8575338  14.8048297   0.5011327  14.7553095  13.3646289   0.9553869
  52.0791038   6.2555210  60.2465017  51.4304050   6.7673389  59.7633131
  52.8885063   6.3615695  59.7466428  24.0166354  75.8637428  81.2775040
  24.3204904  75.6346750  80.3991890  23.7978411  76.7938423  81.2202644
  44.8079967  41.4177370  84.0509033  45.4923916  40.7670498  84.2072392
  44.9312305  42.0662308  84.7440815 107.8439567  27.3479930  23.2058580
 108.1017420  26.7393438  22.5135191 108.0645845  28.2124845  22.8591497
  17.7489981  57.0098010  64.2698248  18.5856422  56.5462104  64.3064459
  17.0958313  56.3175289  64.1680772   8.3795341  10.3410665  21.4336450
   8.8231739  10.5865327  22.2455366   9.0721306   9.9753515  20.8833845
  38.9745506  15.7415525  50.4784830  38.5104545  14.9499647  50.2060182
  38.4084400  16.4600936  50.1966245  14.2215189   3.5833446  41.1291464
  13.4521564   3.1078807  41.4426000  14.9553427   3.1887285  41.6003282
  46.3447380  59.9735975  86.4808941  46.4616871  59.5853901  87.3479843
  46.6502190  59.2997265  85.8735943 102.2564790  37.3971359  17.6109369
 101.8279192  37.8936569  18.3081014 102.4341199  36.5412036  18.0008848
  92.0607266   1.9317523  50.7559545  92.3139617   1.3283721  50.0573595
  91.2115130   1.6077653  51.0561235 102.8880475  18.6245338  27.6301916
 102.0093915  18.8594524  27.3318441 103.4279153  18.6653606  26.8408258
  12.6613888  42.9383842  18.5593374  12.7336201  42.0227043  18.8287122
  13.0762895  42.9678718  17.6972349  76.4833521  98.4825304  66.2352808
  76.6033577  99.3909672  66.5120084  77.1961855  98.3245542  65.6162985
  22.0290741   6.6619436  27.6410921  21.7128691   7.5641147  27.5928457
  22.3537811   6.5695325  28.5367830  26.6352543  22.1927730  16.6153867
  26.5125927  22.3522178  15.6795652  26.5987953  23.0625621  17.0133455
   9.2185959   9.9665491  62.8028162   9.9737390   9.4985334  63.1591184
   9.5608505  10.8286420  62.5664003  58.3298205  98.7007740  31.4654882
  58.9648055  99.3610790  31.7430170  58.8399123  97.8942182  31.3913019
   8.3290982  75.1344490  86.4363194   7.9787171  74.6112442  87.1572399
   8.3541113  74.5317936  85.6930828  16.0500511  20.1076261  21.5036161
  15.7967409  19.6031848  22.2766645  16.9679149  19.8782817  21.3581617
  17.3796308  87.2033501  84.5855904  17.0317948  87.2528076  83.6952019
  18.2127118  86.7413521  84.4919586   0.3179368  30.8779804  41.6543062
   0.4194721  31.8297569  41.6609819   0.1431974  30.6621829  40.7382639
  98.5955236   0.2495996  38.3411367  98.3238409   1.1607639  38.2307108
  97.7911232  -0.2559765  38.2246740 100.0789331  68.5758713  44.7638471
 100.0913452  69.3595138  45.3133733  99.2657636  68.1299880  45.0008638
  84.7150778  89.2115810  34.2923124  84.0724491  88.7131074  33.7875517
  85.5584310  88.8282850  34.0513284 107.3107456  90.6652978  25.2379377
 107.3876642  89.7128680  25.1814039 106.7780470  90.8166459  26.0186823
  15.3876098  48.0167190  48.9405401  14.8520025  48.5879413  48.3900316
  16.2765154  48.1220619  48.6014612  70.2521251  87.2636249  46.1960085
  69.5157074  87.1343210  45.5983503  69.9739527  87.9793265  46.7675169
  36.8562778   7.2458593  26.1561735  36.7636474   6.4296810  25.6647451
  36.9971260   6.9661466  27.0606954  41.3250669   5.1395646  27.1876009
  40.7247146   5.8102981  26.8621404  42.1624740   5.3457919  26.7723234
  62.5219249  97.1547201  16.7970808  62.9555868  97.8405979  17.3047598
  62.4014496  96.4366796  17.4184759 102.3291013   6.7782155  58.8996942
 101.5791724   7.3666326  58.9868982 102.4036882   6.6232053  57.9580743
  65.8395592  15.5751554  16.6309698  65.9234265  14.6380988  16.4545496
  65.8500657  15.6409875  17.5858457  41.6743660  92.8741837  79.3873978
  41.5308380  92.9108715  78.4417295  41.4092493  93.7378788  79.7035789
 101.2562965  80.6206706  29.4397504 100.4362510  80.4428199  29.9003179
 101.9273733  80.1929262  29.9716528   4.0326437  34.7959987  37.4249704
   3.6892208  35.5740444  37.8642137   3.6135753  34.8021976  36.5644033
   8.7122568  20.8749906  35.3626115   7.8279527  20.7694188  35.0117643
   9.2484030  20.2737323  34.8456342  93.0360054  96.1606243  15.8414991
  92.8550743  96.3704756  16.7577131  93.8649391  95.6825378  15.8644636
  40.0311836  12.9579345  47.3407323  39.5481905  13.7613956  47.1473558
  40.7694086  13.2456437  47.8778417 107.9908537  96.8610552  20.0079115
 107.6779913  96.9265058  20.9101637 107.5239443  97.5544384  19.5416124
  60.5971512   5.0222436  36.2454469  60.8060154   5.7949106  35.7204778
  59.6480068   5.0618831  36.3628729  83.4917579  23.8570634  14.7830827
  84.0190003  23.3053485  14.2052896  83.2702789  23.2885448  15.5206258
  45.8414841  84.1966152  83.8448334  45.4186010  84.4971180  83.0404091
  45.2022600  83.6077404  84.2458820  89.6916269  85.0295499  25.9119184
  89.1153454  84.2741993  25.7953890  89.1032575  85.7445290  26.1545236
  39.2129406   0.9823696  35.2085359  38.4399208   1.3213531  35.6599291
  39.8126730   1.7273084  35.1682623   5.2446398  10.3733198  28.0883081
   4.8514875  10.5009214  27.2249563   4.6246656   9.8113433  28.5531194
  78.4654545  96.2862947  51.8580110  79.2084097  95.7731512  52.1757085
  78.8351511  96.8450954  51.1744173  91.1116194  98.2464197  32.6634939
  90.2226614  98.0483845  32.3689325  91.6049932  97.4442604  32.4921568
  51.1978325  19.2463199  57.3674925  51.7349323  19.9390642  57.7520139
  50.3874763  19.6862642  57.1105917   9.2945703  44.7046081  16.8825014
   9.3512472  44.2445175  16.0450418   8.4067520  44.5275871  17.1934278
 107.3009371  89.7650173  21.5578992 107.1553873  90.1799944  20.7076986
 107.2857403  88.8261822  21.3719137 105.2775261  17.9906837  17.2366388
 105.9458349  18.1021491  16.5604932 105.1352785  17.0450679  17.2792204
   0.4689297  14.6001474  43.0391271   0.2804526  14.2467300  43.9084966
  -0.3696195  14.9470941  42.7346666 105.5282519   5.0026647  17.5759084
 104.7808788   5.3406230  17.0824964 105.3770635   4.0586559  17.6229627
  71.4828514  91.7969969  33.0575616  71.0194038  92.0060518  32.2465475
  71.1707972  90.9233525  33.2933672   6.1785898  71.1055806  23.2239874
   6.9853602  70.7313302  23.5779436   5.9095917  70.4918411  22.5404699
  77.3080829  25.7085554  17.0752866  77.7638719  25.8839361  16.2520368
  76.3958297  25.9374849  16.8974645   2.3822960  19.9417917  15.0348623
   1.8593701  19.1539041  14.8865183   3.2786592  19.6766511  14.8288019
  92.4637899  76.6508190  28.1799753  91.9786499  76.8319026  27.3749406
  91.8039677  76.6939060  28.8720758   4.9260696  37.4773590  14.5558698
   4.2165788  37.2931281  13.9403112   5.0419601  38.4264461  14.5106752
   8.9655861  23.8019029  22.4253805   8.6633190  24.3319599  23.1628759
   9.8405393  23.5108796  22.6822813  79.3540357  55.7433277  24.7032125
  79.7715353  56.4316478  24.1853864  79.1592478  55.0522163  24.0702398
  46.4536556   3.9908067  52.7231081  46.7916950   4.8480169  52.4639661
  46.3251480   4.0600244  53.6691148  52.8682899  34.6670270  86.6140747
  52.1718168  34.6493888  85.9576893  52.8846931  35.5733371  86.9215965
  84.9383711  98.9139345  15.0889070  85.4223751  99.7012165  15.3382166
  85.4385208  98.1936911  15.4727419  87.4520049  19.1499559  36.0204942
  87.4423454  19.5394508  36.8948133  88.3700035  18.9254991  35.8684118
  12.8852352   7.1793310  53.6569364  12.1481832   7.7138130  53.3614595
  13.0382141   7.4601118  54.5591505  29.1763401  29.7535706  80.0795364
  28.6832404  28.9687943  80.3187180  28.9263010  30.4030967  80.7366753
  18.2261404   5.7378856  24.4457109  18.7494072   5.3181163  25.1285131
  17.3192343   5.5857173  24.7114046  98.0238937  97.1210745  45.7877882
  98.0362200  96.5705564  45.0048406  97.1195434  97.4284437  45.8502538
  94.3168447  34.4678775  20.3322179  95.1673195  34.2300598  20.7014902
  94.4526217  35.3391353  19.9597795  18.4802469  17.3937980  45.3463800
  17.7699360  18.0279104  45.2484186  19.2707189  17.9288045  45.4181821
  28.2491335  10.3444950  24.9638899  29.1822656  10.3925315  25.1717146
  27.9488739  11.2527028  24.9990041  56.0574030  86.0912421  50.9322221
  55.9123980  86.8142870  50.3219659  55.1778303  85.8154896  51.1901815
  33.7880119  17.9558078  23.1046064  33.8864931  18.9079086  23.0981214
  34.5123943  17.6437847  23.6469610  33.3232769   9.4943801  31.9121893
  33.9653524   9.9173108  31.3420160  33.4391006   8.5581199  31.7502172
  65.6028986  87.4618340  74.3317699  65.7875347  87.7264118  73.4305811
  66.4520025  87.1903896  74.6804380  87.1333479   7.3527444  82.4317646
  87.7065824   7.9072965  82.9610157  87.3982881   6.4587987  82.6483059
 106.1304662  14.1784183  49.7883089 105.8812497  15.0957242  49.6757372
 106.9101951  14.2083684  50.3427084  45.9266520  81.6137409  45.2842045
  46.7455769  81.8886566  44.8718691  46.0751152  80.6994152  45.5254555
  23.7662014  22.2929899  18.3717020  24.4745478  21.7256109  18.6759241
  23.4528335  21.8756048  17.5693185  21.9138893  56.3467685  40.9483202
  21.4608129  55.7826892  40.3216131  22.8189930  56.0353938  40.9400613
  31.4895805  29.0222446  35.8945806  31.4230188  29.7747604  36.4823969
  32.2841533  28.5684196  36.1755140   9.1711792  12.4562112   8.3304746
   8.8801607  11.5449802   8.3649786   9.9246677  12.4448196   7.7402551
  78.4769272 102.9500177  27.3907716  79.1789793 102.5769689  26.8576677
  77.9142593 102.2048214  27.6012952  19.1716083  13.0208055  24.9416788
  18.4694227  12.7671329  24.3426664  19.4734939  12.1950857  25.3202112
  77.1089386  85.2783468  23.7000330  76.3311886  85.3191069  23.1435449
  77.8047823  85.6639531  23.1677396  59.1850876  72.4553993  20.2411039
  59.8792766  71.8531778  20.5088003  59.6229743  73.0874231  19.6709879
  53.2828569  44.2847013  78.4817076  52.5627708  44.3572426  77.8552532
  53.0884123  43.4903908  78.9791965  72.3171257  91.1977246  26.5497930
  72.7340888  91.8754604  27.0818193  73.0019544  90.9132317  25.9445627
  23.2656598  29.8538303  79.4214392  23.2787800  30.0197101  78.4788132
  24.1697621  29.6249604  79.6369648  94.8486303  66.7508438  18.3979185
  94.1636776  66.4502278  17.8006704  94.4297193  67.4377695  18.9164598
 102.7276633   1.1203615  18.1200559 102.3736212   1.6791908  17.4282415
 103.0510972   1.7328731  18.7806947  31.5208745  17.8249848  74.4422007
  32.1219516  18.5553336  74.5889235  32.0900273  17.0854962  74.2290020
  17.7911687  57.3915815  75.6031752  17.2794473  56.5890980  75.5012178
  17.8765213  57.5025415  76.5500832   8.3696002  50.2299356  83.0023384
   7.9954863  49.4624519  83.4350491   7.9893035  50.9757137  83.4664631
  86.4946245  90.7360962  14.7928770  85.9185814  89.9864581  14.9426992
  87.2816633  90.5386188  15.3006227  93.9034008  84.7344592  42.5123747
  93.4336494  84.7246054  43.3463152  94.8256420  84.8083260  42.7578218
  92.5806164  69.6088138   7.9155405  92.5767111  70.5624178   7.8327425
  91.9212078  69.4237652   8.5842569  32.0725012  35.5095553  85.0837612
  31.1271787  35.3949594  84.9864769  32.3992229  35.5766511  84.1865540
  98.6258671  29.8120300  22.4580534  99.0175817  28.9570133  22.2799070
  98.6762593  30.2772323  21.6230161  37.8428936  42.5037527  80.9031963
  37.9204631  43.4354734  81.1084080  36.9258070  42.3888779  80.6542206
  97.1514868  96.6437796  31.2847955  97.1407102  95.8954599  30.6880243
  97.2950386  97.4008921  30.7169874  87.2232317  87.8843429  23.5467012
  87.3699020  88.7068537  23.0795915  87.7676271  87.2464517  23.0852277
  61.0012722   2.0033759  78.4564590  61.9249344   1.8876685  78.2335567
  60.9881735   2.0375806  79.4129610  30.5496883  13.0312586  86.6301823
  30.8903074  12.1940744  86.3150120  29.6700859  13.0877590  86.2568951
  79.1524385  51.7098008  29.7134645  79.4961427  51.8175171  28.8266142
  78.3541416  51.1939910  29.5999391  62.7417325  81.0755995   8.2828291
  62.6324891  82.0109966   8.1115682  63.0956076  80.7223895   7.4665887
 102.6747408  94.7689520  67.6501465 103.1873121  95.5140476  67.9637337
 102.8261580  94.7548317  66.7051029  87.3429416  86.7932895  26.9116361
  87.0731567  86.1257174  27.5423486  86.6228842  86.8330362  26.2822111
  76.7330288  81.4820722  22.4089391  76.3893889  82.0768812  23.0755289
  76.4456199  81.8613460  21.5784128  37.6526022  20.4028797  72.7835989
  38.3273101  19.9979317  72.2386074  37.6711321  21.3282752  72.5396061
  79.8950218  99.2359331  11.3780172  80.7267545  99.0979221  11.8312318
  79.3013834  99.5536879  12.0583494 103.9525961  96.8021849  38.7665517
 104.1616987  96.0585525  39.3318041 104.5314525  97.5023916  39.0679987
  88.6835693  57.9245159  27.4706419  88.4861301  56.9931105  27.3719843
  88.2803415  58.1678757  28.3039529  73.9249681  83.3496979  17.8315313
  74.0179776  82.4202016  18.0403764  73.8397192  83.3736732  16.8784387
  71.5650462  79.4589570   8.2294901  72.3708867  79.1316798   8.6291654
  71.1433457  79.9672487   8.9223344  79.7927688  86.9139293  19.8348386
  80.3683780  86.2680843  20.2444608  79.5922827  87.5345757  20.5354364
  92.0645117  94.5534733  39.4612177  92.5923704  94.9844387  38.7890108
  92.6816820  94.3705776  40.1696546  55.7433590  10.3465978  29.2204626
  55.1836666   9.9763481  28.5378988  55.1888641  10.3660909  30.0004537
  61.2664032  32.2605062  79.5048857  60.6963491  32.6766849  78.8583088
  62.1485662  32.3633480  79.1478968 108.1052231  64.5298961   1.0034425
 109.0100597  64.6016219   1.3073499 107.7942156  65.4341951   0.9616144
  88.1540321  84.7260740   8.7111814  89.0837263  84.6891096   8.4863622
  87.7140259  84.2863849   7.9836519   3.0706749  71.6917160  26.6429098
   2.7482281  71.1103931  25.9542043   2.9905853  71.1782053  27.4467332
  67.8368043 100.6677320   8.1831415  67.6185941 101.4794805   8.6410482
  68.1549214 100.9538391   7.3268850  79.9707912  97.3624542  34.0930040
  80.3494285  98.0322674  33.5236032  80.3721880  96.5443161  33.8001402
  90.9238217  20.1411525  44.8532064  90.8500621  19.9405662  43.9201696
  90.0241683  20.1041595  45.1779993  31.1476120   9.7209922  25.6722696
  30.7418236   9.2451612  26.3969381  31.9775184   9.2679492  25.5231435
  97.3626874   5.9296266  38.1872995  96.9658253   6.5403644  38.8083704
  98.3020518   5.9869281  38.3620603   3.7438091   0.7676927  45.7593401
   2.9664120   0.2640668  45.5179937   4.4399771   0.4134265  45.2060945
   5.2747506  52.9029322  86.2921906   4.5291314  52.8650951  85.6931400
   5.3730607  53.8334846  86.4937592  21.3420830  92.9568937   5.6443460
  22.2601471  92.9751947   5.3740461  21.2290917  92.0975616   6.0505636
 101.6013740  81.6346147  36.5500505 100.8331655  81.4739015  37.0980127
 101.7474722  82.5784829  36.6133173   3.2536134   5.5000011  28.5123499
   3.2548364   5.2245418  29.4290598   4.1626629   5.7404271  28.3332975
  91.6073011  93.4443119  28.4105165  92.2487091  94.0689352  28.0718858
  92.0718693  92.9763964  29.1043909  81.1552356  70.8524444  15.4818590
  81.0164284  70.2078619  14.7879751  81.5262960  71.6118505  15.0325830
  16.2059283  36.8487620  85.4934311  16.4630282  37.1013951  86.3801765
  16.5452707  37.5496602  84.9368191  63.8262177  36.4094925  74.5205545
  63.2604265  37.0263028  74.9849415  63.6788797  35.5719113  74.9598503
  64.1443204  90.8666876   7.1995790  63.6255430  90.0628951   7.2315176
  64.7468661  90.7339409   6.4677675  -0.0360624   1.4361802  18.0599458
   0.5079063   0.9267990  17.4592264   0.2685460   1.1836616  18.9315469
  85.6888651  97.0109632   9.7622640  86.4099144  96.3860538   9.8385008
  85.0918554  96.7756107  10.4724939  29.2851663  17.5051653  76.2737036
  29.8789573  17.8167820  75.5906630  29.8339844  16.9605529  76.8379974
  59.4774675  20.8773088  74.5119429  59.8466444  20.4429054  75.2808571
  58.8062191  21.4608264  74.8657274  62.1473025  81.0209325  21.2018831
  62.1676873  81.6681054  21.9068487  61.7663764  81.4884236  20.4585226
  52.9362377  11.7659131  40.2804144  53.6281952  11.2712566  39.8413904
  53.2652553  11.9009248  41.1690862   4.5619450  70.2009287  13.8674886
   4.0757332  69.5380297  14.3577917   4.0450964  70.3387406  13.0736978
  58.7502860  98.5983637  13.9892538  59.2451977  98.9095762  13.2313306
  59.2164134  98.9582231  14.7438772  50.6472193  67.8043785  17.2256620
  50.7971452  68.3212271  16.4340742  50.8929168  66.9125870  16.9795473
  35.3797841  40.5377102  79.8033237  36.0338402  39.8458505  79.7044611
  35.1885080  40.8162260  78.9077377  38.7499547  11.5051925  80.3816891
  39.6644282  11.7855060  80.4190445  38.2478428  12.3036373  80.5447865
  36.2361789  49.1791105  88.0206299  36.7122698  48.3487320  88.0149174
  35.3658009  48.9584637  87.6889896   1.8379841  69.1350272   7.9241045
   1.3193235  69.5669618   7.2453935   1.8609867  68.2155195   7.6591451
  77.6050781  70.7477179  22.3068388  77.2920870  71.2512889  23.0582960
  76.8399690  70.6666687  21.7373903  78.7367462  77.8325799  24.1543634
  78.4240412  77.0768693  24.6517046  78.8800930  77.4948147  23.2702882
  10.2831039  92.8521612  28.7047727  10.3955994  93.1848171  29.5952280
   9.6357021  92.1523455  28.7905271  94.0051187  52.8133011  84.5312500
  94.4435049  53.2959890  83.8304996  93.9082886  51.9256449  84.1864109
  66.4516019  94.8593929   8.5702856  67.1286081  95.4340914   8.9275224
  66.5445255  94.0443733   9.0635736  23.5310936  42.3858881  60.1025295
  22.6943421  42.3232508  59.6419239  24.1886616  42.2094631  59.4296932
  65.2946377  35.1742268  84.3888283  64.9365616  35.9431028  83.9451599
  66.1271954  35.0085545  83.9465237  97.2020363  70.9763506  16.9569070
  96.4852546  71.4949658  16.5915449  97.7361034  70.7384756  16.1990030
  33.7814093  34.0095377  86.6669750  33.2108998  34.4984841  86.0739422
  33.7520695  34.5015955  87.4874878  70.5905174  67.1048799   8.8222749
  70.1655840  67.9420522   9.0088422  70.4239916  66.5730694   9.6005304
  30.4770740   9.1532794   0.8625372  31.1218962   9.0912143   0.1578577
  30.6400474   8.3816329   1.4049680  89.8892473  82.1733168  14.6034868
  89.5478510  82.0095327  15.4826028  89.1124271  82.1920922  14.0445287
  15.8145189  72.6012421  85.7219601  15.5777216  73.1131697  86.4953232
  16.7280805  72.3555803  85.8678532  70.1827000  70.3168884  17.5048406
  70.8109735  69.7373846  17.9357488  70.6632160  70.6804123  16.7610796
  42.9822874  37.9606724  78.7102938  42.9468012  37.5693035  77.8374815
  42.5469971  38.8073683  78.6110067  44.8747873  48.9391422  64.2819071
  44.6506500  49.8268986  64.5609808  44.0304899  48.4999228  64.1795111
  80.2136015 100.1594141  14.2503030  80.2746605 100.6508329  15.0694521
  81.0298847  99.6612623  14.2084272 106.7623543  97.6660564   6.1446817
 105.8783172  97.3674992   6.3581808 106.8537592  97.4932459   5.2076585
  73.5809969  91.8160417  12.9464491  73.0119704  91.1667016  13.3597238
  72.9782461  92.4358251  12.5356062  79.2265342  76.6473201  13.1345804
  79.9508737  77.1329525  13.5292013  79.4535993  76.5907672  12.2064264
  76.9478773  90.4839876  22.2540910  77.4101900  91.0006144  21.5940912
  76.0781144  90.3414967  21.8806703  22.6968646  55.7269955  61.0485601
  21.7592955  55.7251930  61.2414217  22.8540492  56.5742874  60.6318855
  76.8359016  94.5383623  16.0979707  76.5438436  94.8200395  16.9649179
  76.0416149  94.2191723  15.6696565  32.9723668  39.9570513  84.4780922
  33.7637401  40.2599287  84.0328598  32.2893786  40.5633736  84.1915035
  67.6198529  84.3821433  14.9786432  67.0298456  84.9887302  14.5312364
  67.2800874  83.5139015  14.7619779  35.3820428  71.8256762  19.9621446
  35.8402264  72.1277645  19.1779001  34.4561611  71.9760850  19.7714861
  68.8438462 100.6686571  65.8735712  68.9957093 100.1547125  66.6666849
  68.4652303 100.0456551  65.2532919  65.6677078  96.6622093  23.8624818
  66.3271354  97.2792986  24.1796262  64.9250554  96.7798689  24.4548090
  15.9259975  60.5203867  81.3530064  15.7497609  61.0146046  82.1535778
  16.6298509  59.9179077  81.5935040  90.9217047  87.5153711  31.8236406
  90.8668541  88.1482175  32.5396879  91.0583805  86.6734388  32.2580392
 105.9537385   2.3105613  17.6908834 105.5897090   1.4510862  17.4787004
 106.7409656   2.1181194  18.2002695   7.4775320  19.0017879  79.4366884
   8.0223560  19.5132923  80.0348186   6.9956851  19.6570086  78.9319706
  92.5514864  94.3784883  22.2258051  91.7874931  93.9128569  22.5660093
  93.2275032  94.2474392  22.8906782  42.3910348  93.9907577  20.6675203
  42.3461657  93.8038376  21.6052206  41.9071983  93.2740858  20.2570112
  58.5298942  74.0014317   7.6575716  58.0779504  74.7907999   7.3594530
  58.6173080  73.4637788   6.8704755 103.3023142  90.4606941  40.4834039
 103.4796737  91.3251427  40.1125963 102.4626230  90.2042129  40.1021345
  41.5822649  43.0253124  85.1862049  41.8836117  42.4456930  85.8858204
  40.6857634  43.2525587  85.4329300  43.3944749  91.4872291  26.7869814
  43.2972311  90.7426145  26.1934145  43.2292120  92.2540167  26.2383897
   0.8971223  13.1027118  24.2247350   0.0987324  12.5919334  24.3585451
   0.7918390  13.4882585  23.3549650  60.8444548  60.9751749  85.8066177
  61.0356855  61.7883635  85.3392982  61.2419176  61.0954046  86.6690540
  53.4719812  99.3376234  56.7881925  53.3809541  99.1887072  57.7293451
  52.6094507  99.1306475  56.4284284  58.3252739  76.7451790  11.3589819
  57.9006146  76.8722251  10.5105932  58.9782833  76.0635450  11.2002714
  36.1092552  23.7188999  13.2708414  35.8866342  23.8984910  12.3573835
  35.3704580  23.2078735  13.6014040  11.3318882  91.3533738  21.4650686
  11.9826374  90.6633332  21.5938528  11.8262920  92.1682814  21.5529401
  70.4367399 101.6640759  81.5810585  69.8834991 101.7435837  82.3581314
  71.2957001 101.9762230  81.8656349  37.8948712  31.4110947  71.3159752
  37.8267932  32.3237705  71.0355854  37.1632051  30.9720612  70.8822155
  74.1854857  94.3206098  22.2683485  73.8467191  93.6910990  21.6317995
  75.1319741  94.3198564  22.1255357  83.1490825 100.1930311  13.4124811
  83.8195347  99.7437361  13.9271219  83.2321190  99.8213270  12.5343187
  66.0726045  98.7527063  31.3613565  65.3067850  99.2974976  31.5429075
  65.7561587  97.8545931  31.4587553  91.1917900  82.9926136  36.2331159
  91.9869636  83.5253170  36.2456854  90.4769777  83.6292270  36.2339647
  47.1183025 100.4621246  42.0983656  46.2878476 100.9372261  42.1275861
  47.2063326 100.0797346  42.9714353  40.8692583  13.9798871  36.5894659
  40.1186308  13.5790483  37.0277746  41.1601766  13.3194486  35.9606416
  21.2431225   0.3035966   7.3087461  21.3680109   0.4045478   6.3651140
  20.4833731  -0.2730330   7.3894556 102.0178579 101.5767792  49.2085226
 101.2364172 101.0523155  49.3832357 102.7428030 100.9549883  49.2722662
  31.6816711  -0.1003692  63.4113932  31.5052056   0.8031226  63.1491089
  30.8551073  -0.5591492  63.2612467  46.3183396  65.4089823  10.7104356
  45.7535421  65.2351895  11.4634569  46.7289280  64.5657018  10.5193193
  99.8511623  99.7455910  14.5599039  99.1749643  99.1578939  14.2228658
 100.1414560 100.2409246  13.7939985  42.9577446  35.4534483  62.4688673
  43.1640625  34.7224998  63.0514288  42.3932743  36.0237265  62.9907751
  95.2117132  77.3915317   6.8662603  95.5842994  76.5473941   6.6116197
  94.2838835  77.2088507   7.0145757  31.0517979  28.0008817  79.0573692
  30.5395722  28.5729480  79.6288586  31.7200398  27.6255918  79.6308231
  40.1340284  61.6289404  24.4690378  39.4392805  62.0699420  23.9800890
  40.9131368  62.1623912  24.3120248 108.2074346  98.7608140  84.9796104
 108.4916749  98.8703605  85.8870506 108.4109082  97.8485142  84.7733593
  96.8411325  88.0662039   7.8532369  97.1573232  88.5558966   8.6124857
  97.5208877  88.1870559   7.1902425  87.1641897  54.2719725  26.6326387
  86.2190555  54.3597144  26.5091093  87.2557853  53.6086231  27.3166044
  80.3209947  54.0158272  30.7230146  80.3948997  54.5980719  29.9668653
  80.0624918  53.1723955  30.3514917  51.8456539   2.4015943  49.9156530
  50.9055504   2.2799484  49.7828729  52.0288929   3.2676450  49.5514925
  60.2645086  93.2212284  25.7574613  60.1878117  93.5181597  24.8507269
  60.1452206  92.2726849  25.7097681  64.8084973  89.7086623  28.5524137
  65.5721020  89.3638637  28.0895383  64.9690341  89.4951632  29.4715841
  86.6497968  46.2937805  18.4896143  86.2457823  47.1172073  18.2158048
  85.9283947  45.6647244  18.4995992  23.0820640   1.3844100  17.6785143
  23.1572613   2.3313037  17.7966936  22.1454414   1.2323896  17.5525720
 100.3797436  51.5765047  79.3305635 100.8955479  51.9662666  78.6246920
 100.8397961  50.7644796  79.5431519  13.0989063  68.2640409  86.1929131
  13.1773746  68.7029076  87.0399570  12.1834016  67.9879045  86.1501312
  77.4347519  86.3764265   7.0712526  78.1541704  86.1928156   7.6753767
  76.8612551  85.6133988   7.1428068   0.5027040  19.5649997  38.0267294
   0.7611092  19.3358938  38.9194543   0.3401884  20.5077545  38.0589063
  87.1546588  14.9725238  28.0573900  86.4617453  14.3338815  27.8893621
  86.9002936  15.3911153  28.8797720 108.5177540  81.5285280  31.3382967
 109.4639276  81.4351514  31.4490373 108.3766769  81.4367750  30.3960092
 100.3779838  32.7932063  37.8418977 100.3970668  33.5723678  38.3975752
 100.9232590  33.0223457  37.0892961 104.9244926   8.7851850  12.3451097
 104.1576145   9.3271057  12.5307138 105.3753064   8.7119714  13.1863172
  85.3492092  94.1997459  48.1970365  85.9097313  94.5285490  47.4942358
  85.9596895  93.8572433  48.8499029  17.6989826  15.6097976  77.7646883
  16.7667421  15.5149213  77.9600389  18.0856880  15.9156982  78.5851343
  19.0191540  19.8373453   8.3230169  18.1892904  19.4936220   7.9922350
  19.6620592  19.1628305   8.1040914  62.6686691 102.9912403   3.2625158
  62.5717853 103.5601309   4.0261991  62.8222750 102.1209028   3.6301382
  37.4800777  57.4840641  82.7273083  37.8927612  56.6825628  82.4055576
  37.6034212  58.1174231  82.0202923  93.3848140  62.3506061  24.0157755
  92.7452955  62.7996150  23.4629305  92.9746649  61.5109054  24.2229326
  28.1831058  10.1749221  22.2341688  27.9243692  10.6234924  23.0391939
  28.0832657   9.2445222  22.4357183  36.9412645   6.5803996  60.8696897
  36.4248880   6.8548194  61.6275079  36.3462242   6.0293666  60.3612478
  60.7388195  21.4820234   6.8341215  60.2876171  21.7326013   6.0279806
  60.3778824  22.0652381   7.5018175  55.3420496  32.9550815  69.1112232
  54.5994091  32.9689193  68.5074663  54.9603081  33.1582904  69.9651623
  24.9826273  21.5220682  23.6216600  24.7916969  21.8309728  24.5072992
  24.1489490  21.1751644  23.3040674  42.3005276  80.4021910   3.9275606
  43.1100594  80.4876640   4.4311292  41.6049026  80.5818036   4.5600755
  62.4491739  40.3909874  82.4286366  62.5716877  40.7295942  83.3155251
  62.7421331  41.1017179  81.8583107  75.2424191 100.4511002  24.8705061
  76.1466144 100.2055910  24.6745737  75.3185915 101.1320761  25.5388696
  28.1602154 102.0244673  21.9708974  27.5497780 102.6598862  21.5969427
  28.1027947 102.1647194  22.9160268  39.5943022  47.4437332  84.0288734
  38.6838841  47.5086021  83.7404919  40.0097132  48.2370949  83.6908722
  96.9223903  92.0242956   1.9023950  97.4645065  91.3783386   1.4495332
  97.5106882  92.7628687   2.0593984  76.7414688  79.1290095   9.8469503
  77.3554968  79.8595241   9.7724970  76.2445592  79.3140676  10.6438596
  82.7596257   8.5706416  43.5475881  83.6136589   8.1748334  43.3738191
  82.8605220   9.4844953  43.2812555  65.4000950  79.5628500  85.4527283
  65.9719467  78.8262606  85.2367210  65.2058220  79.4503927  86.3832378
  76.5791105  61.6140500  10.3337629  76.4171194  61.1103406   9.5361002
  76.8215727  60.9573719  10.9866197  72.7013396  88.3044103  34.7123964
  73.0484341  88.7215426  33.9238794  73.3743833  88.4511187  35.3770216
  13.2493194  15.3457061  13.1216009  12.7076420  15.6967727  12.4147947
  12.6208385  15.0140563  13.7628896 106.9226478  93.9162472  56.1923750
 106.8791317  93.6407736  55.2767046 106.1761068  93.4848049  56.6080339
  51.8824943  28.7255184  44.7974260  52.0156273  29.6651260  44.9225099
  51.5308651  28.4200231  45.6336362  40.7518181  21.0684196  13.5434015
  40.7185825  21.7336503  12.8559549  39.8658880  21.0537664  13.9055498
  62.6942968  42.1089363  84.6671581  62.3310471  42.9813862  84.5151234
  63.5951900  42.1657658  84.3487358  98.5237621  96.6191843  33.4295805
  99.3565868  96.1612013  33.3160646  98.0651163  96.4915827  32.5991590
  68.0241093   3.8346855   3.7511118  67.4025711   3.7111465   4.4685037
  68.4026226   4.6996776   3.9084203  21.1972269  21.9286481  46.9584139
  21.0612091  22.0541707  47.8975542  20.4593977  21.3861553  46.6799505
  75.7584095  34.2733383  72.8173780  76.1819983  35.0139594  73.2512903
  76.1071777  33.5022688  73.2646418 101.0644363  80.9548858  21.4535864
 101.9666265  80.8747342  21.7631967 100.5536197  81.1236885  22.2452886
  86.8015646  94.2744568   2.4909361  86.3739036  93.8623550   1.7402609
  87.4691700  93.6443069   2.7619417  27.9321122  49.6220207  79.5859003
  28.1117582  49.4389057  80.5080891  28.6527371  49.2045689  79.1140223
  99.9423622 101.0604027  57.9813917 100.3182243 100.5140427  57.2911413
 100.5419134 100.9586075  58.7205846  96.8574784  23.9609090  16.0943468
  97.2564051  23.4122173  15.4190500  96.0563586  23.4969226  16.3375814
 105.1715254  88.7285974  11.4491422 104.2317127  88.9102033  11.4509542
 105.2317451  87.7769854  11.5330656   4.5608314  32.0286933  39.8491151
   4.5226797  31.5163700  39.0414674   5.3574642  32.5523464  39.7631700
  48.3248949  58.4469366  85.3626060  48.5591698  58.9534283  86.1402988
  49.0198660  58.6393547  84.7331429  21.3242111  97.2259262  14.1258009
  20.4156647  97.3927906  14.3766363  21.5692291  97.9838922  13.5950620
  54.2861923  28.0175916  20.4556329  53.6540397  27.3007814  20.4027326
  54.8633560  27.7749959  21.1796816  75.4282068  87.8487351  23.6580999
  76.1560749  87.5979021  24.2268903  75.8434247  88.0900052  22.8300817
  14.2751917   8.3084670  17.3070295  14.3999943   8.0493966  16.3940485
  14.7015318   9.1628591  17.3739774  68.2139348 100.2074602  49.2823942
  68.5089206 101.1148241  49.3592127  67.9209136 100.1268986  48.3747156
  14.9624952  13.2840768   8.3724268  14.6037563  13.8409702   7.6814802
  14.2965778  13.2964031   9.0599115  88.1093334  94.9389294  17.3897607
  88.2988046  95.7582882  17.8469045  88.2414125  94.2596224  18.0510671
  17.0439609   5.4596654  36.4960916  17.1132788   5.8655349  37.3602159
  16.5315231   4.6650401  36.6451223  89.1807054  99.4380548  66.1123521
  88.2432674  99.4890716  66.2990053  89.2279981  99.2120150  65.1834257
  12.2914585  13.3573953   3.1480463  13.2152256  13.1875316   3.3325346
  12.0180782  12.6231328   2.5981767  74.6118116  64.7627974  75.3022766
  75.4439545  65.0066233  75.7076454  73.9578485  64.9234533  75.9825373
  42.3315907  31.8476295  80.0193501  41.6790628  32.0973921  79.3650913
  42.3418665  32.5777626  80.6382465 105.1169202   3.3578197  41.9862135
 104.4700978   3.6140386  42.6436384 105.3398678   2.4540178  42.2090776
   8.9312347   7.7520505   8.9736993   8.9391168   7.3842088   9.8573644
   9.7991451   8.1418601   8.8687761  27.8974676  59.3688726  71.8418169
  27.5289369  58.9662266  72.6281309  27.8181529  58.6941099  71.1675501
 108.9248346  68.4045270  14.2781980 108.2190536  68.5124185  14.9157484
 108.7061523  67.5969603  13.8131769  26.3223871   5.7437984  52.8823812
  26.7382797   4.8939029  52.7376611  25.5095037   5.7015315  52.3787363
   0.2910957  94.4814089   7.2403104   0.2967272  95.4022530   7.5015504
  -0.3461876  94.4385984   6.5273817  84.2551517  49.1540098  81.9723797
  84.3615723  49.4829750  82.8649521  84.3707848  48.2070589  82.0507431
 106.5006660  80.5271414  23.3262975 106.7235111  81.4579466  23.3132608
 105.6167148  80.4873541  22.9612119  53.7133598  56.6949415  84.5640373
  52.8598309  56.3489199  84.3032837  54.2896032  56.4912081  83.8273811
 104.9643396  85.2693537  23.7475546 104.7462772  84.5298865  23.1802232
 105.7018541  84.9588921  24.2728384   5.2246103  66.9772604  15.1700170
   4.4074593  67.4664309  15.2659567   5.4137192  66.6518703  16.0501249
  38.7254551  92.9002455  15.8762701  38.3489143  93.5455349  15.2779062
  38.5080578  93.2274940  16.7491300  82.7404236  80.7572892   1.2124021
  83.4009765  81.4387014   1.0875948  81.9643186  81.0907200   0.7621629
  69.1922903  48.2358789  85.8119297  68.6035013  47.4925089  85.9421444
  70.0151396  47.9637098  86.2182236  12.7620539  10.7759181  25.4727228
  12.2398790  10.0998155  25.0409277  12.4547561  11.5973083  25.0891550
  75.2867270  73.8220119  76.1960411  75.1537132  74.7469854  76.4033079
  74.7357035  73.6668158  75.4288912  10.6326708  48.5258857   6.7495878
  10.7941946  47.5933067   6.8925722  11.2686714  48.7793151   6.0806329
  63.1170034  69.9809694  83.0063629  62.5792837  70.6800747  82.6344204
  63.9396143  70.4105425  83.2409191  80.2978872  95.3073051  20.6193311
  81.2270521  95.1800230  20.8108575  80.1520466  96.2439421  20.7522638
  12.3287138  12.3303357  37.5349672  12.6655516  11.5077201  37.1799047
  11.4757952  12.4411146  37.1148546  39.6116527   3.2587901  56.3338907
  40.0875696   3.1235782  57.1533163  39.4506677   2.3755685  56.0018690
 106.2721514  70.9817281  50.5712946 105.5730556  70.3307953  50.6327875
 106.0454677  71.5047386  49.8023279  70.1335787  78.1944921  34.2485483
  69.7026514  78.9103845  34.7154863  69.9171923  78.3442667  33.3282335
  88.7288545 100.8160856  24.4061620  88.3318018 101.1963537  25.1897295
  89.4090198 100.2320888  24.7416551  37.4009069  31.3104335  30.3484781
  36.8183597  31.9475356  29.9349840  36.9208225  30.4834739  30.3051145
  83.7624143  86.8609240  18.4409292  84.1324209  86.6336182  17.5879057
  82.8941940  86.4579060  18.4404905  52.5001860  68.4300995  87.1625423
  53.0495882  67.9052448  86.5803719  51.8735695  67.8055906  87.5280190
  13.3870754  92.5109604  27.6691682  13.3217774  91.7597511  28.2587965
  12.9696236  93.2275703  28.1471212  22.5759205  14.5340911  53.4588010
  22.5466522  14.4212381  52.5087316  22.2408136  15.4186527  53.6053617
  23.5462745   5.7382909  42.4830778  23.1536993   5.6860534  43.3545072
  22.8305515   6.0225574  41.9146021  54.2739820  68.8045645  72.2691965
  54.9967337  69.3112707  71.8989134  53.7958527  68.4773207  71.5072680
  12.8533387  95.8180904  75.3418922  12.7005231  96.7334938  75.5762386
  13.0516243  95.3878117  76.1736250  67.7360176  73.2092812   2.7159364
  67.2367619  73.1734851   1.9000394  68.1322407  74.0806249   2.7162511
  90.3956913  90.8685592  20.4050310  89.8456882  91.3862064  19.8170049
  91.2093471  90.7372358  19.9182565  13.2838854  11.1326448  32.3590715
  12.5810894  11.3114540  32.9838426  14.0888342  11.2898342  32.8526075
  49.4189941  90.8249762  45.8384473  49.9941288  91.5901115  45.8342130
  49.3659567  90.5702999  46.7596204  49.4131480  92.7686050  12.0909269
  50.0788449  92.3389891  12.6280553  48.7197958  93.0003908  12.7087934
  18.4587416   0.8539335  10.8974512  18.4693941   1.3825361  11.6953809
  17.9153904   0.0975267  11.1184747  86.3155912  90.9986523  30.5054815
  85.3593897  90.9588149  30.4874761  86.5924476  90.0839403  30.5592020
  99.7440552  70.6978455  32.6363428  99.5558428  69.8338344  32.2698934
  99.7714256  71.2794617  31.8766077  93.3893512  96.3826206  12.3369177
  93.3163618  96.7252472  11.4461286  92.5413917  96.5742901  12.7374895
  23.3653816  20.8377592  35.2623994  24.0914711  20.2544443  35.4832227
  23.7247928  21.7185012  35.3689344  57.3712047   6.0144512  19.8240812
  58.1192859   6.5030090  20.1674802  57.1519550   6.4571706  19.0042265
  88.1498836  53.3899265  14.7384889  87.9167055  54.1111293  14.1539152
  87.3573755  52.8553358  14.7872598  29.7735390   9.5024816  34.6336992
  30.1456198   9.7050897  35.4920347  30.0188049   8.5908691  34.4754655
   8.1193384   2.0504037   3.9154585   8.7593826   2.7215425   4.1524179
   8.6308321   1.3819496   3.4596307   3.7875065  33.5487739  24.7378214
   3.5814008  33.7189189  25.6569536   3.0092343  33.1092731  24.3952234
  85.8592724  63.8142207  18.6706216  86.2757658  64.5882621  18.2916505
  85.6442331  64.0725532  19.5668657  21.8912849  87.1960905   6.4400346
  22.0266686  86.5034583   7.0866926  21.4723740  86.7551401   5.7009084
  91.7426704  74.0094903  40.7850034  91.8045925  74.9405268  40.5715330
  90.8986353  73.7368706  40.4251249  55.6144667  96.4215469  86.5004635
  55.3295422  95.9682751  87.2939301  55.0683880  96.0540485  85.8055019
  26.9704470  40.9582416  19.5403822  27.8497776  41.3343707  19.5795400
  26.4595636  41.5950958  19.0407331  71.5181636  71.6431382  36.7547853
  71.1381124  71.5202573  37.6246698  71.1426829  72.4667695  36.4435346
  16.2222656  25.1097242  41.9646890  15.9973320  24.2358533  41.6453321
  15.3934320  25.5884639  41.9563444  55.3402613  75.8519581  24.9371965
  55.6509339  76.5076330  24.3128545  56.1378609  75.5043819  25.3362711
  13.5101971  10.4849759  11.8932970  14.1830858  10.9099094  12.4251707
  13.3303627  11.1096565  11.1906870  23.7030252  12.1666900  27.9897554
  24.5362839  12.6162568  27.8490121  23.1687149  12.7979366  28.4716947
  23.8000521  86.6995994  18.2610948  23.8344415  87.5851718  17.8994138
  23.6017593  86.1413566  17.5092466  20.0454649  10.3233377  15.1613958
  20.2350553  11.2614480  15.1768644  19.3984588  10.2212182  14.4634111
  31.6688808  13.7561122   9.3430956  31.7231926  14.5981590   9.7950227
  30.7919058  13.4310762   9.5468195  99.5440220  84.1937640   0.7201059
 100.2015470  83.8394931   0.1214559  99.6165346  83.6499861   1.5045030
  60.3957828  11.3776342  54.1124971  60.1071342  12.0206252  54.7601659
  59.5950111  10.9205858  53.8553865  35.8396181  38.9397231   5.1144846
  36.0309061  38.6646358   6.0111292  36.4605507  39.6478645   4.9435861
  41.9396507  84.5226672  18.5191782  42.0218008  85.3932741  18.1299169
  41.0923858  84.2013672  18.2107313  77.0688461  96.0958126   3.9412649
  77.4053406  95.7874945   4.7826631  77.6316093  96.8363359   3.7150819
  72.7544260  76.7520571  71.8334818  72.1949100  77.0495033  71.1160517
  73.3626699  76.1369801  71.4236641  65.0886917  50.6799936  84.6533585
  65.1385832  50.0558949  83.9293194  65.5851460  50.2672052  85.3600216
  69.9463543   8.3986608  19.9779661  69.7767624   9.2710391  19.6223982
  70.8647522   8.2289354  19.7682722 102.2441648  99.5132616  21.7828806
 103.0011247  99.1060188  22.2040708 102.6125454  99.9950436  21.0423334
  85.5788683 101.1003378  23.5347994  86.4307903 101.2276390  23.1173570
  85.4454826 101.8935612  24.0536840  29.5370030  28.5162854  66.0850525
  30.0231957  29.3396020  66.0403490  29.9597883  28.0264568  66.7904234
 107.6815698  11.1217824  66.1456640 106.7716763  11.2102119  65.8619268
 108.1289384  10.7283918  65.3964384  96.0584281   9.0549699   0.5653818
  96.2839744   9.9725620   0.4124696  96.2118528   8.6270276  -0.2769701
  95.7409023 100.5365398   9.3005712  96.6407083 100.4970959   8.9765031
  95.2488445  99.9647358   8.7113722  53.5950851  40.8051109  81.8342018
  54.3993378  40.4047441  81.5038681  53.8814878  41.3455915  82.5704575
  60.2162123  76.4208364  64.6116352  59.4102287  76.9370270  64.5987463
  60.7305813  76.7615652  63.8798141  76.0095619  86.4196017  34.8397024
  76.4961838  87.0148518  34.2695196  76.6752218  86.0392454  35.4128130
  98.7636278   0.8708755  16.9877298  99.0664194   0.0866739  17.4455316
  97.8240583   0.9052888  17.1673353  67.2836612  93.0327967  47.5600298
  67.9819726  93.6535433  47.3520334  66.4976858  93.5736063  47.6374872
  87.5780557  74.6985224  55.0674875  87.6713632  75.6462648  55.1639612
  88.3990310  74.4168785  54.6638734  70.5404758  68.1393623  79.6319818
  70.6794119  67.9806376  80.5656528  69.6536160  68.4955978  79.5789671
   2.8460797  14.0818778  10.3780611   2.3983916  14.8558036  10.0362356
   2.2768673  13.3505575  10.1384790  27.3925718   5.2381030  15.1508672
  28.1294283   5.8287994  15.3068884  26.7305645   5.5076305  15.7875211
  63.0181081  69.4424838  -0.3048787  62.3616703  69.6888418   0.3467670
  63.8502367  69.4822902   0.1665225  92.6222405  20.0543586   7.8325517
  93.4295294  20.3257982   8.2693918  92.8773854  19.9197904   6.9198473
  13.9028629  20.1967279   7.7626569  13.6382135  20.9311191   7.2087057
  13.5460695  19.4246904   7.3234613  28.9754772  47.9828119  82.8992462
  28.6221075  48.8529205  82.7141285  29.6970272  48.1418276  83.5077763
  97.6940725  19.5904914  28.7011964  97.3397944  18.8479320  28.2119901
  97.9767106  19.2150108  29.5350797  15.9309158  87.1542862  44.6001108
  16.8758640  87.1824243  44.7501619  15.8328495  87.3094538  43.6606748
  77.5844940  15.1209394  76.7169626  77.3240646  15.7487956  76.0430009
  76.9717773  15.2737895  77.4363001  40.7507706  53.2095766  86.1569118
  41.1668348  53.9941692  85.7997990  40.4118443  52.7479887  85.3899097
  72.0914100  74.9798468  11.9353635  71.9708036  74.3109730  11.2613542
  71.7308019  75.7776049  11.5483530  62.4286938  35.4735374  87.3303795
  61.8931532  35.0807166  88.0196762  61.7984581  35.7463384  86.6635895
  67.2127199  49.7766542  86.7127037  67.8026009  49.4560051  86.0304546
  67.7287579  49.7287083  87.5174618  14.8634514  27.1435539  47.4195535
  14.2435106  27.6338807  46.8796594  15.5592331  27.7711193  47.6151998
  51.5538502  75.7884026  71.2011051  51.1472750  75.5137634  70.3792191
  51.3838148  75.0659513  71.8055773   6.8653377   4.1369811  35.7017286
   6.5886911   3.5678712  36.4199312   7.7653297   3.8687078  35.5166013
   1.7066583  23.5588161  20.5753095   1.8880352  24.1418258  19.8381288
   2.5385484  23.5009900  21.0452516 109.1645120  91.1897114  18.0016954
 108.3385967  91.4625528  18.4012659 109.8393081  91.5442923  18.5806234
  91.4680862  95.6120586  88.2226658  92.2851944  95.3617668  87.7914810
  90.9729671  94.7956276  88.2900047  30.7449421  20.9030715   3.5137041
  30.8617576  19.9547759   3.4560449  29.8488983  21.0527841   3.2121618
  72.7373670  83.7978557   7.1259554  72.0561575  84.3557384   6.7505224
  72.7621793  83.0315569   6.5528925  15.7412275  41.1655132  19.3054063
  16.2612995  41.1649600  20.1090009  15.9152206  42.0188037  18.9080961
   9.9494705  83.0571201  51.9182165  10.1444779  82.4132731  51.2372835
   9.6618996  82.5344303  52.6667745  97.7461599 100.9413507  35.7175596
  98.3165621 100.2193573  35.4537447  96.8593477 100.6096580  35.5769403
 106.6290067  94.7871950  15.3463323 105.8180927  95.1639059  15.0046594
 106.9599651  94.2429855  14.6318109  49.8837646  10.4821960   9.2541464
  50.7904991  10.7054511   9.4644220  49.8464569  10.5073873   8.2980020
 106.9079946  93.4809664  53.4952028 107.3838352  93.1095770  52.7523191
 106.0550998  93.7248400  53.1355817  40.0055441  32.7214614  60.0300462
  39.1536030  32.3966686  60.3214986  39.9556955  32.7005092  59.0743692
  36.0839733   8.7784473  56.5260561  35.3632578   8.5761825  57.1226270
  36.0401377   9.7276489  56.4106233  95.8923267  97.3951891   0.9935911
  95.7981228  98.2113483   0.5024297  96.6911386  96.9978168   0.6468542
  40.7777786  74.5767164  58.9062119  41.0649300  75.4291010  58.5787678
  41.5208292  74.2530727  59.4154882  38.0480442  78.6850121   2.2679002
  37.3318634  78.7173369   1.6336401  38.2129822  79.6014026   2.4898203
  14.2196831   4.3149558  23.2896860  13.7522253   4.4267789  22.4619062
  15.1003012   4.0418664  23.0324514  85.0338863  79.5887759  56.9036062
  84.3380665  79.1523984  56.4120348  85.7901310  79.0088060  56.8143804
  73.2232307  96.7803982  35.1682527  73.7557243  97.4447706  35.6056173
  73.8572954  96.1416510  34.8423631  13.1187519   4.0179483  38.5632284
  13.9585146   3.9735738  38.1059892  13.3396658   3.8777343  39.4839723
  24.8556957  92.2468117  30.6223066  25.5682621  91.6092947  30.5768640
  24.2849121  91.9189194  31.3172300  89.7160124 102.9476765  13.6844881
  90.4851078 103.4200552  14.0032060  89.8529409 102.0451334  13.9724119
  29.3925031  12.2700158   9.8591478  28.9753231  12.1050207   9.0135915
  29.5278868  11.3994590  10.2333601   7.3472843  68.6820057  15.8006628
   6.6068087  68.0765989  15.7630308   7.9891453  68.3133533  15.1937540
   3.7981758  79.7449139  21.9142015   4.1403256  80.4165080  22.5042207
   4.1524897  79.9771288  21.0558469   5.5915579  10.6287137  50.1772459
   5.2240166  10.5670015  49.2955740   4.9365505  11.1168424  50.6761701
  65.0636768  56.5629768  88.3782578  65.7963419  55.9544325  88.4736919
  65.4591656  57.4299908  88.4683228  40.4520353  18.5236875  39.8491819
  40.3785356  17.5693361  39.8421629  41.0205015  18.7255994  39.1060026
  36.8154272  13.9873496  47.5261743  36.6345009  13.2494823  46.9438894
  36.6365656  14.7622672  46.9934995  84.3017696  92.5265243  15.2915056
  84.2756723  92.8485372  14.3904741  85.0560163  91.9375875  15.3136308
  57.1083689  62.2221279  80.7400131  57.0261288  62.3432970  81.6859436
  56.6653395  61.3917685  80.5655003  57.8742933  39.5112491  73.3728504
  58.7417746  39.3177366  73.0175209  57.6330185  38.7225151  73.8585615
  55.5004131  87.3308041   1.4213712  56.2296389  87.4747804   0.8182676
  55.5603801  86.4039281   1.6527422  61.5020037  72.7971411  80.3892517
  61.7926788  72.7919149  81.3012314  62.2971869  72.6295662  79.8834562
  71.4551258  47.1553659  87.3341656  70.6724262  46.7083836  87.6563740
  71.8717957  47.5060797  88.1213284   0.6448660  64.6254411  34.6472223
  -0.0727215  64.1112569  34.2772062   1.4377508  64.1920295  34.3314321
  52.3887587  71.1149263  88.0558205  52.8526592  70.8723497  88.8571930
  52.3375177  70.3018713  87.5532818   0.1096734  21.3285200  26.7611654
   0.5738314  20.7737390  26.1342676   0.7286295  22.0297710  26.9645746
  58.3365965  38.0083489  80.1550388  58.9166784  38.4753227  80.7564259
  58.8021898  37.1962070  79.9553394  53.0500778  27.3121921   6.9015081
  52.2267803  26.8845836   7.1372183  52.9004082  28.2391111   7.0876558
 103.4799312 101.8424490  71.6472108 104.0393709 101.2999847  72.2030885
 103.6874174 101.5647676  70.7549818  27.3168739   0.2544061  33.6015470
  27.5385460   0.9977666  34.1623552  27.5051054  -0.5152806  34.1385610
  74.5671921   1.5097896  11.1553056  75.3757859   2.0007984  11.0093172
  73.9400671   1.8933288  10.5422456   7.2379478  14.0410749  17.0271166
   6.8200048  13.2445804  17.3544557   8.0054220  13.7291423  16.5476282
  23.3398088   6.7681543   3.9353140  24.2763838   6.5708629   3.9468820
  23.2793554   7.6628343   4.2701681 104.9435734  91.9005230  11.4436681
 105.1816152  90.9753898  11.5044744 105.6375002  92.2920111  10.9131582
  28.7302383  13.5917703   5.6089742  27.7963432  13.6229221   5.4013689
  28.9385351  14.4765321   5.9090383  30.2325511  48.0467129  78.3984089
  30.6726670  48.1821489  79.2375660  30.7858181  48.4995317  77.7619505
 106.6115067  13.1924478  20.7748945 105.6978700  13.4677926  20.8503015
 107.0912788  13.7966148  21.3414915  72.7703952  97.1599176  26.8060930
  73.6672043  97.1762731  26.4718778  72.4374675  98.0422047  26.6418798
 101.2043117 102.5323894  13.2952840 100.6107830 102.1514156  12.6481207
 101.7867874 103.0945042  12.7844198  34.4934925  13.3747045  26.4163549
  33.8699850  13.3365957  27.1416242  34.6904548  14.3062965  26.3185175
   0.9436401   9.4266836   8.2460649   1.5729078   9.0677444   8.8716943
   1.1704859   9.0121642   7.4136312  99.7734687  10.5500213  11.3172777
  99.5125148   9.6681157  11.5825803  99.8767707  10.4936544  10.3673418
  45.2891716  13.2774011   8.6568792  44.9995788  14.0743390   8.2127340
  44.6899113  12.5987712   8.3460958  90.7996449  25.5689756  27.2029073
  90.3557131  25.4766981  28.0458982  91.2790487  24.7477332  27.0935114
  95.7610630  94.6446636  13.4533651  95.4925178  94.6636179  14.3719251
  95.1556562  95.2422169  13.0144556  28.5773310  15.1881353  33.9283712
  28.0777963  14.3716279  33.9243467  28.6057171  15.4470102  34.8494585
  48.9818429  85.6804088  45.7858713  49.5767103  86.1713984  46.3526971
  49.2767547  84.7726491  45.8582075  43.8630184  34.9298183  19.2583616
  44.4117817  34.4679347  19.8921926  44.4846996  35.3802577  18.6866529
  64.7281288  79.4493082   9.5135458  65.4195594  80.0224617   9.8446806
  64.1255878  80.0384596   9.0595873  79.2777872  49.9171829  61.6872501
  79.9026537  50.1252842  62.3818493  79.7427368  50.1247835  60.8767223
 107.0664451  18.5198442  64.8030145 107.5319908  17.7185956  65.0428064
 106.3923309  18.2303039  64.1882284 104.1086172  97.5570133   0.1804216
 103.7763618  96.7818001   0.6330640 103.4826301  98.2478311   0.3975542
  79.7397566  89.0861225  77.5547552  80.1675129  89.7397709  77.0015717
  80.4300499  88.7826157  78.1443357  67.0773983  75.9029818  88.3371067
  67.1492720  75.2925634  87.6033211  67.6369095  75.5273151  89.0168571
  61.6918849  98.1160429   1.5220316  61.9904851  98.0335691   2.4277170
  60.7370852  98.1389311   1.5857752  29.0168890  17.6922313  32.9439790
  28.1142696  17.9530469  32.7609785  28.9693865  16.7463676  33.0829771
  38.5083374  22.1744529   3.8032682  39.3069347  22.0329753   4.3116624
  37.8496107  22.4161664   4.4543321  50.2183708   0.9743968  37.3777158
  50.4410728   1.7244283  36.8262727  51.0217460   0.7871763  37.8632696
  50.5799755  15.5509750   5.8802564  51.2877258  15.6582824   6.5157087
  49.7807487  15.7076255   6.3831670   7.9766878   9.2976800  13.5462339
   8.0156359   9.3980543  14.4973619   7.0766529   9.5297948  13.3175523
  13.5199531  18.1309883   6.0130746  13.3617195  18.1916849   5.0709970
  14.0812095  17.3620168   6.1126096  70.0292635  64.6159220  83.7568855
  69.0987206  64.4048309  83.6809826  70.1356792  64.9073124  84.6624279
  72.8416157  93.1041622  70.6986141  72.2134876  93.7632656  70.9940290
  72.3637867  92.2765446  70.7530594  -0.0106993  75.8586409  32.5491293
   0.9175310  75.7983306  32.3233373  -0.3117790  76.6561487  32.1137388
  50.8221134  17.1464101  25.2028902  50.5957683  17.8457633  25.8159979
  51.1964783  16.4579240  25.7524927  66.0943970  21.6932956   9.9080236
  65.6128582  20.9049074   9.6574266  65.4942783  22.1677772  10.4833086
  22.9428800  47.3313705  39.1420610  22.6101955  46.5335361  39.5531805
  22.6904281  48.0331603  39.7420557  39.5751057  97.5692490  46.4556081
  39.6954689  96.6785458  46.7848356  40.4357109  97.9776361  46.5495069
  22.4567398  25.4824535  35.6415231  21.6200527  25.3201381  35.2058180
  22.3196825  25.1860753  36.5413053  32.5298675  55.0486652  11.8325479
  31.8102964  55.6674281  11.9573648  32.1069845  54.2500297  11.5169675
 107.8780029  21.0051004  13.8699968 107.4489210  20.3884927  13.2767637
 107.4310443  21.8372003  13.7148531  87.5858784  70.7726049  88.3594513
  87.3582840  70.3519487  87.5303078  87.5895786  70.0587368  88.9971066
  53.3030781   3.6829845  27.8840788  52.4612030   4.0660421  27.6376207
  53.8525852   4.4347564  28.1056745  78.4544706  41.5798426  83.5223579
  79.3956947  41.5572071  83.6950207  78.3471298  41.0786200  82.7139759
  16.3600000  38.6221019  30.9315736  16.7951282  38.8972274  30.1246030
  16.6289362  37.7111427  31.0501058  52.0930084  12.9660169   6.8241174
  52.2983822  13.8761989   6.6105135  52.9324898  12.5102607   6.7625387
  11.4145502  34.2987338  23.0008466  11.6984161  35.2073280  22.9003580
  10.5001577  34.3625823  23.2766016  74.0257248  17.3996202   7.3347528
  73.8969024  18.0893794   6.6836984  73.6076435  17.7369443   8.1269891
  57.7703747  40.5985252   8.6258466  57.9080852  40.7860748   7.6973589
  56.8926128  40.2188293   8.6658819  10.1319631   4.3562309  13.2339437
   9.3364796   3.8462583  13.3867891  10.1853308   4.4371215  12.2816618
  99.4651031  65.7514429  87.3003483  98.9593792  65.3431654  88.0030441
  98.8070297  66.0386419  86.6673470  23.4623274  22.1113960   5.3998239
  22.9790863  22.5565854   4.7037466  22.8416237  21.4735738   5.7521684
  71.3319349  71.0131168  87.8807735  71.2668037  71.9679499  87.8974819
  72.0138550  70.8308363  87.2342491 107.1731209  87.0148209  52.5409467
 107.3711895  87.7256158  51.9312246 107.2142624  87.4227670  53.4058912
  23.5134205  48.8939754  50.0513799  23.1705078  49.3404952  49.2772634
  24.2428716  48.3691493  49.7216852  54.5964130  35.2051917  27.3298795
  54.2435249  34.4833747  26.8096120  55.2496609  34.7949497  27.8966196
  93.2092117  98.1551865  10.1794870  93.7346433  97.8701904   9.4318636
  93.2672809  99.1104772  10.1627786  75.0439619  98.4176138  36.2633093
  74.9089168  99.3480566  36.4429338  75.7956885  98.1758764  36.8043287
 102.9992126  95.6783894  29.3488367 103.8612722  95.2808979  29.4716795
 102.5588392  95.1059654  28.7206323  95.1737713  90.9469107  28.7763460
  95.1157211  90.2371552  29.4159658  95.7606863  90.6112960  28.0987604
  13.3943876  11.5447465  29.5220907  13.3941158  12.4885885  29.6814401
  13.5963711  11.1580602  30.3740938  17.6643404  45.7824699  13.0022104
  18.4676727  45.3218929  12.7598150  17.8652128  46.1862461  13.8465173
  57.6605225  99.0491772  79.2146635  57.8920317  99.9577808  79.4071865
  57.4361658  98.6736202  80.0660515  33.2265219  11.7523137  21.6776140
  32.4015220  11.4681951  22.0711668  33.7062916  12.1627132  22.3970754
  21.5906748   0.4143611   4.6446951  20.9814581   0.9092704   4.0968282
  21.7123588  -0.4135522   4.1799505  54.7530159   5.5673734  12.1525343
  55.0875267   4.8565046  12.6993425  54.7512230   5.2069465  11.2657888
  40.6226238  62.3211566  10.8283956  39.9713024  61.9171230  11.4017828
  40.4787716  61.9105235   9.9758012 100.4353333  57.6369762  69.6398735
 100.7187366  56.7277622  69.7359991 100.8212757  58.0887747  70.3903103
 100.9980367  89.1723755  37.0156343 100.1859783  89.2685512  36.5180929
 101.6884111  89.1888812  36.3528021  58.9451679   5.9045450  11.1527021
  58.6156067   6.1593334  10.2908952  59.1591057   6.7329828  11.5818365
 102.9589558  45.2141476  68.9538336 103.4657001  46.0259962  68.9722252
 103.4369469  44.6471071  68.3486748  33.5734066  42.9180042   4.3502290
  33.5702404  42.1534816   4.9261816  34.4843324  43.0017940   4.0684087
  16.6957506  41.2730495  32.2250898  17.4839767  41.3249484  32.7656801
  16.5240415  40.3351013  32.1414144  55.9602817  37.3816768  24.1534383
  55.4317459  36.5855876  24.0974958  56.5073475  37.2520152  24.9281175
  50.4173073  18.0172006  37.2805746  51.0423836  17.3126069  37.4510248
  50.7459625  18.7575284  37.7906091  37.4971279  40.1836673  28.3327158
  36.5458902  40.1585666  28.2290323  37.6506504  39.8491756  29.2163332
 107.1167419   4.8234884  13.1016691 107.8983543   5.3312389  13.3196218
 106.9729731   4.2652646  13.8658292  36.8763574   6.9539062  19.9974020
  37.1395096   6.5936366  20.8442743  35.9284815   7.0662872  20.0690324
  43.2029041   7.8020278  11.2932356  42.3278984   7.4272767  11.3940008
  43.5424599   7.8610698  12.1862371  29.8710235  32.1420471  63.4394128
  29.5773109  31.4000503  62.9108198  30.7530245  32.3303596  63.1187112
  84.3088055  81.5482998  81.5202141  84.6836281  80.8485985  80.9852695
  84.0435886  81.1140442  82.3309612  95.9695171  95.7966640   3.1514700
  95.2063774  95.2188805   3.1480940  95.9032797  96.2857321   2.3313100
  23.3918794  39.3944923  17.3536832  23.6741146  40.2596370  17.6505048
  24.1420587  38.8255588  17.5262411  19.0911754  41.3567439  34.1802366
  19.8717722  41.4878551  34.7184904  18.5785469  40.7038013  34.6567972
  19.1587766  24.5055190  21.5037115  18.4828075  23.9042655  21.8164213
  19.5212301  24.0762559  20.7287271  72.7864884  95.1285627  82.4229486
  72.0684122  95.7584312  82.3608072  73.0356263  95.1397970  83.3470972
 106.4698908  50.2778999  28.2683427 107.0825670  50.7114116  27.6742704
 106.2056730  49.4844047  27.8027303   6.8878851  99.4680574  19.2479761
   7.3888455  98.7331942  18.8940771   6.4967165  99.8834827  18.4794481
 107.8752041  48.3774805  88.0113220 108.5890388  48.0411720  87.4695015
 107.1198463  48.4022713  87.4239063  30.5710157  25.6601802  28.2744653
  30.1071771  26.3067714  28.8064439  31.0729202  26.1812869  27.6477487
  39.5375379  10.3028957   9.4944341  40.4179891  10.0597612   9.7806604
  39.3789848  11.1535255   9.9037321  68.2730960  97.7611759  19.4171674
  69.0539693  98.1963709  19.0750082  68.5842608  97.2777536  20.1824911
  22.8148111  25.6193630   7.3263128  22.2604593  26.2434141   6.8578107
  23.5478958  25.4574148   6.7325266  73.3603953  83.0910280  36.4203508
  73.8963841  83.4273961  35.7021482  72.7108787  82.5325063  35.9932478
  10.5574665  97.5292852  35.7569463  10.5713234  98.0561808  34.9579389
  10.0219784  96.7682293  35.5327280  61.5192080  57.7438879  80.4230690
  61.9235611  58.5697889  80.1573277  60.5797148  57.9271412  80.4257774
  24.6606382  39.3452159  20.8387334  24.7788986  39.8550407  20.0372751
  23.9812073  38.7077705  20.6190355  65.6051874  89.3597221  68.5329437
  64.6488762  89.3668175  68.5735798  65.8068943  88.8993359  67.7183294
  25.5825504   8.9237348  11.4621980  24.8790058   8.2880536  11.5932424
  25.1372513   9.7703973  11.4290769  55.2574873  20.9243703  65.8388901
  54.8573160  21.5076423  65.1939964  54.7136688  20.1368928  65.8196068
  20.7095417  34.2172519   7.1508081  20.8569416  34.1392890   6.2082441
  20.8213362  33.3273307   7.4851377  40.8987936  26.4101068  35.7467325
  41.2641987  26.0629550  34.9329717  41.2719711  27.2884027  35.8213480
  26.1691555   5.4699460  10.8438738  25.6711325   5.4723922  11.6613062
  26.0561022   4.5849267  10.4971845  31.7256388  18.2025138  16.7953546
  31.8438181  17.4845497  16.1734254  31.7245325  17.7783386  17.6534422
   1.3749822  11.7413656  10.2338560   0.5052360  11.4296810  10.4841097
   1.9167479  10.9523956  10.2179964  24.0066179  31.5353958   1.8746240
  24.3727430  31.9047824   1.0710485  24.7403654  31.5244762   2.4892194
 103.4231637  10.3272382  24.7259863 104.3115780  10.0407831  24.5141084
 102.8570364   9.7544328  24.2086561   0.9939013  98.1516579  40.2381666
   0.5306349  97.8622034  39.4521387   0.6977043  99.0518454  40.3729112
  40.0169500   6.9649354  26.0502298  39.0626558   7.0332900  26.0800512
  40.2234253   6.9002620  25.1178129  56.7858490  21.2783996  36.9740923
  57.6847442  21.3348953  37.2981603  56.8512234  20.7525340  36.1769636
  11.4948973   0.5592719  12.8577001  11.1026701   0.3751794  13.7112196
  10.7663425   0.8729879  12.3219545   1.9962441  88.1483650  79.1671705
   1.7268025  88.9241409  79.6589041   2.0593010  87.4570179  79.8261833
  13.6110576   2.9828493   7.7393205  12.8488144   3.5336629   7.5609167
  13.3972915   2.5361148   8.5584505  60.5797100  65.5472422  86.0622501
  60.4550982  66.4962673  86.0543346  60.4356670  65.2791882  85.1547050
  15.7452139  26.0049049   1.7633875  15.2172312  26.2674610   2.5173910
  15.3000578  25.2315894   1.4168985  84.5722746 101.2037447   0.6234129
  85.5041193 100.9857347   0.6041677  84.2677902 101.0325458  -0.2677672
  61.5022644  11.3394205  62.6210649  61.3090309  10.7945625  63.3839662
  62.4368366  11.2066070  62.4624117  21.3594374  14.5112745  42.5887926
  21.2347730  15.3793184  42.9724367  22.2404989  14.2537538  42.8601701
  53.2432222  36.5893102  76.1755562  52.3426390  36.2700558  76.2326336
  53.6127043  36.4201045  77.0422077  48.0867084  14.8628179  12.7860410
  47.8100666  14.3357555  12.0364339  47.8916820  15.7642881  12.5300176
  57.8059658  21.4044229  13.3516081  57.6999267  22.2165767  12.8562315
  56.9287762  21.2083618  13.6807401 109.2426227  95.2642420  16.1668928
 108.4383224  95.3691032  15.6586321 109.3048404  94.3222692  16.3251646
  68.0131897  15.2302495   3.0546434  68.0158504  14.7530404   2.2248800
  67.5500854  16.0452167   2.8607423  72.3307785  16.1305658  24.0682466
  71.5484890  16.3404647  24.5783384  73.0572113  16.2685100  24.6761091
 100.9331154  91.4118698   5.6862886 101.1226105  91.1135199   6.5758379
 101.2997841  90.7310632   5.1221140   1.1190280  31.8413345   4.0921552
   1.6696771  31.5240566   3.3763654   0.2242287  31.6607658   3.8041265
  26.8960747  19.5374433  23.0359609  27.0173677  19.2827217  22.1212824
  26.3464769  20.3201047  22.9957636  79.6859169  52.8593826  81.0335445
  78.8572264  52.7829790  80.5606174  79.4296646  52.9789066  81.9480324
  27.4140225  98.1498030  22.8130300  28.3111916  98.2711485  23.1238420
  27.2817764  98.8565805  22.1812017  62.4041271  60.1162148  79.5951080
  61.8931675  60.6851339  79.0193653  62.9589891  60.7160759  80.0936317
  63.9866256  87.0462230  13.3667619  63.3223652  86.4630702  12.9994447
  64.0446399  87.7677658  12.7404649  77.3939085  97.0345020  79.3841124
  76.7588091  97.5028133  79.9259281  77.0528841  96.1415768  79.3330097
  59.0528822  73.9046526  58.9223194  58.5896111  74.7406149  58.9750910
  58.6085224  73.3440018  59.5582771   9.8863205  19.3319646  17.4763353
   9.4301971  19.0743915  18.2774885  10.3204569  20.1546995  17.7018507
  24.1440328  26.7005960  23.7746675  24.0476927  26.8127052  24.7203882
  24.9281772  26.1605541  23.6761434  41.8150410  30.4970161  32.9952390
  42.2158941  31.2402431  32.5445039  41.0688385  30.2576724  32.4455698
  36.4104065  29.2271892   9.0039594  35.5835136  28.7520973   8.9216287
  36.2136062  29.9487583   9.6013219  22.2697411  -0.0262152  70.4098654
  21.7485199  -0.6657111  70.8952475  22.2932682   0.7440485  70.9776402
   5.8268150   7.7813665  15.2871378   5.8067831   7.5311319  16.2108381
   6.6696724   7.4574653  14.9694688  67.7274799  80.3950024  89.1539288
  68.4495878  80.5145073  88.5370731  67.0325565  80.9636021  88.8222504
  28.6697372  15.3677312   0.7048471  29.4216188  15.5262271   1.2756307
  29.0529379  15.2120344  -0.1583712  17.0541939   0.8909027   4.5799787
  17.6876100   1.6078845   4.5490892  16.2294945   1.3102905   4.8253687
  86.9094585  99.8030355   6.8688924  87.1311973 100.7257536   6.9940145
  87.5526403  99.4859913   6.2348325 103.8944219  87.3224142  42.9613168
 103.2481455  87.9682639  42.6759584 103.4473203  86.8214562  43.6434991
  43.7250027   3.2742731  30.4629190  43.7617573   3.4494392  29.5225961
  44.1054519   2.4011938  30.5589540  70.0455999  76.9814157  81.1621761
  69.5811319  76.1993265  80.8641148  69.8501492  77.0340824  82.0977306
  40.3296041  52.0559120  88.6840248  40.2972651  52.3211956  87.7648830
  40.2128983  51.1060762  88.6634159  17.8155979  52.8782741  44.0619905
  17.0738252  52.4309341  43.6546857  18.1138882  52.2757713  44.7433431
  11.2095102   1.6714231  16.1572130  10.4798445   1.8126384  16.7604406
  11.0333284   0.8166162  15.7641466  93.0635071  83.5770321  81.5575790
  93.8354397  83.2484150  81.0967541  92.9966640  83.0250549  82.3367405
  14.8137649  16.5067617  34.0881498  15.2189668  16.4790002  33.2213934
  15.0895389  15.6917945  34.5076807  64.0956640  85.4852295  84.4222736
  64.6673012  85.4415417  85.1887989  64.2322826  84.6507263  83.9737511
  28.8039526   3.6123124   2.0461805  29.5066341   3.3183280   1.4664896
  29.1763672   4.3597356   2.5140531  60.4230881  74.6555996  77.5738192
  61.1441898  74.0280962  77.5239992  60.7247734  75.4080486  77.0648575
  93.3160210  71.0870123  81.5824127  94.0671539  71.4000654  82.0864296
  92.7283478  71.8410873  81.5349770  92.3147463  46.4527866   1.9008978
  91.7201208  45.7459137   1.6499288  91.7547249  47.0916480   2.3418768
  94.7756710  96.7693441  80.2893353  94.6564259  96.0208928  80.8739948
  94.6018519  97.5331151  80.8394909  67.3932123  23.8369322  54.3653822
  68.2992172  23.7094545  54.6466875  66.8676853  23.4767461  55.0797462
  33.1309748  30.2880430  60.6844378  32.7614927  29.7990608  59.9491787
  33.8702011  30.7651782  60.3074598   6.9842697  83.9304172  80.6620598
   7.8585173  84.0391230  80.2877522   6.9735790  83.0305778  80.9882641
  40.6491988  41.9875207   4.8370035  40.0952818  42.7556219   4.9763925
  40.6807126  41.5567580   5.6912191  38.4700441  17.0989406  76.6580486
  38.4745002  17.9333305  76.1890030  39.1971540  17.1680784  77.2767305
  77.6838897  83.8020399   2.8811224  77.2420858  83.9988568   2.0551069
  78.4231352  84.4095114   2.9080255  27.0866179  21.7047262  52.2720766
  27.7131152  22.4167109  52.1424150  27.2529030  21.1040974  51.5455627
  51.6929268  69.7854295  13.3821161  52.4407254  69.5778289  13.9424093
  51.4694225  70.6888476  13.6059721   5.7559468 100.7331610  83.7481022
   5.9656979 101.0957988  82.8874493   5.0430561 100.1166480  83.5809803
  63.6762905  19.0927351  79.5660114  63.4184694  19.3530905  78.6817169
  64.4356871  18.5245848  79.4365883  26.9314979  95.7305839  53.1589372
  26.0329424  96.0602978  53.1697233  27.4488335  96.4321831  53.5543592
  62.4276851  43.3593878   0.8493478  62.6399945  43.3851275   1.7823465
  63.2461594  43.5920754   0.4109533  14.3276453  21.1656785  66.1807489
  13.9229298  21.9869685  66.4598942  14.8695254  20.9009218  66.9240570
  90.0137876  61.4274630   5.5504758  89.1700815  61.8713918   5.6360014
  90.1480459  61.3481387   4.6060617   3.8281466  85.6744062  87.8860092
   4.4663597  85.8981418  87.2086143   2.9823209  85.7100152  87.4393082
  42.8514862  24.2420197  73.8719940  42.6890755  25.1674056  73.6889219
  43.8026810  24.1782212  73.9579725  32.7178836  11.4230621  66.8125010
  33.3411431  10.7336712  66.5833330  33.2298088  12.2309852  66.7747593
   8.2816530  99.9736412  84.8045635   7.4909235 100.3960012  84.4690132
   8.9308668 100.0959828  84.1118908  35.8819604  11.3317716  81.5171814
  35.4529762  10.5058169  81.2935638  36.1977172  11.6719866  80.6800556
  85.5088161  56.5259245   0.6557043  85.4954647  57.3496768   1.1430318
  85.8600067  56.7613414  -0.2030604  54.1560793  13.3770359  84.5680618
  53.6699438  13.5579896  83.7635994  54.4421911  12.4682748  84.4757366
  93.0066338  98.0561270  85.5595684  92.2353878  98.5968815  85.7298565
  92.6508822  97.2155993  85.2711487  45.0875759   8.4389621  85.5771351
  44.1922808   8.1005085  85.5883217  45.5981874   7.7515000  85.1494598
  25.6480480 102.1458342  68.0412054  25.5785729 102.1330263  67.0866156
  24.7935511 101.8422436  68.3476353  97.6270889  90.6814053  12.2638662
  96.9815515  90.4906466  12.9444082  97.7203487  91.6338709  12.2824342
  80.6647512 101.8452640  69.9178028  81.2304761 101.0760138  69.8511600
  80.0812008 101.7796252  69.1618967  26.5329432  11.0913694  68.8294077
  26.3913250  10.3687227  69.4409323  27.3719525  10.8924878  68.4137869
  22.9962565 101.5434163  68.9867592  22.6660563 100.6944754  68.6926508
  22.2271849 101.9899231  69.3408728  77.2043585  56.5565529   0.1810892
  76.7989420  56.3132790  -0.6511919  76.4718746  56.8293211   0.7336195
  70.9106444  82.5803807   4.4211157  70.5295228  83.3684066   4.0338190
  70.7839535  81.9021204   3.7576826  49.5501947  26.2221384  61.6905355
  49.7782040  25.3160787  61.8986177  49.2831850  26.6003752  62.5283146
  38.7531519   6.9288594  47.1241283  38.8305473   6.3219345  46.3880014
  37.8228450   7.1522266  47.1535969   3.3332787  34.7751084  12.8920229
   3.1781492  34.5253435  11.9811018   4.2848978  34.8523679  12.9604585
  91.5654348  39.2332235   2.8237875  92.4320959  38.8400188   2.7211912
  91.4027904  39.2117241   3.7668283  48.3499409  89.6783041  70.9112072
  48.2558037  88.9419722  70.3069019  47.8201748  90.3751790  70.5239820
  87.2071955  20.1005737  38.6289365  87.1620510  21.0546390  38.5660513
  86.5469191  19.8721591  39.2832239  72.8565334  94.8923948  15.6243379
  72.1496104  95.0383261  16.2529810  73.1120681  95.7709244  15.3430517
  29.5828938  14.5949221  81.5861225  30.2449203  14.0584350  82.0221615
  30.0392556  15.4072845  81.3669586  64.5727633  81.4300826  31.3829477
  65.2485417  81.9971421  31.0114629  64.0629123  82.0063761  31.9523103
  83.3455347  75.7917788   2.2773512  83.2156156  75.2207473   1.5202005
  82.5145410  75.7543877   2.7509363  87.0465778  70.3696921  38.7075956
  87.9565500  70.6659415  38.7279565  87.0067905  69.6729806  39.3627603
  71.2298845  31.2481931  10.4570348  71.3545059  30.8356169   9.6023519
  71.7842673  32.0280281  10.4296644  61.3277674  30.5874920  71.5269995
  61.7039347  29.8731685  72.0412731  61.0332298  30.1704335  70.7173443
  56.2493086  27.0038390  83.4760952  55.3231812  27.0465159  83.7141991
  56.3875389  27.7663565  82.9142284  47.8713094  49.3172502   6.9017275
  47.7474188  50.2663860   6.9066579  47.4803089  49.0289503   6.0769613
  30.4516268  46.8897247  70.3534508  29.6973324  46.5933228  70.8627796
  30.5213451  47.8238869  70.5502129  74.7917413  87.3353746  30.4040964
  75.2520965  87.8785470  29.7643526  75.0154375  86.4370659  30.1607187
  24.0419792  76.3568809  36.6497667  24.3767034  76.7751983  37.4429948
  24.2148315  75.4244068  36.7795522  62.5611067   3.2463291  63.0052853
  61.9755220   3.0199668  63.7278414  63.0052185   2.4259408  62.7909088
  28.8900137  41.8323374  70.8562469  29.8458600  41.7978239  70.8188820
  28.6997199  42.5471687  71.4637327 105.7504772  47.9430017  26.9557245
 105.2082132  48.5458931  26.4470918 106.0846733  47.3194012  26.3110025
  31.5244842   8.1324446  83.1493282  32.2902870   7.9918736  82.5925350
  31.7580509   8.8853931  83.6922359  97.4261402  16.9369533  34.1371114
  97.0337652  16.4387181  34.8540743  98.1265281  17.4412420  34.5510919
  67.6843643  26.8209505  72.5533009  68.3872747  26.3631606  73.0143642
  67.7756929  27.7345419  72.8239250  63.1360674  22.1112418  75.1932096
  63.9281034  22.2149801  74.6658134  62.4624157  21.8508673  74.5650101
  67.5333356  75.0622871  13.6304147  67.2154950  75.0081327  14.5316751
  67.8468536  75.9622243  13.5406740  49.0418673  28.7971377  65.8546972
  49.3622017  28.0201244  65.3965807  49.7723818  29.0645075  66.4124584
  85.7835363  67.1280387   7.3984964  85.0739502  67.6793244   7.7283533
  85.7544636  67.2430661   6.4486749 106.0977243  34.7277739  13.9855917
 105.6230186  34.6610585  13.1570776 105.4941009  34.3705073  14.6369226
  55.8298254   9.2239368  73.8821554  56.2922525   9.8027623  73.2760572
  55.6744862   8.4247875  73.3787060  35.3118159 101.2661547  86.6420269
  34.7552849 100.5642780  86.9794750  35.0461890 102.0413016  87.1368217
   0.6086788  97.3403004  42.7679689   1.2981377  97.8894737  43.1411894
   0.7071409  97.4425438  41.8213518 100.7591747  78.6895326   8.0630834
 101.6354631  78.5070613   8.4022863 100.4375480  77.8400591   7.7611215
  37.6095819  32.8285456  88.8672256  37.0730495  33.6151767  88.9650631
  37.9699516  32.8928995  87.9827881  47.1793556  19.6338725  87.3034763
  46.7993498  20.4485607  86.9746780  47.3782921  19.1274250  86.5159702
  75.7039069  69.8722687  36.4666898  75.6010460  70.7818571  36.7465170
  76.6396641  69.6960202  36.5642793  21.5091419  51.8951464  81.7240620
  22.2378063  51.7747593  81.1151409  20.7260728  51.8132544  81.1797047
  70.5081128  71.8877128  10.1133306  71.1254452  71.9232467   9.3826635
  70.9678410  71.3927033  10.7914503  60.2180241  59.7758165   8.3688314
  60.4752516  59.0653285   7.7812250  60.9047626  60.4342440   8.2634885
  76.7250179  63.3129266  27.4287374  75.9974407  62.7029827  27.3069437
  76.8502163  63.7114253  26.5674837  25.6246529  41.3128748   8.2193430
  24.9964485  40.9006503   7.6263292  26.4671669  40.9247198   7.9832513
 108.5981821  92.4510458  35.6734140 109.3763326  92.1134165  36.1169489
 108.6026691  92.0186165  34.8194749  35.5239582  18.0055857  85.4999924
  36.1038685  18.1584084  84.7539520  36.0757732  18.1572127  86.2672901
   1.5424205  99.6853428  80.4996300   1.8844248  99.7078245  79.6058989
   1.5021135 100.6044712  80.7638454 102.2881531  51.2200130  14.8435743
 101.8488859  51.4233782  14.0177972 103.1968998  51.4859656  14.7033079
  49.1596651  20.6787348  80.3367519  48.7105322  19.8461831  80.4829311
  48.4937239  21.2448382  79.9465084  45.7222121  95.9139946  26.8943460
  44.9657332  95.4804113  27.2892912  45.9279161  95.3830269  26.1249406
  49.8862839  21.9026637  65.1356792  50.6443119  21.6692662  64.5998192
  49.8525810  22.8585863  65.0994825  67.8207970   7.0817626  76.5723181
  67.2122955   7.0130724  75.8366299  67.8821754   8.0211687  76.7454672
  97.7235864  95.3180149   7.0310266  97.5253652  95.7756451   6.2140043
  98.1620001  94.5132950   6.7545183  72.9560279  79.8738101   2.7350958
  73.7104200  80.0999334   3.2791479  72.8493785  80.6237390   2.1498926
  24.0769920  38.0481651  24.4793089  24.5867596  37.5951674  23.8076265
  23.1709442  37.9817310  24.1778047  89.1669964  58.1507501  23.0027540
  88.2169460  58.2512334  22.9432829  89.2923282  57.3893168  23.5690935
  80.0482963  76.1814549   2.4581964  79.9427675  76.8690517   1.8006952
  80.1776193  76.6541341   3.2804353  13.8537288  27.1729946  89.0555763
  14.1739750  28.0269098  89.3462658  14.0446627  27.1521282  88.1178379
   3.7477583  34.7583270  69.5874739   4.3153447  34.5786977  68.8379288
   3.4837136  35.6714320  69.4745636 104.5606110   5.9394351  13.8344915
 103.6153266   6.0899965  13.8357217 104.7315381   5.4966585  13.0032499
  52.3485111  15.6898096  22.7823789  51.8741368  16.4557579  22.4590833
  52.7492653  15.3088859  22.0010240  33.9633204  99.7822421  81.5171719
  34.7927357  99.9504583  81.0699558  33.3054091 100.2135529  80.9718704
  69.0176700  86.1247733  39.0560014  69.2028402  86.8450501  38.4533842
  68.7162303  86.5539172  39.8567541  55.8661484  72.7104905  11.9577272
  54.9834286  72.3493722  11.8762930  56.4407419  71.9451812  11.9383581
  33.4507680   8.7819022  74.4733763  33.5623026   9.2401242  75.3063393
  33.3596635   7.8607404  74.7170830  84.2373251  61.3932386  49.7316702
  83.4453176  61.1709270  50.2210863  84.0119957  62.1973505  49.2638452
  38.3921695  35.1736784  43.0380106  37.7867007  34.9471354  42.3320913
  37.8362966  35.5566978  43.7166357  43.5049963  37.2385073  75.7837057
  44.4420385  37.3673224  75.9306335  43.3237648  36.3692760  76.1412334
  41.6384411  27.9669929  80.9358597  42.3415089  28.2287312  81.5303516
  41.4733315  27.0487261  81.1497688  16.0527287  85.8354619  13.7228353
  16.2613354  86.6940787  13.3547361  15.1907406  85.6241587  13.3642824
  70.9345673  64.9278059   3.0602319  70.4562019  65.6418684   2.6389082
  71.7584466  64.8729792   2.5760324  37.2619176  24.6146584  79.0769482
  37.6554060  24.3543053  79.9097872  37.3157120  23.8302374  78.5310364
  64.2625214  88.3540808  78.9141273  64.4948364  87.4516951  78.6951256
  65.1033760  88.7960314  79.0319014  95.1730131  92.2389295  40.5227907
  95.1367735  91.3073423  40.7397325  94.2657541  92.5362757  40.5913217
  88.0126547  80.1848653  10.8497865  87.8735565  80.6259063  11.6878660
  87.2278999  79.6506884  10.7270963   3.4672698   0.4621593  11.7228372
   3.5663685  -0.3554209  12.2106702   4.1600355   0.4328100  11.0629614
  64.3294716  15.2005696  84.2772293  64.1426611  14.7710478  83.4424591
  65.2769995  15.1159370  84.3833637  90.2679553  72.4146878  83.7187862
  91.1554708  72.7499329  83.8459110  90.3857603  71.4773165  83.5648727
  24.6802926  32.8267145  75.7706738  24.0192461  32.1868801  76.0349894
  24.7640038  32.7077150  74.8245955  89.1901563  76.9152310  20.6336172
  89.7755359  76.5081075  19.9950178  88.5835098  76.2174919  20.8813627
  66.1907719  56.4437541   8.1320913  66.2826895  55.5312127   7.8581293
  65.8822845  56.3923234   9.0367563  35.9232831  25.9485555  51.4578390
  35.6857491  25.0353122  51.2972307  35.3909063  26.2056732  52.2106314
  27.5267435  91.6475271  84.9616718  26.8887831  92.3031925  84.6799946
  27.3763586  91.5557431  85.9025192  77.9966116   5.7442987  73.5226059
  78.1515694   6.0927403  72.6446486  78.1917953   6.4756781  74.1084576
 100.4205011  71.6524461  10.6805284 100.1683306  71.5876677   9.7594125
 101.3689588  71.5233686  10.6788499  87.5597976  68.1404093   9.3682630
  87.7092289  67.2375026   9.6487386  87.1877168  68.0599358   8.4900243
  68.2625818  29.0186715  83.6819744  67.9329872  29.1370678  82.7911377
  69.2126322  29.1005421  83.5986996  54.1091204  31.8920255  89.3757629
  54.1183186  31.5012288  88.5020161  55.0230837  32.1200633  89.5457745
  51.4448166  30.2780962  79.6795940  51.8220091  30.5680966  80.5101681
  51.6027021  31.0055757  79.0778637  21.0382010  85.0019764  46.2558603
  20.1102568  85.0616323  46.0287142  21.2626148  84.0834164  46.1071396
  93.3721802   3.9294616  17.2657640  92.6422653   3.3582107  17.5047739
  94.0554831   3.7247650  17.9040678  59.2181301   0.5618252  66.5940475
  59.7298193   0.0335129  65.9814405  59.5896530   0.3598621  67.4527740
  35.3947306  31.1680460  88.2791138  36.1669827  31.7300868  88.2160950
  34.8926973  31.3611698  87.4873447  18.4136273  70.1945960  84.4090462
  18.5085894  69.3509637  84.8511887  18.2996966  69.9695813  83.4856701
  27.4806905  25.1927423  55.6589651  28.3355856  25.1461911  55.2309275
  27.6822615  25.3686190  56.5780258  57.6873301  46.6191068  11.6332872
  57.3456262  46.0495439  12.3225362  56.9133400  46.8855247  11.1371095
  76.7904638  61.4005759  16.1866529  77.2116731  60.9203645  15.4737623
  76.0809230  60.8267197  16.4755685  26.2956643  39.7282147  84.5961475
  26.8061590  39.0305424  84.1851902  25.9380674  39.3282366  85.3888416
  43.3225727  46.5984774  68.6549664  42.8730345  46.8525028  67.8489780
  44.2510414  46.7302275  68.4630871  52.3457718  20.8638072  82.1773052
  52.6468420  20.0464439  82.5741768  53.0876398  21.4617801  82.2683811
  28.0238749  84.5326411  66.1704683  27.6843096  85.1884555  66.7794323
  28.9725615  84.6589362  66.1869860  76.7635654  79.0660503  19.7744138
  76.0243772  79.2353347  20.3585107  76.3760518  79.0380862  18.8996084
 105.9104099 102.3422298  88.1163216 106.3741412 102.3454204  88.9536762
 105.3438964 103.1128957  88.1533241  76.6121410  29.7267130  24.9670465
  77.0800565  29.5430401  25.7816370  76.2822198  30.6186011  25.0762136
  94.3451189  41.4248088   0.0782068  93.6484169  41.9979927  -0.2416365
  94.6779369  41.8656060   0.8599718 106.0309671  98.0922964  40.0052889
 106.2921308  98.0941275  40.9261663 106.0777401  99.0111664  39.7412355
  26.7856439   3.4255496   0.0375993  27.0674928   4.1198055  -0.5580561
  27.4506697   3.4159557   0.7259901  48.7002850  30.1108766  81.0975075
  48.3005285  30.2646637  80.2414799  49.5877361  29.8131871  80.8974075
  92.8192781  66.9260910  12.0166643  92.8577923  66.9698444  12.9720838
  93.5205435  67.5070694  11.7218359  24.5002818  25.7697177  67.5725222
  23.7780857  25.4958940  67.0071125  25.2789307  25.3857875  67.1693659
   2.7164921  13.7667219  -0.0096171   3.2317671  14.5720283  -0.0565855
   2.4483045  13.7071077   0.9073026   5.4247373  26.3370848  69.3282700
   4.8869842  27.1140671  69.1754580   4.8409823  25.6015182  69.1427851
  36.0071611  43.3127165  74.6210814  35.9045339  42.3716211  74.4795370
  35.9892511  43.6905289  73.7417793  25.7239032  42.7229881  73.2358551
  25.3294396  42.4987984  72.3930168  26.5958500  43.0490303  73.0130529
  48.7244867  55.8407789  18.4544618  48.4346138  55.2853173  17.7308138
  49.5949672  56.1405507  18.1924780  74.5854758  54.2493984  15.4031809
  75.5084752  54.0771392  15.2170808  74.3540429  54.9714222  14.8189218
  25.0327945  28.7608123  68.2822561  25.0205255  28.0213714  67.6745462
  25.0747800  29.5333552  67.7186489  87.1541141  94.6088245  13.2250364
  87.8935121  94.5078876  13.8244875  87.5059437  94.3679312  12.3680551
   4.4824880   6.0427690  82.8037643   3.8283277   6.0768008  82.1057987
   4.7310632   5.1197886  82.8542519 100.0242996  47.0564127  72.8594160
 100.0048065  47.3661900  71.9539404  99.1207218  47.1453905  73.1625032
  89.0840172  86.2811973  18.7315138  89.2752432  86.6916445  19.5748384
  88.7458156  86.9939521  18.1894548  57.5565243  26.7248702  80.0538540
  57.8790092  27.1185994  80.8645439  57.9592848  27.2447610  79.3583488
  64.8267746  28.9625740  72.4848032  64.3903875  29.0042305  73.3357239
  65.7042933  29.3081117  72.6484919  89.2783092  88.3093717  14.2096956
  89.2343448  89.0138581  14.8562296  90.1553081  87.9409149  14.3162210
   5.8605610  25.9105849  65.6611776   6.7542778  25.5874157  65.5468416
   5.9686219  26.7957139  66.0091734  26.0637593  12.5430870  72.2860670
  25.9890032  13.0237186  73.1104708  26.6751957  13.0603588  71.7618465
  73.4869528  50.2602005  79.7653008  73.5450506  51.2144184  79.8135853
  72.9618216  50.0915003  78.9829922   9.5179710  89.7845247  55.1272352
   9.4909725  90.6289890  55.5771024  10.0748215  89.2363313  55.6800707
  74.7046375  19.3664420  72.1870422  74.2860794  20.1681066  71.8733931
  74.0306854  18.9336479  72.7111721  87.5799202  80.6587198   2.7544553
  87.8345703  80.2250507   1.9400079  88.4093689  80.8661750   3.1848200
  47.4594259  64.4076538  80.8026695  46.9624615  63.6458397  81.1008358
  48.3061886  64.0511131  80.5341530  37.8401494  33.2089376  86.3107204
  38.4045887  32.9177356  85.5945873  37.4756718  34.0398192  86.0057163
  51.1340761   0.1526247  82.3633289  52.0496988   0.2680543  82.6173878
  51.1640120   0.0117947  81.4170265  24.3191624  61.8163586  84.2204666
  23.4872103  61.4014292  83.9925957  24.9642134  61.3820362  83.6623383
  43.7795115  27.8674483  82.4759960  44.6057987  28.3447981  82.5509834
  43.7808084  27.2677302  83.2220364  98.5308145  94.2614201   2.3692186
  99.0279459  94.3971422   3.1758649  97.7669357  94.8310640   2.4599321
  28.4614372  53.2807589  82.0247459  28.4412313  53.7172842  81.1731243
  28.0364180  53.8978767  82.6203632  66.7917633  41.0279417  78.5969210
  66.0275841  41.5903807  78.4707403  67.3978567  41.2881994  77.9032707
  79.8540138  67.8638258   2.3975713  80.1482795  68.3243564   1.6117246
  78.9445614  67.6301315   2.2118051  73.4494613  95.5588177   0.2098520
  73.8469433  94.8182228  -0.2481406  73.9621733  95.6466463   1.0133703
  59.5248413  14.7585881  50.2482128  59.4927168  14.6867764  51.2021780
  58.8420248  15.3938484  50.0327158  15.1115354   8.0654756  23.4757478
  15.1163849   7.3530666  24.1150339  14.3171820   7.9205886  22.9616983
  29.4273933   0.8655635  11.2345655  30.0851806   1.3316814  10.7185419
  28.6070904   1.3206808  11.0442884  73.8934325  84.5075634  45.3890283
  74.7776412  84.7456839  45.6677873  73.5939144  83.8832810  46.0499342
  48.1253719  38.5837340  69.6820354  47.5077963  38.1316376  70.2568722
  47.6085663  38.8157940  68.9104843  54.5216894  46.9203806  79.1891670
  55.4420376  46.9576788  78.9287901  54.2307568  46.0501337  78.9166594
  97.2520088  96.0469559  10.6083734  96.9051336  96.2702969   9.7446401
  96.9089769  96.7274979  11.1875303  30.6856918  32.4794006  84.6630478
  30.2982712  33.2842612  84.3190479  31.2634182  32.7736163  85.3672504
  12.1503855 101.8669633  63.1826305  11.2778784 101.5266739  62.9847145
  12.0023895 102.5252709  63.8615704  46.5652514  28.6730719  82.3607063
  47.1694279  29.2506599  81.8942356  47.0067549  27.8238583  82.3725128
  24.3627501  36.5769696  84.5720768  24.6368289  36.7449355  85.4736805
  23.6095929  37.1526527  84.4394970  79.7026514  66.0938683  14.0274866
  79.7178005  65.4118815  13.3560045  80.4417681  65.8842686  14.5984609
  90.1364136  15.7338500  59.1753101  89.8126507  15.9334993  58.2969284
  90.0944138  16.5687621  59.6415615  76.4318800  35.9355855  89.0388107
  76.8290329  36.7866611  88.8539505  76.0379982  35.6695461  88.2079601
  41.0180378  42.5258350  79.3680429  40.5134010  42.7205181  80.1577759
  41.4510822  43.3514071  79.1509390  71.9103336  48.0393267  79.0776920
  72.2598028  48.1957006  78.2003975  72.4841118  47.3686123  79.4480324
  67.5646305  23.2193041  87.2493649  67.0827055  22.5367451  87.7163792
  67.7936697  23.8564301  87.9260063 107.4546884  78.8388350  25.3816469
 106.7572283  78.2455924  25.1026495 107.1505855  79.7071126  25.1173551
  57.5991821  31.3057947  71.2121010  58.2186651  32.0144415  71.3861370
  57.6149511  31.2021542  70.2606583  61.3386726  16.8056476  73.8534975
  60.9714222  15.9288704  73.9658356  60.5749464  17.3750615  73.7601089
  90.9851860  83.6695245  11.4475305  90.7098459  84.4261196  10.9298570
  91.3923668  84.0478805  12.2268064  33.6696276   4.4340745  38.4594400
  34.0590652   4.7369853  37.6391847  34.2131933   3.6915008  38.7227876
  47.8094244  41.0590506  82.4344444  47.7786350  42.0153809  82.4075413
  47.8499365  40.8468628  83.3669472  37.7834162   3.7545816  38.7308653
  38.6594089   3.6939184  39.1119058  37.1956524   3.7873165  39.4856508
  87.2468065  78.4770587  15.7658155  87.6757501  77.7673676  15.2877195
  87.6244091  78.4364179  16.6444452  11.6992649  17.9357711   8.0194242
  12.0396217  17.7117101   7.1532972  11.1943468  17.1670143   8.2845743
   7.7642609  50.0628220  38.0270958   7.5236632  50.3816782  37.1572256
   7.7048088  49.1099822  37.9578304  65.7717298  90.1406696  12.7166517
  65.9053968  91.0430696  12.4267538  64.8206137  90.0378683  12.7489336
  51.8817472  28.1814075  50.0150490  51.4173555  28.2523990  49.1810656
  52.0047235  29.0873432  50.2985859  64.1249466   6.4373976  58.5795832
  63.7528229   7.3012108  58.4018660  63.6868143   5.8554858  57.9585743
  90.1776003 102.0657804   6.3834341  89.2834448 101.8036726   6.6025503
  90.0739025 102.7047613   5.6783254  38.4957346   2.0148269  19.1864545
  39.2402538   1.8115035  19.7526605  37.8498300   2.4092571  19.7725065
  64.7769833  34.1637278  87.1665096  63.9290047  34.5724297  87.3400879
  65.2240038  34.7777009  86.5838909  81.1172079  90.8120325  23.6140020
  80.6203865  91.3620117  24.2197473  81.8558048  91.3583734  23.3452661
  87.6247597  37.2324944  73.4998322  86.6740131  37.2302938  73.6108065
  87.9321671  37.9278350  74.0814114  35.7606554  40.0715542  88.0611134
  35.0528026  40.6403923  87.7584553  36.5609622  40.5535650  87.8527737
  59.0786409  29.1829634  72.7829027  58.5162544  29.9550509  72.7209949
  59.9690390  29.5342636  72.7788639  41.0753679  29.4234705  88.6348248
  40.6670570  28.8227391  89.2582417  40.3401423  29.8772430  88.2227993
  40.6796741  29.2741704  84.8636913  41.1340094  28.4355211  84.7832012
  40.3213215  29.4371462  83.9911938  54.8746538  27.1132803  88.9646626
  55.2787590  26.3397264  89.3577862  55.5194378  27.8097105  89.0890694
  81.5134596  92.0313147   0.5376203  80.6341480  91.7468098   0.7868250
  81.5084051  92.9777983   0.6803568   2.1311609  39.7340226  80.6206036
   1.4535946  39.3248916  81.1588860   2.8782848  39.1389012  80.6828022
   9.6965011  16.2570278   9.2407282   9.2069420  15.4491273   9.0862425
   9.0551599  16.8564693   9.6222837  34.3734201  13.0664674  13.1366213
  33.6425718  13.6795131  13.0574567  34.8365911  13.3466188  13.9260633
  24.9179530  49.1069555  88.4204483  25.4310822  48.8178492  89.1749954
  24.6381211  48.2958555  87.9961300  62.5446939  48.9013052  84.1578388
  63.4734631  49.0039492  83.9502621  62.2258615  49.7957993  84.2780590
  97.5782560  92.8953674  30.1297720  97.1261572  93.0346420  29.2976434
  98.4307836  93.3144310  30.0122316  67.3050737  35.8321857  86.6272736
  66.8259811  36.1391377  87.3970032  68.2087946  36.1068940  86.7823696
  75.8536052  60.0393668  12.6973589  75.1352810  59.5740023  13.1259401
  75.8179902  60.9234056  13.0626543  84.9636459  39.7585082  75.6310415
  84.1059780  40.1580381  75.7760000  84.8853779  39.3249965  74.7812319
 108.1295512   7.9033796   6.0592229 107.9481671   8.6129848   6.6754968
 107.2957227   7.7543346   5.6134184   0.5410538  34.7185579  17.7777918
  -0.2868547  34.4525149  17.3777540   1.1622677  34.7415748  17.0499189
  82.7446674  62.1065894  15.9296568  83.3586954  61.7970505  15.2637918
  83.1882976  61.9387486  16.7610796   5.1428162  23.7142301  71.5555000
   4.3654858  24.2724776  71.5743732   4.7972714  22.8217721  71.5742970
  95.5358814  53.3555348  11.4323290  94.6130012  53.4201087  11.1866529
  95.7273077  54.1875589  11.8651350  84.2525505  63.4195295  40.7858999
  84.4770979  63.4398368  39.8556287  83.5572313  64.0707961  40.8787305
  35.2520156  55.5603647  69.6756506  34.7994637  55.6591749  68.8379955
  36.0698366  55.1146221  69.4549274 100.6548332  93.9245298   7.9324682
 101.4016794  93.4293440   7.5959451 100.9960579  94.3785265   8.7029703
  58.0664253  35.3060460  74.7218466  57.4172449  36.0094333  74.7151375
  58.4557962  35.3477979  75.5952740  80.5573581  76.3766482  26.9152506
  81.0503649  77.1919659  27.0070799  79.7051882  76.5665486  27.3076399
  79.4505358  31.4694810  61.2630844  78.9157486  30.7692432  61.6371202
  79.0814209  31.6133356  60.3917122 107.5940536  87.1779802  18.3626421
 108.3206533  86.9723680  17.7744157 106.8322586  86.7654112  17.9555948
  84.7491812  88.8334206  15.5258043  85.0497888  87.9248383  15.5072839
  84.8842644  89.1119721  16.4315660  96.9490932  46.5212062  18.8267000
  97.8629278  46.2383285  18.8600786  96.8210624  47.0137292  19.6374185
  75.9112571  67.4371531  31.1138590  76.6532587  68.0021861  30.8984525
  75.1774143  68.0402210  31.2322481  77.5071977  88.9661911   0.3675230
  76.6681026  88.6940196  -0.0040572  77.2765802  89.6242121   1.0233076
  59.4755316  34.2842245  86.4217186  58.6319923  33.9381719  86.7131233
  60.1124620  33.6237812  86.6944122  74.6486776  10.8358232   3.2804544
  73.7864304  11.2134735   3.4540708  75.1927513  11.1363164   4.0084131
  85.8818363  87.4813345  12.5395258  86.6424106  87.3474744  11.9739778
  86.1673378  87.1768597  13.4009226  43.6333513  38.9748216  58.8092232
  43.6131191  39.9143481  58.9911890  43.6887360  38.5648203  59.6723890
 104.6300576   7.8952066  25.9841879 104.7085998   8.6032382  26.6235311
 104.6926806   7.0943872  26.5047701  65.5675745  46.2848043  86.4959717
  65.6992722  45.3404045  86.4123631  66.4358950  46.6613197  86.3528442
 101.1388013   2.1513645  16.1624487 100.7917092   2.7983657  15.5483205
 100.3695891   1.8324129  16.6344793  52.8344822  14.3380618  71.4641333
  53.4645176  13.6190450  71.4161444  52.0387697  13.9363909  71.8130350
  85.5952381  98.1623152   4.5534380  85.6800531  98.1010225   5.5048998
  84.8522924  97.5969055   4.3422849  42.8577852  59.5136690  89.0323925
  42.2354555  58.8211489  88.8102436  43.2724333  59.7392273  88.1996727
  57.0851469  11.5293264  87.3703098  56.8962240  11.6376770  88.3024025
  57.5760603  12.3158658  87.1324158  87.4217485   1.5409196  79.4941950
  87.1373295   2.1658815  78.8272858  88.0063986   2.0445455  80.0605679
  30.7458760  96.3357352  74.0611696  31.1244370  96.5901386  73.2196236
  31.3975884  95.7527106  74.4505119  65.4518938  24.9701285  69.1290712
  66.3815784  24.8839140  69.3399811  65.2403116  25.8781314  69.3458557
 101.0777830  95.8643272  14.0239675 100.4557155  96.3696459  14.5473344
 100.9203171  96.1491325  13.1237848  25.3514417   3.3975927  16.9912870
  25.0458750   3.2571594  16.0951097  25.4185852   4.3487445  17.0751627
  32.4187025   3.1207172   2.4739797  32.7633747   2.3662177   2.9516466
  31.9987949   3.6580173   3.1457098  77.1118234  77.5968173   3.0907591
  76.4087509  76.9525912   3.1737573  77.8335737  77.2308853   3.6020334
  46.2307501  45.0604200  83.0276203  46.2659311  45.9914351  82.8080559
  46.2261677  45.0400257  83.9845943  61.1794232 100.1460960  21.3800867
  61.1515187 100.5725220  22.2366007  62.0224808 100.4075029  21.0097463
  11.4055475  10.0463573  27.8375681  12.1206173  10.1886693  28.4577711
  11.7756399  10.2825824  26.9870050  49.7443247  40.6540442  61.6071987
  49.4288731  41.5196943  61.3476372  50.0323534  40.2488899  60.7892036
  61.2044716  26.3335133  61.3677597  62.1284628  26.1322975  61.2194681
  60.8769703  25.5928779  61.8780851  88.6846542  40.3174925  67.8203821
  89.4729137  40.2753639  68.3617592  88.2216072  41.0952711  68.1316423
  53.7446785  31.7693830  78.0853128  53.3988523  31.0463309  77.5620270
  54.6715450  31.8132281  77.8502989  59.4510006  82.1372893  26.0183199
  60.0575327  81.6979912  25.4221971  59.4996213  81.6282514  26.8274934
  91.9340763  18.6328308   4.6678026  92.2126982  19.5463220   4.7320802
  91.1672971  18.5756198   5.2378996  32.4424204  14.7703592  12.5747545
  32.9685386  15.4610912  12.1718652  31.6308817  14.7605745  12.0672662
  92.2085499  87.6240065  36.2096365  92.6514028  87.3501280  35.4064520
  92.8939794  87.6104215  36.8776376  69.6723198  87.0423987  13.8482721
  68.9922951  87.1221593  13.1793649  69.6539449  86.1189583  14.0995748
  39.4793057   9.0824479  79.0341616  39.2762780   9.8269981  79.6004295
  39.5429921   8.3374113  79.6317387 101.8575849  91.3806843  84.6135998
 101.8065085  90.4296087  84.7088718 102.3637142  91.5142774  83.8122082
  76.7227100  70.3730300   9.4628389  77.2073721  70.0656453  10.2289064
  77.3526691  70.3207734   8.7440546  51.8514633  15.4191935  58.7229824
  51.5374470  15.8627832  57.9350376  52.6742935  15.8602357  58.9343166
  47.7854013   0.1315750  78.0576563  47.6373386   1.0346474  78.3383179
  47.5400877   0.1250290  77.1324492  69.1992520  61.2404647  18.4017713
  69.2561363  62.1919659  18.3143480  70.0371908  60.9848591  18.7874658
   1.0841284  60.8058992  17.8760774   0.2221356  61.1090728  18.1611974
   1.6968117  61.4376578  18.2525499  21.7278075  12.5557959  65.7399416
  21.1500168  11.9738317  66.2336111  21.6802716  12.2334552  64.8399067
  19.2591155  44.4847679  58.9627981  19.4037008  43.6292028  58.5586548
  19.3765509  45.1103020  58.2478476   5.6319246  69.1436294  21.2562711
   5.5457506  69.4679060  20.3598077   6.1587296  68.3487025  21.1738165
  33.6343217  14.3033993  84.2285347  34.0859628  14.9788404  84.7345257
  34.3187547  13.6716926  84.0077782  43.3479261  16.9957387  86.1690617
  42.4134159  17.1625340  86.0461426  43.7818432  17.6410377  85.6109047
  94.5529461  27.0966387  65.8614254  94.0067482  26.4427876  66.2977457
  94.7581482  27.7329540  66.5464258 104.4100879  66.2093046   4.4088800
 104.3232368  66.8175426   3.6748941 104.6207975  65.3696349   4.0004881
  18.1692505   5.8080190  77.9964113  17.9834068   6.5787381  77.4600458
  17.3734403   5.6775099  78.5120535  44.5683496  65.4604986  13.0053861
  44.1868757  64.6422913  12.6871927  43.8287162  65.9408358  13.3774812
  60.2719688  35.5949855  80.0104713  60.9389162  35.7620835  80.6764221
  59.7432089  34.8847008  80.3739834 104.6744083  51.3047861  14.1130884
 105.1426433  50.5440028  14.4568880 105.3610586  51.8658425  13.7525995
  94.9369453  77.8916886   3.9324625  94.9440502  78.0456117   4.8771722
  94.8368524  78.7628177   3.5485990  46.3695477  89.3503096   5.6149252
  45.7190918  88.6733678   5.4281385  46.0655515  89.7572139   6.4262445
  39.1555691  21.7255592  88.4488678  38.5276365  21.0187221  88.5982418
  38.6466503  22.4102902  88.0148411  40.8587694   5.8075738  71.9612551
  41.1502838   6.4037251  72.6510811  39.9147511   5.9540647  71.9012451
  47.6793861  29.3781018  86.7773628  48.1080341  29.9873734  87.3784351
  48.3289766  29.2207789  86.0921574  70.6224203  49.3828297  81.8135929
  70.8134460  50.1603127  81.2889385  70.1234102  48.8145924  81.2268066
  56.7998219   8.2997227  66.3750792  56.4366388   8.2472479  67.2591448
  56.5762138   7.4598408  65.9740400  62.7874517  29.8079300  57.0205927
  62.3378181  30.1915455  57.7735233  63.2004166  29.0164661  57.3659658
  48.4119129  41.3839674  77.7394533  48.2137918  40.7674980  78.4443998
  47.5701237  41.5346527  77.3094320  21.1203718  17.5098240  75.1813459
  20.9684658  18.1331944  75.8916712  20.6428385  16.7237139  75.4463434
  45.8348179  52.6632786  81.3108253  45.5607414  53.0486107  80.4785824
  46.3331270  53.3567524  81.7432785 104.0443014  81.6925099   7.8724630
 103.9084696  81.6085389   8.8162477 104.3004154  82.6063350   7.7477129
  14.6979356  22.6149869  77.3836756  13.9411306  22.2141027  77.8111935
  14.3417418  23.3830333  76.9370699  23.4874082  81.7662621  85.9068584
  23.9750838  81.3662338  86.6268539  22.7625751  81.1626530  85.7440281
  55.8223041  23.7480155  30.4274233  56.7347225  23.9756099  30.2487333
  55.8545002  22.8343812  30.7110937  34.2751345  12.9248754  16.7073877
  34.4801697  12.0195953  16.9411714  34.7868952  13.4523956  17.3206289
  38.1071424  31.6055107  80.6716156  38.4403086  30.7266092  80.8526325
  38.3419418  31.7671704  79.7578526 107.5517820  97.7990749  13.4979684
 107.1715711  98.6722210  13.4015901 108.2590841  97.9145410  14.1325052
  81.8648027  66.3422861   3.3985288  81.1216854  66.7185059   2.9268701
  81.9960903  66.9274977   4.1445406  23.8879166  74.9364784  16.1504419
  24.1466961  75.7894924  16.4992006  24.4991169  74.3184116  16.5512808
  15.5566750  98.9922312  10.8021314  14.8320732  98.3688000  10.8522565
  15.3279839  99.5670536  10.0717218   6.2404833  85.7395533  21.1495645
   6.8280754  86.4130237  21.4922102   6.8132458  84.9969962  20.9577711
  41.8380451  50.6464529  69.4514132  41.7519999  50.6005287  68.4991932
  41.4246941  49.8433447  69.7682619  48.9723873  14.2803907  65.9765482
  48.3611536  14.2246830  66.7110682  49.7907209  14.5852125  66.3685226
  36.0053635  13.0008304  65.5043650  36.1611652  12.1561766  65.0818539
  36.8752789  13.3916414  65.5864859 108.8948082  75.9768632  13.4309251
 109.4828819  75.3025153  13.0908449 108.0209802  75.5939343  13.3533247
  49.6544838  20.1990461  88.6633682  49.4595337  21.0173297  89.1201401
  48.8295698  19.9574339  88.2422161   7.4462684   2.8831998  13.1682642
   7.0986780   2.3283855  13.8665445   6.7352279   2.9383365  12.5298078
  90.5716823  64.9604359   5.4680212  90.3082584  65.6317952   6.0973985
  89.7470640  64.5867637   5.1572092  70.1188469  50.3096581  84.3318176
  70.3588676  50.0436592  83.4441948  69.7301102  49.5257521  84.7198963
  51.7410803   5.5562377  77.5295305  50.9544230   5.3552026  78.0364752
  51.7697334   6.5125829  77.5010014  85.3704475  78.1006434  22.2991045
  85.8931898  77.4981954  21.7699297  85.5021166  78.9555338  21.8891580
  60.7644987  18.5346818  89.0030575  61.6387415  18.6731827  88.6387062
  60.5345631  17.6430428  88.7416363  82.7388452  71.6756871   1.8726690
  83.6601328  71.9303635   1.9236810  82.4717067  71.5592435   2.7844293
  39.9040532   7.4682349  81.7839432  39.1310287   6.9280165  81.9477463
  39.6447468   8.3473468  82.0599079   3.0703459 101.7297438  16.8804224
   3.1138477 102.6764992  16.7462976   3.2202683 101.6136196  17.8186567
  28.5671258  49.2974186  57.2764969  28.9762521  48.4336233  57.2245502
  27.6387858  49.1330910  57.1109200  51.1282349  16.6133308  71.1982203
  51.7807436  15.9136045  71.1691189  50.8952665  16.7618430  70.2817583
  85.0940250  80.1141265   8.0500658  85.0283264  80.2149561   7.1004636
  85.8807062  79.5847323   8.1808527  80.1737856  89.1793921  12.8484972
  79.8843549  90.0908759  12.8077371  80.8206009  89.1648033  13.5539396
  67.9118060  83.2087830   0.6701429  68.1714748  82.9831269  -0.2230971
  67.4026202  82.4554017   0.9691007  88.9044380  17.6704645  82.5141048
  89.4890499  18.0839348  81.8788719  88.0243301  17.8752589  82.1983433
  96.2271332  67.3375907  38.9232881  96.1846899  67.5679078  37.9951818
  95.7488273  68.0385509  39.3661363  67.5037622  43.1479788  82.1963024
  67.3157549  44.0416002  81.9093704  68.3002710  42.9071093  81.7232418
 106.1684362  52.2702742  65.1454401 106.8658560  52.6357222  64.6011162
 105.8172451  51.5445757  64.6294355  65.8581829  37.1568227  67.7144146
  65.6325436  36.5567732  67.0035982  66.5610361  37.6989508  67.3561907
  24.9180245  39.7395730  72.2767067  24.9180198  40.2305412  71.4550114
  24.0292668  39.3912721  72.3476076  76.9149660  88.1443503  18.2756860
  76.7673992  87.8043631  19.1582163  76.0422038  88.1817320  17.8843744
  25.5109629  20.6745664  12.9851587  25.3126463  20.4121248  12.0862634
  24.6729835  20.6115571  13.4434755  58.7932752  98.8949945  10.8130033
  58.3351730  99.5815590  11.2977750  58.1123160  98.2567337  10.6005342
 109.0456222  99.9578598   3.0340727 108.9636444  99.1086843   3.4681375
 108.9179300 100.5980280   3.7341459  93.1583380  75.7757166  15.0256117
  93.6030744  75.9382179  14.1937311  93.7032532  75.1228431  15.4649980
  58.4425162  61.1879536  23.5370119  59.2232035  60.8795908  23.9970834
  58.7161659  61.2599233  22.6225908  46.0829926  31.6213369  76.5260458
  46.2798691  32.4846292  76.1624527  45.2163410  31.7195034  76.9203997
  32.7043462  37.7987957  55.2677822  32.4353361  37.1964574  55.9613609
  33.6414981  37.6365542  55.1598215  63.7815428  28.0730629  86.6913223
  63.8954449  28.7919235  86.0696316  63.7480688  27.2874284  86.1455250
  80.7558250  29.3823791  88.9299107  81.2388229  30.0852299  89.3645954
  80.6098080  29.7062421  88.0410767 106.9261097  79.5736840   0.3156526
 106.4921497  78.9871219  -0.3039114 107.5745128  79.0222838   0.7535608
  79.2028641  68.9809516  13.8283785  78.7525772  69.2939809  14.6129091
  79.3603109  68.0520013  13.9971693  71.1394358  75.7914543  86.1365509
  71.6273832  75.9794426  85.3348064  71.6274118  76.2427998  86.8253136
  87.7623056  95.2848461  10.0749834  87.8070186  94.5031813   9.5243223
  88.5253309  95.8026436   9.8182542   6.9155918  32.4147248  87.2913170
   7.5656067  33.0404449  87.6109791   6.2656056  32.3654580  87.9922581
  36.9459367  23.9595509  84.6478367  37.7327180  23.8576889  84.1122627
  36.4014482  24.5764017  84.1586971   5.7418022 101.5053203  41.2969740
   6.5305433 101.5165117  41.8391855   5.5669842 100.5761412  41.1476381
  35.6330562  33.8673306  59.3702126  34.8617625  33.9699721  59.9277115
  36.3079286  33.5241055  59.9558544  11.8648554 102.6623062  83.5018253
  12.6574303 102.8489327  84.0050411  12.0632197 102.9731731  82.6185131
  84.6019768  97.1313742   6.8676336  84.0063261  97.8806284   6.8608434
  84.7714447  96.9685200   7.7955206  55.6674910  15.2602196  54.2053509
  56.1808920  14.7790539  53.5564041  55.6786299  14.7009683  54.9821043
  62.3691225  24.8071909  75.6793499  62.7697849  23.9420152  75.5946589
  61.5656900  24.7507429  75.1621008  87.5934110  11.4830486  13.2193144
  88.4624324  11.5311328  13.6177118  87.1579680  10.7659809  13.6802251
  62.7033091  18.6437476  76.3774729  62.6339912  18.4308863  75.4468203
  62.7535963  17.7936304  76.8145132  67.1424437  45.9010887  79.0109873
  67.9863024  45.5445433  78.7334728  66.5752602  45.7962894  78.2470846
  19.6537361  98.0965403   3.4219129  19.7400246  97.3515728   2.8270872
  20.5528698  98.3076170   3.6734064  48.1790543  64.1005135  84.7374153
  47.8331089  63.5922670  84.0037632  49.0319347  64.4105673  84.4329453
  22.0195637  90.1890114   3.7265737  21.7989502  90.4637053   2.8365667
  22.9669151  90.0534466   3.7075002  17.6774343  16.9908039  29.2277486
  17.4988397  17.9105798  29.4235761  18.0489954  17.0014898  28.3456667
  55.5476999  50.8139372  62.3154593  56.4901257  50.7454967  62.4683714
  55.1525164  50.6220913  63.1659079 100.3241848  88.0725053   9.3741758
  99.5407223  88.3505729   9.8486192 100.6819414  87.3576525   9.9006994
  28.0910953  27.9405013   2.4571378  28.0706581  27.0920745   2.0144327
  27.4653419  28.4787313   1.9723947   0.5400047  82.7730039  19.8164232
   1.2722311  83.2749608  20.1743562   0.4853687  83.0484846  18.9013536
  44.5160103  93.7481022  89.1015434  45.0618076  93.9092255  88.3318901
  44.9774647  94.1840935  89.8179340  72.8358459  22.0263791  80.1155472
  72.0417404  22.5570130  80.0518417  72.7087879  21.4988565  80.9040928
   0.5301319  64.1475201  84.8605537  -0.3813518  64.3015146  85.1089954
   0.5879628  63.2000637  84.7372246  76.3610410  82.8059485  19.8850591
  75.8401870  83.5409072  19.5613630  76.6620086  82.3588922  19.0939958
  28.6794027  10.0589696   5.2212865  28.9375528  10.6599418   4.5224149
  29.4108566  10.0808374   5.8383138  86.6560364  62.5748491  82.0890522
  87.0343971  63.2079077  82.6992321  85.8787823  62.2436190  82.5389385
  99.9926186  43.8275814  86.1368465 100.1285744  44.3984127  86.8930817
  99.5338631  44.3770790  85.5013752   0.2088436  19.0678111   7.3690851
  -0.3240648  18.4389202   7.8556402   0.1227006  18.7979595   6.4547594
  72.6255608  40.0893593  85.8487320  72.1367598  40.8965445  85.6882381
  72.6986408  40.0390911  86.8018150  55.6254721  71.3820791  85.2042198
  55.1556206  71.4114523  84.3707943  55.4210901  70.5189800  85.5641079
  42.6525768   0.4703514  24.6528967  42.4657902   0.1036540  25.5171163
  43.5516294   0.7922689  24.7185190  21.5622171   2.2201101  26.3728578
  21.7604717   1.6657869  25.6181104  22.0703396   3.0176011  26.2243803
  57.0905956   6.7297403   5.5504186  56.2451919   6.2821094   5.5843218
  57.0671066   7.2242013   4.7311552  93.6064743  82.1274116  34.3109281
  92.9607319  81.4242962  34.2410810  93.4065365  82.7098897  33.5781343
  28.5061226  72.6753142   7.2052629  28.0825195  72.8073385   8.0534132
  29.2930374  72.1689704   7.4067934  74.6115540  93.0267742  15.6526239
  74.3062543  92.3837974  15.0126226  73.9504741  93.7186840  15.6310709
  66.4544964  55.3751802  79.0283251  66.7338133  55.2070475  79.9282932
  67.2296810  55.1896238  78.4983301  59.7333908  13.1991601  75.3686094
  60.6084585  13.5253847  75.5785179  59.6740484  12.3607993  75.8267164
  13.9685021  91.4869931  13.0102308  14.6119843  92.1190670  13.3306177
  14.0563355  91.5177372  12.0575674   8.5800991  92.7425077  25.7948740
   7.7557430  92.4238947  25.4272421   8.4543095  92.6940372  26.7425401
  53.1417990  45.3299141  88.1653500  52.6029730  44.6587229  88.5841560
  53.0657911  46.0913277  88.7404156  32.3674759  31.8284313  14.4015653
  33.1847318  32.2728721  14.1761835  31.8957170  32.4571029  14.9478586
  25.9013304   6.1109964   3.7518270  26.5584120   6.6569320   3.3200510
  25.6965526   5.4304162   3.1106527  87.1490383  32.3053598  87.3867035
  86.6363049  32.5775290  88.1478024  87.9838562  32.7634239  87.4840736
  58.1988955  82.9451180  86.1261082  58.6878729  83.5859680  85.6099319
  58.5919046  82.9895878  86.9977665  95.0549244  84.0964749  17.3901994
  94.8314308  84.7926214  16.7724092  94.2144464  83.8242557  17.7586038
  38.3591112   3.3419792   7.2995622  38.6311373   4.1632501   6.8899973
  37.5471290   3.1076328   6.8501241  19.3191395  97.3332670  26.5716131
  19.3965588  98.1121710  26.0206659  20.2224693  97.0521429  26.7172201
   4.0815983  80.1400664  34.3335683   4.1256008  79.5800355  35.1085909
   3.1611071  80.3959849  34.2749460   5.0099907  98.2670095   5.9562738
   5.5424271  97.5186327   5.6866892   4.6061478  97.9898050   6.7786462
  99.0243244  48.5880995  76.9133568  98.4223747  47.8672743  76.7281437
  99.8872375  48.1756306  76.9519567  66.8081617  57.7054691  84.4482327
  66.5219212  58.2565022  85.1766968  66.1824656  56.9811964  84.4355202
  98.3019543  16.1533570  76.3402748  98.5987186  15.2504981  76.2262249
  98.5793495  16.3865519  77.2262239  30.0949749  44.9736968  16.8908651
  30.4950222  45.4307262  16.1510618  30.8298048  44.5559684  17.3400552
  61.5544558  65.0365114  88.6294079  61.4258242  65.2936792  87.7164173
  61.6727400  64.0872192  88.5964584  38.5862001  -0.2146920  49.5612295
  39.0586790   0.4745237  49.0943487  37.7597412   0.1937477  49.8188455
  51.9275650  16.6698638  28.1451566  52.6964363  17.0011608  28.6091764
  51.9319042  15.7280961  28.3162935  69.8271608  52.3796654  86.0976410
  70.0434017  51.7413807  85.4178905  70.6684017  52.5949287  86.5003967
  21.0112795   7.0527355   8.1121023  21.7722210   6.7862216   7.5961931
  20.3567823   6.3755552   7.9409654  40.5854400  16.9729225   3.2957895
  40.8349022  17.7466575   2.7904852  39.6434769  16.8851558   3.1500681
  34.6159967  15.9412090  25.1038511  34.3042072  15.3268091  24.4393785
  35.4752048  16.2204019  24.7875650  36.0408195   4.2359010  12.0579965
  35.3322443   3.6444990  11.8042429  36.6560348   3.6808339  12.5372083
  16.7003403  79.8139122   5.0732000  16.8539391  80.7063439   4.7630270
  17.5502644  79.3816474   4.9895055  74.5797348  25.1762581  79.6781683
  75.0094461  26.0060048  79.8857784  74.1114521  24.9419832  80.4794502
  24.5721936  11.9784737  82.6899147  23.9478660  12.6773047  82.8850651
  25.4243779  12.4142873  82.6807976  84.2082714  54.6888470  16.9098337
  84.2054342  53.7362227  16.8164022  85.0704502  54.8913193  17.2730024
  47.7070793   7.0433704   0.9808977  48.4674724   6.6804687   0.5266626
  47.0648655   7.1968881   0.2879102  91.9475673 101.0994366   8.6184175
  91.5065550 100.5802896   9.2908914  91.2454246 101.6012981   8.2044656
  56.1471256   7.6477901   3.1155355  56.3998874   7.2131482   2.3010214
  55.1985153   7.5299922   3.1654985 102.3140453  78.7373379   3.9050157
 102.3548626  78.1952479   4.6928651 102.5238727  79.6199110   4.2104108
   8.1801949  92.6959923   8.6994798   8.5942993  93.5495260   8.8268621
   8.0497990  92.6318481   7.7533777  81.8062115  39.1783214  78.5911369
  81.5143204  38.2785082  78.7373161  81.4169312  39.4229960  77.7515984
  38.8935623  86.2612608   0.7050188  38.1265888  85.7653549   0.4185350
  39.5189819  86.1716917  -0.0140421   1.4446148  44.9557487  26.3444860
   1.8913754  45.4514400  25.6582506   0.5581769  45.3165046  26.3620622
  22.1514973  18.2224647   1.9507558  21.8459877  19.0380613   2.3478658
  22.1669182  17.5951902   2.6736124  79.0684532  92.3295000  65.5095441
  78.8885711  93.1461122  65.0437029  78.4444593  91.7025927  65.1436861
  21.0282501   1.2883417   9.9145181  21.1944755   0.9359113   9.0402181
  20.1264747   1.0325424  10.1084097  88.1143570  53.3028364  87.6873684
  87.6476765  53.0277300  88.4765148  87.4886036  53.8558578  87.2195816
  14.3654785  99.3518522   3.5038812  14.0967426  99.1519001   2.6072080
  15.2448711  98.9812878   3.5786398  66.7766047  65.8413982  87.8963184
  67.2752810  65.6797838  88.6972141  66.7939806  65.0053453  87.4305344
  84.3566418  52.6412392  80.6373405  84.5348930  52.5006104  81.5672302
  84.6585846  51.8388796  80.2115726  96.7791485 100.4652193  40.7551344
  96.6551327  99.7315338  40.1530035  97.6695083 100.3537062  41.0883768
  47.0278025  40.8332014  73.9420938  46.2834120  41.0869837  74.4877195
  46.7675352  41.0764933  73.0536699  70.2660990  56.8298531  81.9795990
  70.2382612  56.3044691  81.1799526  69.3557215  56.8681860  82.2728062
  36.6715893   3.6340801  20.6109865  36.2933811   4.0054981  21.4080103
  35.9202894   3.4819166  20.0377329  84.8510097  93.7855366   7.1333749
  84.1416048  94.0664986   7.7113302  84.8001360  94.3803194   6.3851221
  90.0257301  45.4996109  79.4616318  89.4434071  45.6854630  80.1982403
  90.3431797  44.6115589  79.6254206  30.7205614  42.9255763  14.8444708
  31.5251716  42.4096290  14.7931726  30.9186634  43.7270156  14.3600423
  99.1060470  81.4517239  23.6128481  98.7810539  82.3268249  23.8245447
  98.3712744  80.8698538  23.8071973  31.5374454   3.4081975   5.6078680
  31.2403854   3.4992067   6.5132482  32.3243412   2.8664438   5.6672914
  10.8806572  88.2743123  27.1403082  10.9906540  88.5672143  26.2356813
  11.2563191  88.9792922  27.6676710  16.1334928  20.3913537  10.2703912
  15.3523382  20.6038038   9.7596223  16.6026720  21.2221376  10.3472574
  10.3587399  94.2888811   4.1535814   9.7358856  94.4785526   4.8552282
   9.8566399  93.7769392   3.5195120  18.8654077  64.6620464  81.6932392
  19.5420647  64.4536400  82.3373985  18.1177437  64.1212606  81.9477558
  52.4766444  90.4028919  24.4626959  52.4778591  89.5778516  23.9773710
  52.3706971  90.1423934  25.3776510  51.3173676  48.3344555  81.4013386
  51.0277939  48.9586926  80.7359695  51.0541296  47.4802017  81.0590172
  44.3055233   9.7849075   5.4003008  44.9695190   9.6096841   4.7334917
  43.6942180   9.0518943   5.3280122  61.4763783  97.9302004   9.5822675
  60.7084821  98.0418995  10.1427038  61.4303421  97.0193460   9.2916544
   7.1095022  11.3159219   1.2060602   7.7710661  10.6405393   1.3558157
   7.3618683  12.0318643   1.7891271  86.3422035  91.2331655  20.2074869
  86.7398762  90.7404640  20.9253557  85.6889843  91.7894819  20.6318052
  97.4089693  85.7005790   0.1673753  96.6129230  85.4093745   0.6120546
  98.0831980  85.0854662   0.4559763  74.8336648  59.6000084  16.1131246
  74.1605829  59.7603383  15.4516943  75.3817104  58.9121643  15.7353075
  53.3100017   7.8584091   2.4282224  53.0457577   7.4922458   1.5842207
  52.5435909   7.7428953   2.9899271  66.1581802  79.4876194  81.4087582
  65.2440453  79.2141724  81.4850616  66.6518164  78.8008595  81.8569946
  39.0534425  68.6330271  88.6275196  38.3826923  68.8143492  89.2858887
  39.3646598  69.4972754  88.3583450  77.7296257  31.6284060  76.7700577
  78.2730484  32.3561120  76.4677906  78.3561850  30.9494352  77.0203590
  26.8458113  10.9178344  15.1874120  26.9180807  10.5367557  16.0625131
  25.9500727  10.7206622  14.9135454   3.2250484   9.8551217  10.1199205
   3.8906893  10.3200523   9.6129663   3.7218555   9.2444078  10.6643827
  26.9205628  91.9469145  45.8128412  27.7345333  92.2251490  45.3929956
  26.9451485  92.3561743  46.6777952  90.2849102  41.0521126  85.9451485
  90.4451752  40.2076817  85.5238533  90.4203606  41.6961002  85.2500439
  38.3894920  43.2237530  85.1792622  38.4427166  43.1810999  84.2245007
  38.3319354  44.1590834  85.3743935  79.6295977  42.3636436  78.7148571
  78.7014723  42.1308470  78.7396574  80.0837803  41.5270376  78.6146879
  34.1177797  85.4974079  70.9298563  34.4729400  86.3860989  70.9119320
  33.2043552  85.5990887  70.6623650  49.8510536  15.6077091  15.8232172
  49.3552765  15.1468364  16.5000017  50.0343212  14.9389879  15.1633318
  72.7147770  30.6309104  84.6331215  72.5046301  30.4524899  83.7164688
  71.8639517  30.7510161  85.0549030  42.7072191  50.3735352  86.5471458
  41.7891455  50.3643703  86.8178558  43.1975079  50.2412653  87.3585415
  54.9849972   4.5397321  15.1472051  55.3450378   4.0231363  15.8681257
  54.2288574   4.9869672  15.5273016  95.0264931  42.3121405  82.2277832
  94.7954273  42.6861858  81.3775253  95.8973885  41.9374561  82.0959091
  19.2426262  86.7453220  32.0048864  20.0247917  86.2887481  32.3147161
  19.3992672  86.8817189  31.0704954 103.0941627   8.0541746  22.6771124
 102.3256037   8.1180469  23.2440908 103.7824128   7.7073232  23.2447679
  55.2076483  65.7925987  83.6111259  54.3477631  66.2020493  83.7069702
  55.8236599  66.4512587  83.9319515  44.8372063   3.7121526  27.6650198
  44.6442112   4.2598478  26.9040926  45.7786259   3.8168327  27.8028829
   4.4509039  89.9460748  22.5320203   3.8020334  89.6801188  23.1835325
   4.0366278  89.7565892  21.6901834  85.5041717  74.3795016   0.1965196
  85.6709884  74.7737554   1.0526521  84.5537161  74.4254353   0.0927789
  47.4155887  16.0261575   4.7484071  47.8597912  16.0518876   5.5959089
  48.0309471  15.5768815   4.1690023  26.8138489  24.7935525  12.7830370
  26.6611608  25.7102863  13.0122049  27.3487743  24.8307792  11.9901235
  38.1491312  16.8637315  16.5531023  37.6733383  16.9860927  17.3746069
  39.0400585  17.1553460  16.7465933  42.2070265  45.2792168  83.4262753
  41.9487429  44.9243402  84.2769051  41.3798809  45.4328394  82.9696941
 104.0346979  94.6818664  26.3364561 104.0730881  95.3579214  25.6599195
 104.9099277  94.2943123  26.3377149  69.7862673  62.4080896  86.9637108
  69.1944790  62.6667213  86.2572289  69.7760820  63.1500578  87.5683689
  78.3199644  50.7480431  74.8181725  77.5340796  50.2965641  74.5103025
  78.9198542  50.7198954  74.0727997  48.7407478   0.2210275   7.0412500
  47.8025898   0.1732580   7.2250898  48.8594230  -0.3185185   6.2595613
  14.5242844  95.5738285  27.0816286  13.8366184  95.3539207  27.7101095
  14.7886143  94.7316435  26.7113836 101.2000059  84.5378068  26.6679437
 101.8137192  83.8036588  26.6431291 101.5685104  85.1361683  27.3178728
   6.4482817  10.1833907  32.6903875   6.5980610  10.4916850  31.7966612
   6.0851749   9.3042890  32.5828035  46.2377167  74.6540499  66.5682745
  45.9669828  74.1621351  67.3434877  46.8402195  75.3177214  66.9040871
  76.3311695  94.9786308  36.1317117  77.2614836  95.1938465  36.0651167
  75.9706234  95.2067831  35.2748640  66.6901420  98.6352852  42.1003587
  66.3656782  97.7352932  42.0691545  66.0618066  99.1346291  41.5787466
   4.4527588  92.8962925   0.5639322   5.3726015  93.0561426   0.3528078
   4.4651136  92.1080282   1.1068208   4.4790278  82.6838663  22.8764875
   5.3155098  82.5875976  22.4212225   4.6895275  83.1931475  23.6591489
  81.5009975  31.1732864  77.8804636  81.2151051  31.1874652  76.9670630
  80.9734058  30.4851770  78.2859087  74.1031361  72.5787640  72.6286888
  73.7976551  72.9280329  73.4659004  74.5563602  73.3128214  72.2139883
  76.3938926  96.2562015  -0.0351469  76.1558388  95.5257109   0.5357702
  77.3328422  96.1465910  -0.1854460  47.4244738  81.5440369  80.4031086
  47.9538774  82.2990131  80.1462460  47.5566578  80.9083748  79.6997643
  18.2311306  78.9624074  29.9228437  18.7408218  78.3159974  29.4343813
  18.8815746  79.5861271  30.2455194   0.4159817  15.7787982   6.4296014
   1.2922820  15.3961841   6.4736231   0.1274833  15.8221189   7.3412664
  27.7420759  31.5484715  82.0185089  27.5720310  32.3604536  82.4960041
  27.5258923  30.8545589  82.6413918  35.0215324  17.0708600  39.0315015
  34.7098717  16.1804191  38.8695772  35.7988151  17.1566526  38.4794958
  41.4335632  38.2295251  66.6714859  41.9404745  38.7019062  67.3318863
  40.5826902  38.0806875  67.0839071 105.1505541  97.2425249  51.6871221
 104.5570492  97.1873978  50.9381540 104.8648332  98.0228403  52.1622045
  66.6724380  30.5506889   7.4701460  66.2255653  30.4714767   6.6273744
  66.7149910  29.6545497   7.8038461  35.4298331  98.8668885  69.3926287
  35.7681967  98.2937383  70.0805521  36.1182715  99.5194607  69.2644405
   3.2099663  97.8558445  70.7985592   2.3292195  98.1286621  71.0556269
   3.7443291  98.0057526  71.5784359   7.9749832 102.1464708   5.8712633
   7.4423370 101.4841059   5.4310377   8.0295620 102.8663900   5.2428014
  90.4584621   0.6683458  67.0375586  89.6254467   0.2995409  67.3313236
  90.5368303   1.4938463  67.5157309  98.9342117  66.3766146  75.0784445
  98.4211159  65.8407497  75.6832647  98.6223984  67.2695017  75.2259493
  59.6333202  29.5818321  15.1151140  59.1117557  29.2860309  15.8612497
  60.4222664  29.0406219  15.1447828   8.0465279  91.2846449  29.4516046
   8.0765781  90.3384879  29.3097742   7.1127234  91.4920547  29.4865949
  97.5929356  22.4891543  73.1892157  98.0317688  22.1817207  72.3960304
  96.7146397  22.1119976  73.1385136  42.7158880  44.6261644  87.6786709
  43.4149599  44.6590996  88.3316994  42.9810238  43.9288521  87.0789337
  45.6944641  23.7057630   9.4362409  45.4919323  23.4113876  10.3242452
  46.3129314  24.4261257   9.5579202  27.1367582   7.4841157  36.8998869
  26.7904648   8.0044500  37.6248415  27.8658041   6.9958202  37.2823579
  24.3456491   7.4188653   1.1348684  24.0596660   6.7904416   1.7978342
  25.2694448   7.5723592   1.3330419  85.3283762  89.1351107  18.2700689
  84.7830032  88.4228137  18.6038931  85.3768562  89.7592214  18.9942033
  87.2740148  82.2238853  23.2429655  88.0607342  81.6874602  23.3407171
  87.5071071  82.8720000  22.5782545  59.8470163  80.9772110  77.6939821
  59.1421509  80.4413605  78.0576563  59.6687937  81.0014343  76.7538309
  14.8788627   7.1811000   4.3660696  15.2115282   6.3400022   4.6793039
  14.6685013   7.6673643   5.1632745  69.8538780  11.3610053  80.9277630
  70.0764275  12.1673775  81.3930225  69.8313284  10.6895328  81.6095638
  78.7411093  97.9358032  49.6876295  78.7956451  97.1121385  49.2030294
  79.4103693  98.4925678  49.2897184  98.3795666  93.1480005   5.3411920
  99.1757082  92.6205376   5.4057844  97.8690218  92.7273252   4.6493776
  97.4857807  43.3646584  88.5968781  98.2034397  42.7621984  88.7924004
  97.3296547  43.2548189  87.6589108  25.1251564  90.7484796  26.6313894
  25.1124249  91.2268069  25.8023698  24.2017422  90.6125787  26.8437059
   1.1193237  80.4008034  18.6430032   1.1415587  81.1225322  19.2713697
   1.6994009  80.6815031  17.9352243  28.8738561   7.3983353  84.0451241
  29.7680712   7.7113748  84.1815662  28.9074111   6.4698148  84.2752457
  62.8799995  12.8480569  13.3931596  62.2574505  13.5341541  13.6338480
  62.5403007  12.0581428  13.8137205  72.2266817  35.5712557  74.6093130
  72.0662642  35.3462934  73.6928558  71.4561415  35.2453232  75.0743580
  74.9729633  32.2992921  84.5354843  74.2634392  31.6715550  84.6724224
  75.0251627  32.3981214  83.5848331   4.5148500  16.3759414  25.9780843
   4.6468099  15.5546848  26.4517458   3.7924465  16.8040267  26.4375551
  77.4868749  84.4745019  13.8743265  77.8645586  83.8607743  13.2443102
  78.0731701  84.4332936  14.6298368  26.6817452  80.0319921  61.5006161
  26.0212780  80.3749572  60.8986282  26.5869547  80.5657207  62.2895288
  27.5478897  67.2820249   8.8019617  27.3123226  67.1497622   9.7202451
  27.9066238  68.1689575   8.7720640   7.2017822  80.7360247  44.2494733
   6.8837366  81.6115978  44.4695814   7.5859795  80.4092291  45.0630052
  97.3232340  74.7666433  12.0254858  97.3957800  75.7055309  12.1971376
  97.5777458  74.6705749  11.1077554  60.6950951  27.3514605  64.0981054
  61.0048008  26.9780755  63.2729387  59.8694134  27.7797890  63.8722277
  68.3786415  78.0157283   8.7309225  68.7818550  77.9225638   7.8677995
  68.1839918  78.9500144   8.8047559  65.4248810  71.9366455  76.5945816
  65.7493353  72.4269199  77.3499537  65.3900337  72.5811434  75.8877277
  94.3148683  73.2570889   1.6188200  93.8321661  72.8724101   0.8872087
  94.4711994  74.1631439   1.3526399  87.7483772  97.1397427  48.2951219
  88.2779382  96.4824942  48.7465818  87.2246288  97.5423696  48.9878042
   7.5962004  18.5558454  10.7060964   7.4342283  18.5380117   9.7628648
   6.7363819  18.4072153  11.0996111  55.9341002  29.0240550  60.3062487
  56.2633944  29.8613763  59.9796104  55.0292349  28.9852762  59.9965000
 107.7525352  86.6989472   7.4946935 107.1546148  86.2374022   8.0826624
 108.4229540  87.0633557   8.0726106  49.3068312  99.0924337  40.7949312
  48.4505116  99.5197561  40.8135183  49.8596548  99.6394709  41.3529356
  75.2513932  92.7838400   7.2392614  74.8978804  92.5693062   8.1025274
  76.1283993  92.4003151   7.2375162 104.3778347  96.3381651   7.0656831
 103.7008976  96.7307737   7.6169069 104.7559475  95.6455257   7.6074560
  91.3774109  38.1372428  56.9927454  91.3623810  38.8498306  56.3538218
  91.4208698  38.5775089  57.8415728 100.5504322  53.1045675  55.6216908
 100.9740067  53.8224268  56.0923195 100.0047970  53.5375690  54.9651623
  83.6962246  91.6840771   3.9484842  84.2895721  91.2149146   4.5350416
  82.8228925  91.5020302   4.2954500  16.1417517  14.6276466  41.9342096
  15.8940348  15.5513851  41.9738729  16.6907820  14.4935218  42.7067526
  30.5890783   5.2413837   3.9494569  30.4295429   6.0131685   4.4927175
  30.7762035   4.5421449   4.5757826  89.6966908   0.8495799  26.0999353
  88.9513645   0.9427778  25.5066164  89.9482069   1.7485610  26.3116033
  27.6464009  43.6866665  86.0924530  28.1796455  42.8953362  86.1677742
  26.7696142  43.3655167  85.8818913  61.6125965  35.4761267  58.7115145
  61.7224121  36.3766646  58.4062195  62.0987558  34.9476838  58.0785608
  57.2031593  59.2632294  84.5694923  57.1843195  60.0221729  85.1524830
  56.7649317  58.5705376  85.0638294  51.6546774  38.7823939  80.9628105
  52.1592569  39.4584417  81.4151287  51.5155649  38.1045818  81.6242123
  83.5004066  97.1684959   3.1658037  83.7827038  97.1795395   2.2512396
  82.6095842  96.8194225   3.1372984  11.4862881  97.1291283   1.5035875
  11.1440334  96.2547472   1.3176973  10.7065353  97.6748779   1.6054590
  31.7742475  22.3187724  11.8356378  32.5565037  22.2650234  12.3846491
  31.1979660  21.6324703  12.1719701  86.0468769  19.2195249  57.6433992
  86.1083603  18.5279214  58.3022881  86.9411182  19.3194807  57.3169327
  36.2736011  36.2073827  77.5678730  37.0087767  36.6142726  78.0263376
  35.7994509  35.7319713  78.2500696  25.5773863  22.8055278  10.1656873
  25.1180443  23.1028501  10.9510763  25.8523687  23.6118928   9.7293432
  70.3964615  44.7121000  72.6372051  70.2964354  44.4238091  71.7299461
  70.3881550  45.6679487  72.5870848 108.4451364  82.5524738  28.4487684
 107.6793741  83.0666736  28.7045725 108.9782737  83.1572702  27.9328020
  94.0107822  46.4829397  79.7298193  94.1168404  46.5114689  78.7789440
  94.0228176  47.4011946  79.9998140  94.0812969  87.8396702  84.9463081
  93.1549168  87.6555443  85.1016998  94.5463562  87.2063065  85.4929256
  29.4865784  32.4761669  11.8920763  29.5772632  31.5244380  11.9391496
  30.3812727  32.7966586  11.7778547  24.3220409   3.3972303   7.0320184
  24.4435247   2.7651159   6.3235624  25.0633034   3.9969341   6.9476469
  32.1832523  77.1069196   5.6246336  31.4868794  77.3951462   6.2147386
  32.0686112  77.6421907   4.8394067  57.3704418  52.8796474   1.9810255
  56.5097603  52.7576724   2.3817499  57.9899677  52.7416030   2.6975114
  83.8810539  62.9981041  29.2181802  84.5986652  63.0886936  28.5912395
  83.6535740  62.0687819  29.1891956  44.9697193   4.6452609  16.3841684
  45.5881389   5.1258651  16.9344480  45.5212101   4.1713802  15.7616480
  75.8920525  98.4946325   6.8370206  76.6486334  98.6705902   7.3963602
  75.8054065  97.5413874   6.8442209  50.0353226   2.6651994  21.2384374
  50.2161106   3.5752527  21.4737089  50.8928379   2.2987501  21.0225160
  74.5289946  80.7431126  85.5893993  74.4724464  81.1870289  84.7432423
  73.7258434  80.2250481  85.6422329  17.4554955  15.4599977  72.3524189
  17.0251595  14.7923684  71.8182755  18.3636605  15.4599845  72.0499754
  20.7073149   9.1537467  12.2784860  20.8989891  10.0687543  12.4840601
  20.0293764   9.1967145  11.6041143  75.8106184  43.7382984  76.0890770
  76.3741875  43.4096956  76.7895317  75.3523350  42.9623318  75.7664633
 104.2828821 100.0385359   2.2457082 103.4900402  99.5319202   2.4217088
 104.9961494  99.4856861   2.5648267  67.3622370  90.8092976  84.1183949
  68.1520796  91.3488770  84.0831280  66.7399883  91.2578583  83.5458279
  41.0208973  43.3054534  16.8820150  40.9601768  42.4398605  16.4779241
  41.6975149  43.7579624  16.3783701  93.2931398  98.8944128  15.2627237
  93.0425953  97.9820946  15.1173456  92.9018949  99.1186073  16.1070593
  25.6855377  31.3397876  11.4611585  24.7561058  31.5199367  11.6023595
  25.9916481  30.9904472  12.2981031  98.1122303  32.0632958  77.2302151
  98.4817982  32.9460883  77.2119761  97.5706291  32.0466280  78.0192804
  14.1938623   7.4293748  14.6165521  14.3935045   7.6537553  13.7076910
  13.2685026   7.1848050  14.6051557 108.6988831  78.2396984  45.7845116
 109.4736385  78.7770844  45.6195402 109.0412235  77.4454212  46.1945820
 102.1478653  29.8720765  86.3897133 102.2904396  28.9715838  86.0981369
 101.2187099  30.0328231  86.2252235  87.1079350  84.7065639  75.7888269
  86.5574265  84.5926762  76.5635490  87.9326916  85.0525856  76.1298323
  14.3778404   2.1285621   1.6852625  14.6355566   1.4805929   2.3409612
  14.6764311   1.7598668   0.8539159 108.2671150  27.6877681  18.7885625
 108.8086971  27.9942266  18.0612333 108.8818535  27.5732795  19.5132787
  76.8684196  36.6211891  77.6194239  77.0790100  37.5548983  77.6110458
  77.0300102  36.3311553  76.7216444  86.0176659   7.4008238  78.2204056
  86.2803173   6.5400910  77.8942347  85.4672432   7.7624428  77.5257826
  76.1289787  85.2780914  80.7065773  75.5262423  84.7393131  81.2190819
  76.9011927  85.3705215  81.2645817  22.3830875  30.0369064  31.3565214
  22.7569135  29.2370120  30.9868486  21.5438160  29.7610179  31.7249544
  34.3518576   6.4342252   4.1523702  34.9634870   6.2844983   3.4314497
  34.6376165   5.8306972   4.8381670  46.4556742  54.8025227  83.3190823
  46.3810205  55.3254557  84.1173267  47.3889923  54.8205376  83.1073666
  74.4654449  18.5758058  22.6213129  75.4166397  18.4853307  22.5640352
  74.3061813  18.8669292  23.5191591  59.5518478  35.4161445  47.5653227
  59.4012245  34.4796554  47.6939447  59.8832973  35.7235233  48.4090669
  19.1764031  80.6418779   8.3892782  19.2500458  80.6134465   9.3432100
  20.0641880  80.4701999   8.0752905  99.4348549 102.9750708  15.2942140
  98.8437866 102.4839428  14.7235353 100.2183365 103.1164434  14.7627981
  92.9768347  74.4133237   3.9213045  93.3570551  73.5351732   3.9440687
  93.3538412  74.8173716   3.1397398  77.8130341  62.8031683  75.4419518
  77.5103569  63.7098598  75.3916216  78.6799335  62.8619957  75.8435154
   9.3630943  16.9323839  88.2340908   9.5897446  17.1717084  87.3354244
   9.8612366  17.5430025  88.7774467  30.8809503  52.8578273   7.0411070
  30.9615787  52.6817123   7.9785020  30.5252203  52.0481006   6.6750009
  12.7020798  90.5251124   2.0458944  13.1000958  91.3470343   1.7590864
  12.2784672  90.7411960   2.8766210  90.5782961  96.4906433  13.1116350
  90.4140590  95.5594614  13.2604845  89.8661445  96.9358566  13.5708292
  47.8780922  24.0226642  19.0750845  47.3743328  23.9030734  18.2700117
  48.7787899  24.1503564  18.7772901  42.5420126   7.9555408  46.2967737
  42.3596987   8.1784812  45.3839262  41.6858133   7.9770891  46.7241819
  81.1018658  49.4891739  76.7589760  80.3020477  49.9937916  76.6110992
  81.0287094  49.1838694  77.6632261  61.5617451  36.6195003   4.0402563
  60.8597168  36.0443393   4.3445165  61.7522606  37.1824924   4.7905786
  60.4393944   7.1005956  34.1228922  60.6992897   7.5580398  33.3232553
  59.6026119   6.6909496  33.9032800  65.4664596   3.8688270  14.6963556
  65.4284748   3.1280748  14.0913160  66.1366924   4.4446126  14.3282564
 105.6309509  47.3900414  74.3400717 104.6979427  47.2478914  74.1802883
 105.6640720  47.8314781  75.1887608  51.9464573   8.2312528  35.6152685
  52.0806393   7.3071138  35.8255060  51.8451580   8.2481233  34.6635969
  81.0415077  40.0191450  58.0091047  80.9006214  39.1314721  58.3383751
  80.1601315  40.3663969  57.8718805  48.4565306  98.8162804  83.2818508
  49.0448618  99.5398426  83.0660629  47.6027632  99.0948486  82.9506302
  54.9574074   6.5058366  30.1201112  55.3262791   6.2720529  29.2683466
  54.6449074   7.4035589  30.0075491  69.1367706  18.2791082  25.0112398
  69.3814167  17.3877231  25.2598627  69.6768650  18.8398544  25.5680902
  96.2958717  37.8136206  44.6697950  97.0942497  38.1016278  44.2272091
  96.5855122  37.1133685  45.2545929  79.8233557  83.8173580  67.0077991
  79.1614342  83.4002876  66.4563084  79.3249893  84.2109776  67.7239895
  59.0750393   9.6691982   2.6209982  59.8178371   9.8205940   3.2054384
  59.0755161   8.7234966   2.4731023  51.1088905 100.1567343   8.7107427
  50.5066547  99.4218805   8.8270910  51.7441998 100.0603846   9.4202097
  53.5088905   9.9718181   9.8484190  53.0187496  10.7855216   9.9662359
  53.0990394   9.5527688   9.0916784  52.6696667   8.5196201   7.5760133
  51.9004902   8.0177394   7.3063810  52.8690037   9.0756074   6.8227728
  10.1475391  96.7601850   7.2614343  10.6240902  96.8642118   6.4378412
  10.6396160  97.2871092   7.8910787  63.3096457  42.1478128  80.6532860
  63.3513927  42.1137190  79.6976042  63.7709904  42.9539776  80.8845711
  98.7290001  61.7993164  70.3524446  99.6833897  61.7341757  70.3859186
  98.4575844  61.0616016  69.8062372  62.2209692  82.9912281  56.4225817
  61.9561672  82.0910645  56.6118622  61.4799309  83.3633709  55.9444523
  84.8505688  39.9464583  81.2925720  85.0517845  39.0305662  81.1005116
  84.6661663  39.9593139  82.2317600  34.2451652   1.3096038  19.9795110
  34.3801912   1.2989656  19.0319402  33.3575615   1.6500751  20.0911482
  10.4665432  96.3069752  30.9713228  10.6369934  96.4624336  30.0423391
  10.8194504  95.4326799  31.1365564  67.6442894  26.2773649  38.1417806
  68.3921512  26.6294996  37.6591261  66.9064792  26.3663808  37.5385053
  34.3939956  30.0270072   4.7083814  34.7875198  30.7352535   5.2180536
  34.8898586  30.0169364   3.8896902  99.1827583  39.4707370  77.7865219
  99.7972679  38.8892794  78.2343006  98.9453697  40.1222754  78.4463501
  77.7319145  12.1792269  42.2347975  77.5468254  11.9109845  43.1348085
  78.5700130  11.7651355  42.0290041  51.0948563  87.2613621  66.8146849
  51.9921637  86.9486713  66.6993952  51.1170673  88.1695080  66.5129995
  86.6878510  56.0960579  72.6063013  87.3048210  55.3951454  72.3958158
  85.9771538  55.6571817  73.0737782  65.2449417  77.5577497  75.2752686
  64.6483994  78.2654667  75.5192041  65.9250450  77.5749874  75.9486103
  39.6115049  34.5553199  27.7411897  39.9151119  33.7234489  28.1045683
  38.8687643  34.3174259  27.1862371  90.6693077  54.2276287  88.5664272
  91.3775730  53.7941837  88.0902767  89.8694038  53.9080620  88.1489849
  53.8619312  31.4435569   2.2302778  53.2639679  31.4905349   2.9762323
  53.3110889  31.1643115   1.4989622  10.3832661  87.4009895  59.1598797
   9.4374310  87.4123955  59.3064642  10.7493626  87.0780277  59.9832296
  83.9831352  60.4469681  87.6466084  83.3288288  59.8503113  87.2831440
  84.1571045  61.0701466  86.9411945  89.3863964  37.3507833  82.0431805
  88.9710140  38.1020474  81.6197586  90.2671719  37.3220062  81.6695213
  21.3240967   1.0987676  78.5192919  21.0253487   0.8609785  79.3970394
  20.8184776   0.5354608  77.9334068  57.5604900  45.7548324   8.5374792
  58.1585773  46.3369171   9.0062006  57.7803882  44.8791210   8.8552911
  39.4559250  94.2023924   7.0549638  39.2080841  94.3135670   6.1371191
  39.7963104  93.3091381   7.1046407  83.7676907  60.5919790  72.0362234
  83.7078857  59.7274399  72.4427032  83.0371475  61.0839415  72.4110603
  90.9172653  92.8684261  23.8798769  90.6231474  92.0238617  23.5386522
  90.1625274  93.4469107  23.7704904  49.6814903  25.6055490   3.9865930
  48.7942489  25.3442327   4.2330606  49.6300968  26.5552083   3.8782747
  37.0695385  29.1051284  17.4343832  37.1334442  29.6261875  16.6339739
  37.6446470  28.3559076  17.2789915  80.4078007  71.6513777  83.8165188
  79.8116064  71.0874891  84.3092728  80.7638645  72.2529125  84.4704342
  36.8013796   8.8051454  30.3153093  36.1657175   8.3427612  29.7690733
  36.4132913   9.6688358  30.4555376  14.2974743  33.0348388  15.2104051
  14.5388731  33.2630817  14.3127020  14.1786226  32.0852176  15.1923902
  12.8025017  89.2325952  24.8111780  12.3764858  90.0756267  24.9662264
  12.4499188  88.9368370  23.9718683  24.1837391  37.1907321  12.8425176
  24.7812828  37.0375911  13.5744436  24.0313658  36.3214866  12.4718149
  70.4042196  52.1318007  80.3639412  70.8544493  52.4746847  81.1359215
  71.1044312  51.7769194  79.8162174  98.2721208  93.5350635   9.6831377
  97.7430557  94.2699745   9.3729265  99.1397928  93.6901930   9.3098886
  66.6472435  30.8869195  85.5946159  65.7722139  30.6853652  85.2630520
  67.2015905  30.1877141  85.2481365   8.6691246  86.0629037  33.5438402
   9.3449364  86.4654901  34.0892084   9.1409454  85.4221681  33.0117853
  54.9469837  10.3098766  39.2731435  54.7977527   9.8249093  38.4614999
  55.6581673   9.8381940  39.7066839  15.7992395  51.6207878  14.3719156
  16.0840448  50.8828632  13.8328512  16.4219078  52.3192111  14.1701181
  87.9866695  62.4571609  84.7431374  87.8885365  63.3032990  84.3064976
  88.9035416  62.2204256  84.6033669  12.7273926  49.1281310  15.5129583
  12.9873689  49.2407695  16.4272649  13.5518917  49.0022746  15.0432832
  29.2203077  12.3898403  14.6057565  28.5248646  11.7424337  14.7217519
  29.0013059  12.8322879  13.7856920 100.6984018  98.8741043  10.1375826
 101.2851976  99.5735100  10.4252203  99.9792312  99.3296554   9.6999700
  94.7128487  55.7610989  87.4268818  95.4886246  56.1892939  87.7888775
  94.5906067  54.9849558  87.9735947  26.4249477  87.4906996  11.9273527
  25.9117565  87.9452589  12.5953729  27.2835980  87.9127028  11.9566400
  42.2678503   1.2893001  44.9505098  41.9363531   0.8796922  44.1514070
  42.2745880   0.5830804  45.5966146  51.2582096  16.8381587  56.4351232
  51.2936577  17.7348987  56.7680318  51.8039688  16.8528072  55.6488950
   9.2482218   1.2882034  11.1914117   8.6230882   1.5260068  11.8761690
   8.7042030   1.0852090  10.4304464  27.9088650 101.9975927   0.8634527
  26.9811974 102.2108200   0.9643896  28.0791340 102.1060636  -0.0722163
  91.1623405  95.7576206   1.9078214  90.7388614  96.1677626   2.6619299
  90.5143141  95.1347759   1.5786417  75.6315041  60.6927967  72.9188061
  76.4636374  60.6863070  72.4457884  75.1979542  61.4957476  72.6297760
  67.8962088  93.3256531  66.7016411  67.1006632  93.3611012  67.2327566
  68.5529709  92.9373074  67.2796440  34.4650682  12.7940217  23.7914999
  35.3549465  13.1143752  23.9388998  34.0428480  12.8570310  24.6482332
  35.7518085   9.7055189  26.3173444  36.3979324   9.0013448  26.3711507
  36.2476524  10.5009023  26.5116174  58.5842499  16.5089170  15.3573377
  59.5136150  16.2833587  15.3978021  58.5163006  17.3321287  15.8410127
 102.6676369  88.3320808  77.3923635 103.4155083  88.3628082  77.9889965
 102.1677780  87.5659275  77.6741314  38.6205658  23.8886062  49.4221456
  38.1915649  24.4011680  48.7369688  38.5539993  22.9825727  49.1206415
  23.3730730  13.8978378   1.4916856  23.8948854  13.4478418   0.8272703
  22.7556022  14.4308320   0.9908159  59.2975187  75.7779503  82.6691246
  58.7442398  75.1032972  82.2754669  58.6832952  76.3617992  83.1141853
  31.1692391  99.4530132  14.9384554  30.6249771  99.1068628  14.2312105
  31.7184601 100.1137665  14.5165689  74.1615152  62.1454668  80.4150009
  73.2284069  62.2682142  80.5895329  74.6015406  62.6520491  81.0976315
  55.6509670   8.6441366  10.7619054  55.7078060   8.4811393  11.7034109
  54.7443947   8.9167348  10.6203230  51.1563572   8.1180612  20.9719617
  50.4373154   8.2288495  21.5940149  51.9336113   8.0127469  21.5206010
 100.4812145  66.9317961  39.9456429 101.3407326  67.3375511  39.8324132
 100.5323124  66.4959145  40.7963085  18.5031853  61.1568680   7.2003229
  17.7905521  61.4897027   7.7458437  18.0769215  60.8905843   6.3856847
  53.4524870  68.5771132  54.1552639  54.0323114  68.4228945  53.4094381
  53.9010715  69.2455196  54.6731806  64.0977478  68.9967299  88.1771946
  64.3828487  69.8816633  88.4048843  64.4151115  68.4504080  88.8962555
  68.0337477  97.1959591  68.3484030  67.3882151  96.5054893  68.1974840
  68.0984735  97.2592068  69.3013144  55.1303657  11.5744726  34.2344434
  55.1315197  11.7990295  35.1649244  54.4860443  12.1662704  33.8460310
  98.8948822  62.0522404  66.3174629  97.9563808  62.2397566  66.3002777
  99.1191292  62.0372343  67.2479057  51.8761539  71.6988707  78.1817484
  51.0935020  71.7935896  78.7246180  52.5999260  71.9360781  78.7615061
  90.0880909  32.5421786  78.9846373  90.7399082  32.8206110  78.3413219
  89.9955368  31.6005540  78.8396883  91.9150804  89.9444416   7.9471548
  92.6842760  89.7298601   7.4194105  91.8353580  89.2151001   8.5619218
  74.9549087  31.0688678  14.1179617  75.0030407  30.3360740  14.7319181
  74.2518886  30.8295528  13.5140379  43.3769068   5.3067914   1.2210615
  43.1721720   5.5329601   2.1283491  44.2838272   5.0019161   1.2490232
  74.6455479  41.3913536  80.4348564  74.1535854  41.4778423  79.6183300
  73.9876318  41.4924097  81.1227322   0.2568683   8.1751672  42.0849474
   1.0159525   8.7546102  42.0196111   0.5711469   7.3312274  41.7605646
   9.4417034  38.9164281  88.5107613   8.6060940  39.1673112  88.9045238
   9.8983513  38.4377623  89.2025566   1.0712776  73.9863708  20.6271799
   0.9339438  74.4720223  19.8138483   0.3575239  73.3489445  20.6489618
  30.1824055  93.4945419   6.8230112  30.8671055  94.1612556   6.8770654
  30.4730568  92.8038958   7.4186285  42.3079475  24.8128215  42.8857477
  41.6475567  24.3010370  43.3528574  42.3402866  25.6468097  43.3544119
  64.9022532  53.7675953  85.5629253  65.8101749  53.4652901  85.5857849
  64.4173384  53.1070471  86.0576630  18.1754742 102.6788309  20.4919489
  18.6693630 101.9452360  20.1256902  18.8189278 103.3824423  20.5763109
  92.0251154  78.3074739  11.2803228  91.7790912  79.2265561  11.3851602
  92.6365923  78.1399086  11.9974382  84.7289371  44.8372412  86.7329788
  83.9599609  44.9699736  87.2873116  84.4531631  44.1798162  86.0942554
  18.9459499  18.2515804   3.1352098  19.6037897  18.9468280   3.1457479
  19.0287718  17.8304902   3.9908178  14.9580559  32.1886817  30.4052789
  14.2302450  32.7374069  30.1130159  15.3479942  32.6749793  31.1317022
  54.2397388  58.6657707   0.9678133  53.7335094  59.3881027   1.3395651
  53.5798725  58.0497257   0.6495435  52.1015533  30.1056281   7.8524835
  52.7610191  30.6183425   7.3850877  52.1201118  30.4489700   8.7457903
  27.5213846   8.5262195  13.4294756  26.8742164   8.5815612  12.7263887
  27.1837171   9.1061775  14.1120203  97.7057766 100.1114347  24.8300035
  98.5782121 100.1217201  24.4363268  97.8445648 100.4129532  25.7278116
  52.9517460  62.0077562  85.4877186  53.0061245  61.0716677  85.2953243
  53.3701468  62.1010780  86.3435555  99.6880411  97.2374943  28.5445268
  99.5109628  98.1757858  28.6115034 100.6194996  97.1842125  28.3305700
  52.9204830  18.1359474  43.5580022  53.3826622  18.8175146  43.0700452
  53.3262905  17.3182432  43.2700498  41.4311537   3.8831703  17.7083547
  41.6467079   4.5645515  17.0715768  41.3005384   4.3561117  18.5302408
  26.3400015  31.2823860   3.5785921  27.1126350  30.7475559   3.3963258
  26.3467058  31.9533626   2.8959615  62.5614786  75.8603859  72.0948648
  63.3920240  75.6769514  71.6557980  62.5047064  75.2000666  72.7855015
 102.8373623  47.3658657  74.2187119 102.3594666  47.8290224  73.5307217
 102.4019623  46.5157843  74.2821074  50.3705295  27.0085803   7.9191167
  49.6489319  27.0922700   7.2957952  49.9430641  26.9443027   8.7731512
  51.8190941   4.7146264  21.8421228  52.7567085   4.8696653  21.9564874
  51.6341385   5.0116578  20.9511716   4.7352918   0.3232519  15.3645761
   5.4279217   0.9344093  15.1135976   4.7502693  -0.3487166  14.6830614
  26.4742979  24.7623388  23.8830621  27.0642408  24.0919391  24.2276819
  26.9032797  25.0717012  23.0852564  12.8936037  13.0918447  10.7171686
  13.2545790  13.9450303  10.9580095  12.0557388  13.0475751  11.1778791
  41.1482796  36.8268768  -0.0962584  41.6558918  37.6100913  -0.3087180
  40.8750614  36.9575492   0.8117731  83.0729008  54.6825552  76.5465641
  82.3330021  54.0802908  76.4687681  83.6881638  54.2325544  77.1255112
  73.3262730  49.5911121  86.8647099  73.3184290  48.8551998  86.2526608
  72.8208399  49.2825699  87.6167583  82.9438210  47.3206854  79.9580097
  83.6866283  47.7591038  80.3730583  82.4564266  46.9345903  80.6857586
  15.0707756  73.5207748  78.9554071  14.2694603  73.9001942  79.3161869
  15.2714669  72.7874374  79.5369291  66.8970633  70.5801868  56.2951040
  67.3316145  71.3885736  56.5669680  65.9647083  70.7968235  56.2979364
   4.3874966  52.3948812  71.6714001   4.4869744  52.5000763  70.7252121
   3.7797867  51.6617107  71.7682934  47.1778282  30.8838931   5.0604017
  48.0344566  30.8717052   4.6334608  46.6541942  31.4841453   4.5296152
  85.5204487  35.0616407  66.8098450  86.2679291  35.5054283  67.2105360
  84.7599697  35.3976750  67.2841692  74.2370510  78.7556028  82.1391582
  74.1721678  79.0837193  81.2422943  75.0935745  79.0562582  82.4428177
  52.2613415  12.6184932   9.5967443  52.0064052  12.6346342   8.6742551
  53.1600841  12.9478446   9.6026476 100.5450439  52.8359222  82.0100975
 101.4457893  52.5469446  82.1563625 100.1476288  52.1314526  81.4982224
  97.5247192  40.3874445  81.9639874  97.9809189  40.3821659  81.1225033
  97.1405220  39.5135045  82.0336246  93.8796520  31.0450411  79.6697426
  93.6013031  30.8171487  78.7827158  93.8872910  30.2113509  80.1399899
   3.3192309  16.8824378  16.2949522   3.7389788  17.7150957  16.0787828
   3.1841930  16.4555351  15.4489381  72.5386906  62.0529461  86.1950779
  72.8261518  61.1622572  85.9943867  71.6063690  62.0582819  85.9783363
 103.1591797  43.8313150  84.0162373 102.4315453  43.9369726  84.6291065
 103.7596703  43.2312918  84.4585323  15.2906761  75.2436235   4.0069826
  15.2664528  75.7233408   3.1790216  15.3006611  75.9255102   4.6786745
  32.6674056  63.1066751  50.0503492  32.2155476  63.3303356  49.2366934
  32.1186233  62.4328613  50.4516554  67.4381638  58.2689810  81.3659573
  66.5946150  58.7049294  81.4868069  67.2220755  57.3376036  81.3204002
  75.6516123  63.4553671  82.0965290  76.3919115  64.0580559  82.1669102
  75.4709101  63.1915760  82.9987526   0.0740967  90.4355266  42.9892500
  -0.1795378  90.7195809  43.8674314   0.6073389  91.1542752  42.6497038
  94.3327904  96.7285728  87.5112724  93.8800240  97.0642662  86.7376137
  95.0543022  96.2073326  87.1591949  53.5576042  12.2944490   0.2109869
  53.3548244  11.3731328   0.0488241  53.6594089  12.3536865   1.1609132
  97.4801706  98.9136484  11.3579805  96.7901300  99.4676235  10.9930284
  98.2324623  99.4981506  11.4509924  61.4185810  92.8673267  76.1936188
  61.4862347  93.7217331  75.7674074  61.6934013  93.0275917  77.0964050
  58.9224037  14.8443929  20.5017526  58.8011535  15.7865135  20.6198270
  58.4424194  14.6398488  19.6992548  68.1179190  78.0417299  86.0523510
  68.1013250  78.8242817  86.6033173  68.2568693  77.3199844  86.6655445
  54.4207764  79.5194769  75.3706646  54.5532227  78.9657259  76.1401129
  53.8044405  79.0296078  74.8262501  99.9660778  32.2849751  79.6138811
  99.7634506  31.7930579  80.4096127  99.6299362  31.7393446  78.9028740
  99.5954345 101.3636473  11.2567670  99.6497225 101.9134977  10.4751356
  98.7393068 101.5668610  11.6335733  60.9764751   6.4673320   6.9376905
  60.5198845   7.2883026   7.1214349  61.5825924   6.6837541   6.2291582
  53.2916149  48.8979999   5.7519491  53.3553871  48.0651752   5.2844389
  54.1558060  49.2967311   5.6499155  53.3499479  64.4223642  79.3299770
  53.0217695  65.2940750  79.1093969  54.2724323  64.5609617  79.5445585
   0.4230915  68.2905006  77.8798485   0.1700913  68.4003639  78.7964439
   0.0313698  69.0401649  77.4317503  74.2176104  80.1117134  79.7077036
  74.9219942  80.7142925  79.4690084  73.8324451  79.8501873  78.8713503
  73.7413406  96.3475323  88.5221386  74.1114616  96.9159222  87.8467274
  74.4148207  95.6841373  88.6723709  69.0729507  14.4266073  27.9025896
  68.7056717  15.0379745  28.5409982  68.3374103  13.8649217  27.6582105
  48.7240204  20.3042976  13.9479501  48.0899891  19.6318475  14.1970499
  48.7564644  20.8937541  14.7014291  37.6457819  59.0239898  17.2732027
  37.8925213  59.9461357  17.2024973  38.4791502  58.5570423  17.3338945
  93.1754589  61.0186911  68.4578085  92.9877186  60.2560186  67.9107141
  92.8300953  60.7860470  69.3196917  46.3638576  65.5833713  18.0298669
  45.5816540  66.0582343  18.3107622  46.0288605  64.8704807  17.4859960
  42.6368984  19.2880908  12.5589616  42.1406826  19.8345605  13.1683691
  41.9731554  18.7582961  12.1173818   2.1724234  86.8971661   1.9576128
   2.4402247  86.9663170   1.0412462   2.0998488  85.9558800   2.1155508
  35.7652363  55.5647460   3.4322603  36.3790497  55.0457565   2.9125364
  35.8426985  56.4512435   3.0796297  32.3512968  45.8517925  15.4840810
  33.0679067  45.2308074  15.3534086  32.6779398  46.4580242  16.1489351
  57.0271858  17.5642721  17.9759081  56.4008983  17.1471826  17.3842771
  56.5051349  18.1956712  18.4709222  61.6710663 101.3550758  85.7107258
  60.8757973 100.8283901  85.6308174  61.4661932 102.1694088  85.2512550
  93.1314739  11.0078756  19.9486025  92.8436931  10.1442853  19.6525915
  93.5533413  11.3955919  19.1818292  48.5568603  19.0214149   4.4588335
  49.0342411  19.1092292   3.6338289  48.1509479  18.1559316   4.4097192
  29.2363056  27.1085159  30.0348146  28.5818275  27.5324861  30.5899198
  29.7287878  26.5457336  30.6322820  78.9794334  14.5097820  14.6312387
  79.5258221  14.6763460  15.3993280  78.1251510  14.8752204  14.8612077
  68.8553524  73.2649040  78.7675428  69.5789194  73.8732147  78.9180279
  69.2172670  72.6033974  78.1779146  70.3472662  78.2963848  73.4078026
  70.3584480  77.9762745  72.5057840  70.9954786  79.0005922  73.4200859
  24.7905407  92.4428203  24.3866308  23.9269219  92.2669247  24.0132005
  25.4040871  92.0446566  23.7691839  41.9764980  26.2702886  10.5865533
  42.0366129  25.3150121  10.5946882  42.4440988  26.5329543   9.7937162
  19.7949658   2.6400770  86.0639286  20.3180561   2.2129549  86.7422962
  18.9147625   2.6907838  86.4366245  47.2881969  10.5269138  13.9212568
  46.3686832  10.4952852  13.6571844  47.7618488  10.1361696  13.1869562
  37.3622475  13.9991010  80.7350349  37.8876648  14.6147836  80.2240467
  36.4697514  14.1190828  80.4105377 109.0981102  73.0417871  53.3526516
 108.8843918  72.1305847  53.1519842 108.6106205  73.2311773  54.1543484
  41.1490043  55.8434574   9.7638090  41.8810638  55.3306190  10.1063306
  40.7439216  56.2305824  10.5398710  90.8965683  53.3964205  84.5165825
  90.6403351  53.8387203  83.7072945  91.6929913  52.9180098  84.2862511
  50.0319433  61.4286613  85.9157085  50.3817415  61.1993837  86.7767048
  50.8007097  61.6810942  85.4043293  57.1547493  43.9411441  35.4370935
  56.8758568  43.7924568  34.5335825  57.2078308  43.0648891  35.8186586
  54.0982151  76.7544985  71.3920259  53.3208036  76.2266731  71.2096357
  54.6637630  76.1782312  71.9061327  26.7510446  82.1784393  18.8309057
  27.2313341  82.9426662  18.5122831  25.9028753  82.5263111  19.1062696
  89.4151592  67.4212027  83.4331512  88.9017677  67.9882812  84.0085411
  88.9971447  66.5632915  83.5072613  40.4697927   7.9209796  19.0232809
  40.3210625   7.5671951  18.1463869  40.3881296   7.1643344  19.6038492
  83.8847065  54.6016836  84.1456604  84.4858932  54.9912739  84.7805023
  84.3411636  53.8213253  83.8311577  28.1341156  45.2175514   1.2805326
  27.3683962  44.6541873   1.3924654  28.6825403  45.0304691   2.0424039
  73.8768721  68.7626934  47.7683306  73.4972429  69.5550394  47.3884630
  74.8204899  68.8667583  47.6458979  38.2561621  24.0861932  15.6769140
  37.6592668  23.8969032  16.4008672  38.2795557  23.2760230  15.1676901
  22.9328190  67.6421690  72.1560955  23.0853401  68.3215141  72.8129578
  22.1105419  67.8950834  71.7364264  31.1207184  10.5657283  22.5116022
  30.2107223  10.4719869  22.2299249  31.0806497  11.1679260  23.2545622
   7.0069799   8.6419786  63.7013054   7.7681980   8.9758218  63.2266188
   6.4424572   9.4063486  63.8165665   8.3511124   7.1981348  71.3894081
   8.9663467   6.7774785  70.7887697   7.6336727   7.4939741  70.8290482
  47.3078880  89.8924926  54.7620065  46.3610992  90.0281504  54.7996385
  47.6626358  90.4977754  55.4131754  67.2524914   8.6042539  31.5659197
  67.4574932   9.4617692  31.1932619  67.3036751   8.7360803  32.5126131
  63.2966408  23.6268035  15.5785806  63.2391437  23.9526693  14.6804006
  63.5493072  22.7083675  15.4844434 105.5448151  56.9765472  81.8375206
 106.3492298  56.4609003  81.7804718 105.3391457  56.9969082  82.7721500
  96.1149406  54.2886972  69.8372173  96.4531708  55.1594353  69.6283007
  96.6348648  54.0037537  70.5886984  39.4330725  24.0380803  27.2052343
  39.6204313  24.9075071  26.8513734  39.4917568  23.4540120  26.4491613
  42.5414451  64.4766227  15.5388124  42.8255209  65.1876918  14.9644239
  41.9164976  64.8868171  16.1366613  58.4511805  85.1750374  67.8864670
  57.6230097  84.8773098  67.5099993  58.7840557  85.8148766  67.2571564
  79.5613194  75.3180790  70.9863234  80.4730415  75.3914404  70.7041550
  79.5913982  74.7341537  71.7441893   6.4239082  14.1118253  71.7435598
   5.9209404  13.8082231  72.4992561   7.2437058  13.6197198  71.7881155
   6.1062368  40.8364669  11.7500456   7.0050081  41.1235420  11.9113977
   6.0491451  40.7514945  10.7983358 108.3880781   3.2379831  76.1252832
 108.2536291   2.2949613  76.2194872 108.3461641   3.5764230  77.0196724
  21.3604866  69.1718578  69.7333765  20.8032643  69.6542358  69.1225910
  22.2527062  69.4173574  69.4886446  33.5973677  40.4667941   5.5827863
  33.0242285  39.9622718   5.0055463  34.4425138  40.0203983   5.5309637
  44.1925320  21.8870727  20.1122053  44.3145546  22.0064966  21.0540540
  44.1677460  22.7764694  19.7592218  61.2734016  12.1030132  38.1568678
  61.2475857  12.1496622  39.1125829  62.0807918  11.6272107  37.9620130
   4.4868504  74.1565847  84.6045589   4.5336281  74.9120522  85.1904869
   4.3775593  74.5361280  83.7326431 103.6869621  47.3594093  47.1811008
 104.3025875  47.9521465  46.7499399 103.0337906  47.1625900  46.5096283
  38.3634434 101.7503097  10.9191759  38.8630734 102.5599459  11.0245092
  37.6247559 101.9954851  10.3619917  37.5691494  47.5628272  10.9973581
  37.1366056  48.0916110  11.6678198  37.5915512  46.6798583  11.3662489
  45.4645904  10.5963460   2.3679598  46.1082157  11.1616603   2.7950533
  44.6424564  11.0831491   2.4257620   4.0066754  55.3717899  48.6455250
   4.7173821  55.7055235  49.1930199   4.3312012  54.5335579  48.3164692
  70.3225946  94.7522354  71.1811638  70.7456779  95.0599957  71.9827366
  69.3891239  94.7398376  71.3926077  96.0213184  46.6388464  81.9876194
  95.6651020  46.8991089  82.8370857  95.2504539  46.4544678  81.4509583
  95.7986450  76.8994474  81.8493462  95.0113678  76.9801235  81.3109112
  96.3574696  77.6232958  81.5665054  62.7953482  47.4076986  86.5593433
  62.6340389  47.9138422  85.7630825  63.6929083  47.0893478  86.4630795
  52.6122173  47.9036704  28.9943845  52.4746021  47.1530239  28.4166200
  53.5598453  47.9340927  29.1259534  40.6350073  72.8464500   8.5434301
  39.9967941  73.2520858   7.9565961  40.9930643  72.1156207   8.0395372
  35.9924730  22.4697868   9.0216787  35.7379707  22.0180789   9.8263033
  36.8845686  22.7735225   9.1894395  93.3592701  77.2897863  74.5849228
  94.2359924  76.9756174  74.8060226  93.4708595  78.2294655  74.4407558
  92.3900318  72.2870922  64.2877960  91.8717384  71.9852734  63.5417986
  92.4539948  71.5224457  64.8600388   1.3551817  96.9347265  31.4497621
   1.8278608  96.7279556  32.2560175   0.5442629  96.4298990  31.5113599
  64.6250137  66.8208591  16.5761430  63.7696728  66.9492141  16.9861944
  64.7776493  65.8774845  16.6307123  66.3817644  58.1824160  77.9637527
  65.9526539  57.5259924  78.5125732  66.5491772  58.9164448  78.5548592
  36.1964449  29.7299854  13.1873472  36.2674030  30.3738204  12.4825914
  35.9554228  28.9161292  12.7448805  69.8465157  90.2340317  77.7261829
  70.1116705  91.1403275  77.8829002  69.6453285  90.2016544  76.7909241
  88.0278873  51.2215233  72.3254061  87.3122501  51.5152025  71.7616272
  87.7252388  50.3859282  72.6809549  63.0774975  91.8568134  51.4295769
  62.6882601  92.2225094  50.6352282  62.7680254  90.9513187  51.4529753
  87.2446346  63.1924009  79.3908501  87.1258926  62.7100754  80.2090740
  87.9419899  63.8197136  79.5816422  35.1770052  64.3265334   8.9024408
  34.4754633  64.7972671   9.3524225  35.2591213  64.7693149   8.0577810
 107.9521465  80.7867718  76.8830013 107.9826450  79.8566055  76.6591978
 108.5299587  81.2056732  76.2451220  46.0398659  27.0001594  15.1096399
  45.1579555  27.2303716  14.8172910  46.4474281  27.8390542  15.3249891
  50.5865654  26.0512391  59.2092092  50.1630672  26.0237066  60.0671823
  50.0986084  26.7154638  58.7224538  49.2490816  82.7248859  76.6936398
  48.6364174  82.1245766  77.1184921  50.1092434  82.3299408  76.8363810
  94.6615124  75.9017754  84.5750427  95.0082397  75.0905609  84.9464417
  95.3134441  76.1658049  83.9258194 104.8866367  30.2656341  69.2688751
 104.6218967  30.1169276  68.3611107 104.5218658  31.1232209  69.4873238
  66.4257622 100.8434391  56.3500214  67.2989607 101.1722565  56.1364126
  66.0855436 100.5102634  55.5196667  49.7130188  28.8033382  27.1062715
  50.1650795  28.0515663  27.4893053  49.1563495  29.1329852  27.8117330
  19.9678192  89.2879703  10.7349832  19.1650448  89.7067192  11.0455377
  19.9027023  89.3233993   9.7806509  25.1641496  36.5854350  22.5822599
  26.0367092  36.8205539  22.2666795  25.0418218  35.6802455  22.2960909
 105.4100037  63.7022877  82.1178150 105.5069923  64.6268463  82.3458672
 106.3056660  63.3947515  81.9783783  29.1132673  32.5889007  17.5052316
  28.5685762  31.8823425  17.1583612  28.4992298  33.3031932  17.6754434
  47.7859386  25.7316533  13.5878236  47.2040733  26.1510793  14.2216642
  47.4611267  24.8336402  13.5221918  47.1846470   4.0583602  29.5024927
  46.8063816   4.2689220  30.3561933  47.9059872   3.4612266  29.7008474
  62.6303467   8.5512344  27.5409563  63.3416542   9.1343061  27.8061063
  61.9709762   9.1338197  27.1640546 105.1236439  90.3328991  51.5772390
 105.4861450  90.2185535  52.4557304 104.3855000  89.7245312  51.5416622
  52.1308502   6.3573924  13.2559736  53.0038437   6.2388650  12.8817136
  52.2419628   6.1681787  14.1876753 100.4613304  74.0477085  81.2497997
 100.7106400  73.1585598  81.5017891 100.3588486  74.5122242  82.0804310
   3.4564530  78.5670805  45.8607721   3.1453644  79.3138123  46.3724804
   3.1601559  78.7479067  44.9687243  28.2065328  21.8533508   2.8027589
  27.7339443  21.4832727   2.0571573  27.7414688  22.6659910   3.0016668
  31.2283071  70.3548614   3.8858946  31.9401678  70.4648963   4.5162733
  31.1687692  71.2007133   3.4417970  56.7700275  16.8983356   2.1577413
  57.4397453  16.5645973   1.5608080  56.7140755  17.8325168   1.9567354
 102.7771282  40.2553272  87.9645920 102.3117352  40.6475163  87.2257900
 103.0206871  40.9987736  88.5161304  31.9196924  16.2480060   5.1929815
  31.7207416  16.2336341   6.1291654  32.6280292  16.8862430   5.1084287
  70.4801639  22.8187410  45.4133279  70.1896938  23.2472412  46.2184675
  70.0458130  21.9658557  45.4257925  84.7875023  86.9690609  71.8539667
  84.4500828  86.9212532  72.7484465  84.9085999  86.0556889  71.5945196
  73.2575178  81.6859913  39.7396898  72.3899937  82.0603752  39.5864940
  73.2672119  80.8829594  39.2188382   2.6371514  84.2528439  83.2140446
   1.9853817  83.5847378  83.4263229   3.3806549  84.0511703  83.7821674
  34.6846231  64.6905128  16.2041147  33.7875160  64.3577281  16.2303026
  35.0109705  64.5698539  17.0958383 101.0908413  49.2512417  57.8162718
 100.2135468  49.4653463  58.1336498 101.6674614  49.4493008  58.5541868
  95.4342747  79.3497801  71.2785864  95.4086971  80.2632618  70.9937620
  94.7701168  78.9137506  70.7447195  78.3853579  94.2435169  88.7208939
  78.3728075  94.3058109  87.7658081  79.2483330  93.8838291  88.9261341
  10.6042061   5.9910978  83.1672764   9.7423229   5.9623826  82.7518749
  10.4900513   5.5136884  83.9890289  77.9411745  60.2284098  86.3713646
  77.2875166  60.8745432  86.6387081  78.7240028  60.4584551  86.8718529
  66.5446171  24.6155301  26.2405450  67.4517521  24.9126426  26.3116224
  66.6087135  23.7388126  25.8617456   6.9966923  76.7326355  65.6532812
   7.5751149  77.4601555  65.8821249   6.9938980  76.1750078  66.4312744
  27.4139652  91.8132618  27.8709180  27.7824936  91.1618069  28.4676035
  26.7729912  91.3273266  27.3520239  84.8147392  62.0704126  77.1015453
  85.7066536  62.2089434  77.4201679  84.5163345  61.2843800  77.5590801
  15.4562696  17.9586355   9.8384721  14.5079120  18.0857602   9.8120935
  15.8010897  18.7933675  10.1555784  42.7348957  96.7452028   5.6756933
  43.2800541  97.2584846   6.2719972  42.8953037  95.8357313   5.9274252
  66.5543900   0.9257806  77.2924948  65.8929024   1.3796342  76.7703152
  67.3875580   1.2875761  76.9905519  91.7167972  15.0778116  69.7057867
  91.1629127  15.3885759  70.4219294  92.4302982  15.7143415  69.6612740
  24.5057640 102.0835665   9.9282129  24.5791779 103.0290821  10.0579889
  25.3765545 101.7449263  10.1362760   0.5281006  80.4498100  66.8187237
   1.3859211  80.0325680  66.7394638   0.1350342  80.0443459  67.5915956
  59.6132931  33.7798587  56.5887792  60.5139335  34.1008941  56.6336687
  59.5611271  33.3299819  55.7455022 107.4099039  18.7220205  72.0062876
 106.8033670  18.3854879  72.6659012 107.8676914  19.4388498  72.4453974
  33.7158998  12.1817819   2.5976713  33.6189731  12.7252952   3.3796079
  33.8428959  11.2955133   2.9362447  11.5264832  90.9395218  79.4856119
  10.7887780  91.1682224  80.0510502  12.2224175  90.6844521  80.0912857
  59.0108284  21.7871705   1.7035825  59.7676166  21.3733140   1.2885912
  58.2571777  21.3070480   1.3604601  63.9360794  15.4360715  24.2253358
  64.3015941  15.7655326  25.0463636  64.6219524  14.8728219  23.8667734
  19.7576889  30.6708995  16.9553621  20.0083622  30.4890434  17.8610761
  20.5463871  31.0401813  16.5580995 107.7259731  74.6354532  62.2424793
 106.9145870  75.0490570  62.5371456 107.7073765  74.7235870  61.2895298
  93.5912212  32.6446430  17.3585565  92.7756866  33.0701820  17.6232202
  93.7902149  32.0417396  18.0748994  21.1651453  62.3343078  12.7099664
  21.4559158  63.2382862  12.8303869  21.9452604  61.8702403  12.4061735
  93.8759899  82.2415257  75.6480074  94.7691059  82.3702145  75.9674215
  93.7447453  82.9459953  75.0134039   1.0530768   4.1864694  80.9935665
   0.3109942   4.5450796  81.4803314   1.7165575   4.8756326  81.0263443
  30.3141769  45.9855453   5.4029424  30.2320370  46.9130508   5.1810987
  30.3221735  45.5368511   4.5574529  29.7381672  13.3946506  22.7426584
  30.6595835  13.2030002  22.9172857  29.3134960  13.3284704  23.5979421
  48.2391723  65.0147525  14.5488222  48.7037071  64.3520252  15.0599249
  47.5134071  64.5397560  14.1439970  49.5901092  39.0768138   2.3416574
  48.6982807  38.7594215   2.1997793  49.7842964  38.8472549   3.2504137
 105.2624964  28.4894575  88.4697151 104.9262642  27.7100862  88.9121628
 105.9063457  28.8514722  89.0785217  14.3917214  62.2687483  76.9955540
  13.5079609  61.9468641  77.1732807  14.3845593  63.1733656  77.3083591
  24.9708401  87.9158878  83.2219028  25.3337895  87.7310658  82.3556805
  24.1045319  87.5089264  83.2104111 100.6249927  46.3483158  13.7850816
 101.5104460  46.7086795  13.8335474 100.3109907  46.3620683  14.6892126
  34.1823174  86.0550689  65.0258064  33.7131573  85.7284330  65.7935524
  34.3582560  86.9744479  65.2258539  54.1059290  57.5859329  19.6209867
  54.2185234  56.6917869  19.9435671  53.5704468  58.0155459  20.2880151
  19.4491173  64.6646749  66.1522245  19.6320702  65.5944859  66.0172749
  19.9658848  64.2190062  65.4809856  54.6144819   7.2689050  81.3626766
  55.0294399   7.6888788  82.1161079  54.4010973   7.9919702  80.7728577
 105.7945242  96.2425297  86.6560173 106.5762033  96.7199396  86.9340229
 106.0277739  95.8774399  85.8024788  17.1634461 101.8441239  66.7475176
  16.8350388 101.5700791  65.8911991  17.9776646 102.3088112  66.5542746
  37.4068953 102.2794375  66.5142393  36.4795233 102.5116274  66.4662790
  37.4435688 101.5713406  67.1572685   1.9048239  85.0867187  67.9884100
   2.4015571  85.0166666  67.1731949   2.3140742  85.8145045  68.4564638
   2.5262333  69.8503481  57.9124165   2.7725245  70.3338086  58.7009859
   3.3378268  69.7831522  57.4094009  65.5002879  51.1695007  23.7546976
  65.7669567  50.2510831  23.7143381  66.1654280  51.6345565  23.2472189
  96.4696525  28.0669668  25.6118925  96.1351274  28.0840280  26.5085752
  97.3088478  27.6113203  25.6779630  51.8661976   9.6314359  51.6202927
  50.9584236   9.3520278  51.7390919  52.3831558   8.9645672  52.0722580
  58.6592150  29.1333151  63.3973742  58.1041956  29.0411782  64.1717768
  58.8178635  30.0746512  63.3270264   4.1844473  91.0321477  18.2133443
   3.7951145  90.6124738  18.9804895   4.4720469  91.8887833  18.5290773
   7.9050995  97.1745675  67.1726990   7.8022267  96.2315886  67.0444775
   7.9428936  97.2843753  68.1228256 108.6315575  87.3334073  75.0856304
 108.3935800  88.2166862  74.8038197 108.2310834  86.7580127  74.4338846
  70.0279044  24.5410946   3.1813676  70.6282042  23.8152435   3.3517034
  69.1831206  24.2359140   3.5121877  37.3472285   0.5840025  77.2791147
  36.7636538   0.5432322  78.0367517  37.2544003   1.4792040  76.9531870
 102.5645279  48.6360770  22.7842958 103.4113144  48.9402458  22.4576910
 102.2544740  48.0264601  22.1146162  74.2824720  41.9246080  26.0573061
  74.4658183  42.8561148  25.9351881  74.5864724  41.5126326  25.2485426
  66.7785406   1.8993002  72.0638704  67.2349024   2.4734405  71.4487839
  67.2834301   1.0861698  72.0522022   8.8479449  73.5430514  43.1761932
   9.5395352  73.8237607  43.7754679   9.1904331  73.7425863  42.3049164
  58.3933972  27.1231845   4.2763574  58.5511659  26.2535980   3.9087160
  57.5590371  27.0402363   4.7380979  69.7084522  17.4291229  88.2213211
  69.4102621  18.1546044  88.7699413  70.0711250  17.8511548  87.4424744
  21.0567166  70.2207314  60.5902529  21.7022682  70.6789433  61.1283398
  20.7592894  70.8780848  59.9612427  20.6502463  74.9190723  58.7723780
  20.3091122  75.3903281  58.0122614  20.7629658  75.5939113  59.4417906
  42.0306921  14.4885993  68.3020353  42.8154707  15.0011659  68.4960175
  42.1304655  14.2359114  67.3842001  90.3797531   0.4398475  75.0662756
  90.3727531   1.1271338  74.4000769  89.4846725   0.1006385  75.0698662
 107.2481416  23.9385965   3.4520681 106.6034292  24.2668727   4.0788133
 107.2680353  22.9933932   3.6018140  77.2105217   8.6530900  71.4813232
  76.5764761   9.3696725  71.4543629  77.8411913   8.9163971  72.1515131
  40.8697319   7.9325694  40.4026794  41.3429546   7.4472564  39.7268367
  40.9156418   8.8454622  40.1185131   4.2583777  96.2380545  49.5481825
   4.3453861  95.8957296  50.4378319   4.2813326  95.4612654  48.9893436
  95.6756058  94.1452115  33.0965161  96.3611450  93.4783571  33.0568361
  96.0346236  94.8240822  33.6678934  41.8664576  99.2771243  81.6847801
  41.9719101  99.7952416  80.8868694  41.3227965  99.8218300  82.2539520
  50.5172230 101.1700862  83.8346863  50.2971436 101.6651844  83.0455875
  49.9506737 101.5369525  84.5134068  23.4823109  67.8327047  62.6265812
  22.7149988  68.0285560  63.1642675  23.3823563  66.9096433  62.3937750
   1.0510589  54.3890320  65.2782536   1.5589167  55.0695931  64.8364925
   0.4390336  54.0763937  64.6119881  70.6554936  56.5640017  23.1669767
  70.3241371  56.0987183  23.9350565  69.9513577  56.4940724  22.5223596
  97.0495500  95.0023251  64.6701050  97.5724378  94.5665776  63.9970922
  96.7815723  94.2970561  65.2591848  76.9025253  89.2771962   9.4273527
  77.3756479  90.0747373   9.1900499  76.3375448  89.1010454   8.6750276
  84.2865824  59.1481378   2.6790483  84.6318887  59.5886895   1.9025762
  83.5271381  59.6721121   2.9338701 105.5592130  69.0733388   5.1745947
 106.0943340  69.7958651   4.8462064 104.7052931  69.4684270   5.3505190
  87.7085088  62.1918466   0.5756338  88.2013916  63.0121210   0.5967291
  87.0095085  62.3158589   1.2177045   5.4866291  75.3105961  78.9826727
   5.2487208  74.3862664  78.9102459   6.4352299  75.3244435  78.8554192
  90.9668039  45.8784690   4.8928602  90.9688972  45.7915690   5.8461054
  90.6672834  46.7737248   4.7346265  18.2130028  83.4196662  48.4802341
  17.8259732  83.0863844  47.6706886  19.1296126  83.1472253  48.4373760
  76.0096310  68.8696924  27.4449785  75.0664877  68.7759843  27.5789030
  76.1502742  69.8145833  27.3847158 101.6133379  55.3734836  11.3394315
 101.3754343  56.2416559  11.6648729 102.4350666  55.5112165  10.8682401
   0.5625201  94.9063086  55.6935596  -0.3536676  95.0900828  55.9010696
   1.0563828  95.3245228  56.3988447  28.1932073  52.6957548  15.8927591
  28.4943532  51.8306254  15.6150968  28.3577536  53.2604097  15.1375635
  89.9762605  61.2487301  39.3468340  90.5948185  61.9547096  39.5344789
  89.2506098  61.3987270  39.9527700  28.7830209  29.5192960  11.1307962
  29.2582439  29.8399904  10.3642709  29.4685124  29.2723921  11.7515714
   9.1337897  84.2651164  79.0911245   9.8840452  83.6749267  79.1620016
   8.5514284  83.8378369  78.4630203   3.3835508  92.9051112  63.4975529
   3.5133983  92.4107718  62.6882362   2.7604939  93.5922419  63.2611609
  82.5401424  69.3061557  25.9107168  81.8099378  69.0170899  25.3634699
  83.2295774  69.5366207  25.2879770  97.3233961  21.6151932   3.7457616
  96.4138101  21.8208483   3.9616068  97.2677397  21.0967067   2.9430826
   2.2256304  71.3145172  63.6641598   1.6445161  70.5841290  63.8764620
   3.0689336  70.9027015  63.4757900  31.3114190   6.5799713  87.0056725
  31.8231297   7.2812623  87.4088764  30.8877611   6.1388463  87.7419853
  85.6477808  27.9259947   6.2870557  85.4543613  27.3809102   7.0497568
  84.7925304  28.1002238   5.8940942  36.9410683  78.9414012  44.5477200
  37.7605845  78.8838398  45.0389528  37.0230032  79.7479688  44.0388346
  92.5577854  72.1342066  17.5521619  92.2728513  72.3611095  18.4373434
  92.4163364  72.9323438  17.0430429   7.6635910  99.0977188  72.4493408
   7.4999119  98.2701307  72.9016018   7.7528025  98.8536530  71.5280914
   9.7486187  84.9060284  47.9696369  10.1680924  85.2744829  48.7471437
   9.2645146  84.1472923  48.2955074  47.3103285  30.7330012  53.1872272
  47.7324772  29.8775101  53.2657146  46.6642714  30.6182504  52.4903250
 108.2423582  97.7133869  68.1409025 107.9301228  97.8497033  69.0354156
 109.1583600  97.4552994  68.2436705  48.3380650  54.2460936   9.7847517
  48.9400100  54.1055411  10.5156000  47.5385605  54.5778575  10.1933534
  26.3629699  25.9728074  34.2881775  26.4333916  26.0854220  33.3402371
  25.5424643  26.4074683  34.5207119  91.3799785  65.9864428   2.9495390
  90.8453630  65.9163061   3.7404211  90.7455562  66.0841313   2.2394617
  77.7886214  98.3813464  82.0289993  76.9790798  98.4956702  81.5312004
  77.5778010  97.7103799  82.6782990   8.6823616  31.4691356   2.7464636
   8.7199459  30.6351331   3.2147176   7.8542862  31.4377120   2.2673471
  78.7364006   3.8945255  61.0139275  78.5312510   3.3771634  60.2351570
  78.7200451   3.2624274  61.7325497   8.1303622  91.6076290  64.9058962
   7.5830628  92.2299933  64.4269848   8.2393385  90.8716582  64.3036509
 107.6359644  95.5427652  39.6086931 108.3628669  95.8692812  39.0783811
 107.0974531  96.3156342  39.7787261  21.2292076  97.4486100  62.6897001
  21.1611582  97.9717582  61.8910027  20.3591849  97.5012141  63.0853271
  46.9301796  28.6928797  56.9814157  46.3984823  28.4234643  56.2324524
  46.4167404  29.3811035  57.4044514  83.7808679  36.1348715  14.3743856
  83.8178848  36.6026941  13.5401209  83.9131378  35.2162960  14.1399629
  63.2884501  45.2134976   4.9509485  63.5718225  46.0942629   4.7056253
  63.7342523  44.6369293   4.3304212 108.7036712   0.0627832  60.9545517
 107.7905352   0.2829826  60.7703590 109.1462667   0.1509058  60.1104116
 103.6596988  72.6330521  35.6956918 104.1595339  73.3742001  36.0378797
 104.2562937  72.2048262  35.0817449  57.4675322   1.8621363  51.0158014
  57.0663357   2.6336050  51.4159393  57.1522903   1.1277682  51.5426397
  51.3425922   5.9588736  67.8316832  51.4861345   5.4208493  67.0531225
  50.4049635   6.1511320  67.8204155 105.1493421  72.6528489  82.8996372
 105.4533043  73.4464799  82.4592018 105.6153979  72.6494609  83.7357044
  82.4201368  13.2050302  17.0797403  82.4046396  13.0771544  16.1312444
  81.6734194  13.7772181  17.2565038 100.4391446  91.3228189  73.5834742
  99.6693125  91.3379919  74.1521263 100.9123697  92.1263217  73.7995148
   5.8909394  93.3434927  73.7664890   6.1456228  94.1676616  73.3516216
   5.4327751  92.8606426  73.0786133 103.7205671  61.3760939   0.4019315
 103.8592743  60.8169135   1.1663301 104.1572117  62.1983650   0.6242902
  70.7128429   4.6681100  88.8157558  70.0079298   4.2376089  89.2994881
  71.0138702   4.0071517  88.1922531  17.7825129  25.9262323  44.7134399
  17.1679640  25.1983786  44.8072147  18.6464810  25.5221009  44.7938776
  78.8300371   1.1248527  66.3131905  79.3915367   0.7346528  65.6433439
  78.0980921   0.5138493  66.3978195   7.4353005  77.2883164  76.4132309
   7.6882244  77.6068770  75.5467558   8.0832649  76.6145741  76.6192579
 107.2987102  82.3524526   8.2749994 107.9127382  81.7430571   8.6846788
 106.8105053  81.8165424   7.6499422  19.8492457  94.3730741  76.5207291
  19.4542385  94.8502331  77.2504711  20.7885004  94.3890696  76.7045164
 100.4724334  92.8627994  -0.0226824 100.7752250  92.5870827   0.8425005
  99.5354103  93.0218628   0.0909574  43.1225325  92.8470444  38.2691073
  43.5872294  93.3984398  38.8985920  42.5428606  92.3067819  38.8060713
  50.3648258  79.3437993  65.8836603  49.9192787  79.3335997  66.7307854
  49.8282124  78.7824666  65.3240347  77.8407596  71.1897030   1.2188490
  78.0249475  72.0906356   1.4846189  76.9610857  71.2258759   0.8432253
  83.1572914  26.7544317  71.0965061  82.5300026  26.7206860  70.3742933
  83.4856415  27.6535010  71.0867500  79.9853325  11.5137720  86.8520069
  80.8339024  11.9542873  86.8978500  80.0936985  10.8560824  86.1650372
  53.4986353  22.8708792  77.0212936  53.3632660  23.1341410  76.1110210
  53.6573410  21.9279742  76.9768524  20.1991329  62.7894226   8.7437685
  19.5829735  63.1656769   9.3722685  19.6682606  62.1934977   8.2152994
  70.6326485   3.5543850  56.4419031  70.6132603   2.6501501  56.1285114
  70.2984667   3.5046959  57.3374939 100.1405525  13.5502660  82.9768562
 100.6666946  13.0533302  82.3503971  99.3006325  13.6781728  82.5359440
  47.7495813   5.7769513  69.4664288  46.7939234   5.7248324  69.4818544
  47.9753542   5.7606733  68.5363817  37.7918220   9.0220839  62.0453835
  37.6807523   8.1032300  61.8012476  37.1916676   9.4969058  61.4704132
  58.4909296  15.9824836  87.8430367  58.2168531  16.6897953  87.2592354
  57.8349781  15.9795451  88.5401344   2.8582360  80.4462539  83.3617020
   3.3601905  80.7818615  84.1044235   3.0831910  79.5167552  83.3209896
  88.6578655  45.1171780  73.2808018  88.1029701  45.8262396  72.9559183
  88.7618160  45.3028059  74.2140627  63.3980846  26.6537714  64.5758677
  63.9633417  27.4206495  64.6686840  62.5110245  26.9948411  64.6900225
   9.2571030  33.3854177   6.8529756   9.0749512  33.7739447   5.9973486
   9.2898712  34.1309193   7.4524648  78.5159445  29.1464710  74.4181442
  78.9119959  28.3385801  74.7447824  78.0960369  28.8921666  73.5964203
  85.3463959  44.6656295   5.6095750  85.4165291  45.6113830   5.4797037
  84.4534324  44.4522539   5.3387983   9.8626202  29.1696835  83.4467983
   9.2652887  29.4845915  84.1252232   9.3203658  29.1070604  82.6604939
  73.8159059  50.2487663   2.6106126  73.5284089  49.4200659   2.9937990
  73.3948396  50.9198779   3.1477792 107.4344610  67.2896352   4.2141492
 106.6516613  67.5964501   4.6716650 107.1542715  67.1830943   3.3050974
  60.7898664  14.3461800  81.9925499  60.8548260  14.1130292  82.9186535
  61.5191793  13.8853741  81.5778351  64.3508768  44.3959093  88.6988068
  64.9541092  44.2003918  87.9817867  64.3332958  43.5946941  89.2222309
  90.2092098  66.7386582   7.3485525  90.9133934  67.2364178   6.9331129
  90.3011345  66.9274726   8.2824381  24.4475914  86.5656685  69.9428749
  25.2125574  87.0601403  70.2370739  24.0525843  86.2334811  70.7490110
  23.1487013  81.1364209  45.0624704  23.3875681  81.6265809  44.2757607
  23.6792399  80.3408729  45.0193119  23.6197615  12.2884572  87.4534988
  23.7023783  12.6984870  88.3144760  24.5040894  12.3178792  87.0883560
  20.7189156  91.6961800  31.0221410  19.8747803  91.3648235  30.7157564
  20.8540369  92.5031578  30.5253887  36.2535835  90.9903907  59.8937511
  36.1839796  90.3347658  59.1998196  35.8803297  90.5634903  60.6649017
  26.4192891   5.5601841  63.1322002  26.6215181   4.7593063  63.6158609
  27.2482109   6.0379392  63.1026983  28.0764923  60.5509230   4.3756349
  27.7321682  61.4398971   4.2896135  28.7827263  60.5042121   3.7312181
   3.2012488 100.1706701  78.3028889   3.2151819 100.7326720  77.5281668
   3.3242251  99.2858278  77.9591370  66.7538189  68.1179610  34.9355085
  66.8201350  69.0650716  35.0572260  66.6378449  68.0052641  33.9920671
  37.8580595 100.1068141  59.9750042  37.3164536  99.3232368  60.0693512
  37.2729946 100.8306955  60.1984453  84.4878124  29.4251421  15.8033331
  84.6695589  30.3176239  16.0977419  85.2008079  28.9021519  16.1698682
  69.9646806  90.3814962  13.1443842  70.1632069  90.9784248  12.4229295
  69.4460200  89.6844485  12.7426965  79.9660419  51.2427380   9.0767248
  80.5061172  50.5769414   8.6509760  80.3325628  51.3211722   9.9574907
  69.6260213  46.0129651   7.7790125  70.1410316  45.6770691   7.0454080
  70.2126669  46.6253015   8.2229955  82.8316091  44.2983570  21.3199670
  82.6308464  43.7912270  22.1065672  82.1344875  44.0716794  20.7044370
 108.6301588  46.3269433   3.9433153 109.5462297  46.3540491   3.6670740
 108.5474323  45.4996994   4.4177206  88.0523014  21.0668278  73.7088585
  87.3518085  21.7189288  73.7263870  88.1846237  20.8327055  74.6275043
  65.2758907  68.6769846   8.0755098  65.2787851  69.5327547   8.5043295
  65.0024914  68.8603881   7.1767099  66.1664963  36.9791579  72.5179005
  66.9052362  37.1513844  73.1017113  65.4938269  36.6048598  73.0868006
  53.6015034  27.5972319  82.2039032  53.8157892  26.6687632  82.1130276
  53.4568262  27.8985548  81.3069630  51.4859629   0.7036529  62.4870920
  50.9214020  -0.0449172  62.2943687  51.2738657   1.3445830  61.8085289
  28.6894823  85.8034872  82.0053673  28.2011343  85.8621727  82.8265285
  29.3351389  85.1138388  82.1594429  82.7667879  98.5110548  37.3946531
  83.7149786  98.6056927  37.3040826  82.6532768  97.6998928  37.8899915
  33.6599207   3.0761901  87.8417397  33.4670448   3.6119828  88.6111259
  32.8362608   2.6280877  87.6493359   0.8271418  90.1934936  13.6340196
  -0.0152054  89.8878053  13.2975156   0.8631096  89.8582175  14.5298631
  18.3104286  70.5140474   6.4768465  19.1889725  70.4053989   6.8409593
  18.0696831  71.4140323   6.6966207  79.9246120   8.4865296  48.7416458
  79.5989132   8.8128603  49.5804930  79.2033005   7.9635638  48.3917236
  94.0751146  45.5548247  24.4081838  93.6508058  46.3960573  24.2392976
  94.6281742  45.4072377  23.6409910  11.1222006  93.0521624  67.9893541
  10.3304268  92.5498199  67.7970743  10.9703041  93.4137457  68.8625193
  83.2037830  20.0663853  84.4617653  82.6001549  20.0191808  85.2031422
  82.8083229  20.7077122  83.8713932  21.4117489  74.6079233   4.0775831
  20.8041630  73.9556649   3.7288244  22.1592960  74.0970447   4.3880708
  25.6197001  85.2976166  65.2106094  26.4554287  84.9926447  65.5638456
  25.2981259  85.9217237  65.8612347  47.6803017   3.5884711  64.2356253
  47.8635740   4.4825751  63.9471436  48.3240271   3.4222978  64.9242735
 106.0089802  49.3948081  15.3872640 106.2171482  48.7386495  14.7221716
 106.3075994  49.0057458  16.2092645  43.9810562  14.6672261  79.5995283
  43.5684490  14.0954387  78.9521933  44.8190117  14.2462313  79.7914410
  49.9060726   2.5582373  79.3002033  50.0388384   2.5675869  78.3522987
  49.7039080   3.4670001  79.5227098  67.1267461  47.2681910  19.9275072
  67.7480005  47.7928656  20.4324682  66.6258906  46.7889795  20.5876024
  35.6230426   3.9495265  79.2801666  35.0112200   3.5285193  78.6763000
  35.5883455   3.4107688  80.0705910  65.4511478 100.7879495  74.9158049
  64.7495230 101.2863158  74.4967747  66.2180557 100.9443060  74.3647718
  79.0102836  95.0137489  68.2288027  79.1466846  94.1397505  68.5945272
  79.3312170  94.9497443  67.3292828  47.9606009   0.9363230  65.3041315
  48.2607031   1.6644266  65.8482218  47.2394323   0.5483462  65.7997274
  72.1160078  13.4408474  66.8236113  71.1935663  13.6632776  66.9495201
  72.2553253  12.6736414  67.3787832   8.9678026  89.2576264  88.8681412
   8.1334950  88.9159452  89.1897202   8.7520577  90.1189577  88.5106564
  84.4401573  64.0309718   3.9461858  85.3159069  64.2472079   4.2663915
  83.8469385  64.4474008   4.5714147  37.7082705  21.7047739  80.4794502
  37.6510668  21.6742468  81.4344597  38.6439586  21.7936087  80.2982807
   6.9368324  65.2394464  22.8859193   7.0955668  64.3699434  23.2533414
   5.9944258  65.3735640  22.9864938  66.0827303   6.1733246  71.0140848
  66.1753893   5.3669763  71.5214825  65.5729103   5.9157401  70.2459955
  74.7504233  98.7624004   1.7521722  75.6930064  98.9055374   1.6668375
  74.4610022  98.5391882   0.8674963  38.1693602  13.5501862  54.4880772
  38.9895368  13.7543404  54.0387821  37.4863362  13.8247538  53.8762569
  63.0532264  27.2818926  12.8613527  62.5410413  26.5682676  12.4810465
  63.9643000  27.0237282  12.7216108  18.0514361  70.8036791  44.6369505
  17.7636887  71.6660201  44.3372726  18.4321524  70.3947627  43.8597298
  44.2303444  99.0143331  79.0044069  44.4971920  98.1042637  79.1340256
  43.2885576  99.0144711  79.1754818  56.6622375  71.7559460   7.7518232
  55.7189487  71.5960052   7.7225645  56.7408513  72.6955965   7.9164751
  12.2558714  94.6987670  46.5308666  12.8733183  95.4288887  46.4871264
  11.6952873  94.9036669  47.2791958 106.4389061  83.3019116   1.1228616
 105.7041048  82.6885035   1.1281164 106.3923382  83.7241009   0.2650602
  50.4120922  10.8503866  84.3066025  49.8123407  11.5809929  84.1557980
  50.5980682  10.8829594  85.2449989  43.4123230  25.1325798  77.4895620
  42.7310276  25.7635975  77.2574139  43.9268494  25.5735064  78.1656361
  93.0982183  22.6240518  36.8871648  92.6978945  23.1349781  36.1836488
  93.7925075  23.1881836  37.2276743  58.2403086  56.1945519  13.9956052
  58.2209324  55.9880268  13.0611475  59.1475462  56.0369369  14.2569692
  29.4324232 102.3477615  63.5978031  28.9340569 101.5381992  63.7094975
  29.6108176 102.6442638  64.4902658   9.4127426  55.7451349   5.4139002
   9.1334496  54.8296544   5.4249246  10.2632294  55.7413888   5.8531053
   6.7736588  69.2920509   4.3275221   7.2813664  68.8350788   3.6569746
   7.3839817  69.4018665   5.0566919  82.6574253 102.9676035  34.9418123
  83.3707451 102.7318457  35.5349596  82.1895622 102.1461847  34.7914560
 103.1678365  89.1094520  35.5752428 104.0114807  88.6872032  35.7371099
 103.3839964  90.0318292  35.4384000   1.0192452  65.5888930   6.0322817
   1.4548407  65.9699788   5.2698763   1.6857348  65.5997911   6.7192323
  78.7425636  31.9665721   1.5630777  79.0980743  31.4034727   2.2506578
  78.7991499  31.4376977   0.7672651  95.1167558  61.5165940  14.4297083
  94.5447944  61.6217187  13.6694105  95.3949236  60.6013468  14.3954332
  10.2557827  94.6845936  82.1265793   9.9389387  93.9425813  81.6115475
  10.2977968  94.3530410  83.0235386  52.0972897  99.0713947  80.8619118
  51.2896324  98.5597151  80.9077549  52.1563317  99.3442284  79.9463224
  26.7325855  99.0147849  63.1775999  26.9884897  99.7497766  62.6203442
  26.1781765  98.4713512  62.6176500  72.0643282   7.4355739  42.0646000
  72.8491068   7.1789753  41.5803432  71.3375854   7.1198010  41.5276051
 105.3323951 100.4001315  62.7368736 105.5483832 101.3307204  62.7967501
 105.2015986 100.2443125  61.8015432  53.6025978  95.1614623  74.4196510
  53.7412525  94.2454957  74.6605110  54.4512535  95.5789655  74.5670176
 108.6546276   1.1270658  11.8385370 108.2234762   1.2509862  10.9929712
 107.9358766   0.9957305  12.4569090  47.4898767  46.6871595  67.1651936
  47.9557276  45.9112597  67.4769497  48.1828499  47.3036671  66.9286776
  25.7560587  14.3253911  74.3387747  24.8063636  14.3720722  74.4489098
  26.0989833  14.9953485  74.9302053  25.0721130  40.5578211  23.5485132
  24.8491154  40.2796212  22.6601942  24.8535976  39.8046365  24.0973241
   6.2941132  73.4798673   0.6938703   6.5703259  73.1543711   1.5506036
   5.4748402  73.0183008   0.5150468  60.7724333  19.3289268  85.5622292
  60.7846403  18.4610963  85.1585579  61.6514015  19.4364071  85.9256840
  92.6562761  30.8267715   4.8692281  92.2075342  31.1943367   4.1078050
  92.5220655  29.8820665   4.7933729  41.1245728  29.3629193  38.4043813
  41.3907433  28.4488726  38.5038972  41.0722065  29.4954371  37.4578452
  11.8057404  44.5447507   1.1020620  12.0617161  44.2115441   0.2420194
  11.4900837  43.7737503   1.5733869  58.8557434  28.7660146  31.7896533
  58.4694958  29.3476558  31.1348724  59.7597980  28.6452675  31.4992356
  85.8028412   8.0082709  69.8414326  86.2619495   7.1987772  70.0654364
  86.4978313   8.6598110  69.7480679  59.1853093  47.8977042  27.9248483
  59.2899774  48.1284499  28.8479097  59.7899102  48.4783646  27.4627741
  44.2057037  21.7567039  72.3360729  43.6734390  22.5351930  72.5000334
  44.8083830  21.7178583  73.0787039  62.4092842  89.3318271  63.9595270
  62.9578091  88.6548494  63.5632229  61.7801071  89.5610844  63.2755613
  39.0373778  13.6405301  86.4589214  39.8817873  13.6803436  86.0099030
  38.4403086  14.1260839  85.8897305  86.6926502  69.4251266   2.3703439
  86.5244077  69.9782625   1.6074808  86.0753034  68.6991361   2.2806318
  53.7356138   3.5822773  86.7949295  54.2100382   3.7578392  85.9823227
  53.0643415   4.2636177  86.8323517 107.9813789  69.6727243  42.3397787
 108.4292196  69.6562722  41.4939649 108.6861490  69.7535816  42.9824216
  66.5941786  56.2058112  19.1458089  65.8873199  56.7548725  19.4850977
  66.2752460  55.9030464  18.2955988  62.5065565   1.1262508  73.7209320
  61.6189289   0.9757543  73.3958244  62.8098726   1.8970156  73.2411861
   7.6163889  83.9206349  83.4885311   8.4445692  83.4815156  83.2948208
   7.3211123  84.2587780  82.6431274  78.6805296  23.8322639  85.3662872
  78.2533693  23.6683106  86.2070560  77.9585552  23.9838934  84.7563744
  20.7688595  63.0133187  72.2669601  19.8487831  62.7888905  72.1279526
  21.0143782  62.5370347  73.0601263  38.9837956  18.9619672  64.1832209
  38.8802552  18.4371209  63.3894634  38.0886650  19.1674137  64.4529676
  75.4299377  44.8442557   6.1364229  76.2357115  44.3317118   6.0711343
  75.1857423  45.0233170   5.2283819  51.0271215  26.7634034  52.1606874
  50.2029276  27.1842074  52.4053621  51.3129139  27.2337174  51.3775158
  28.8621736  14.5248806  75.3539562  28.2075477  15.2005315  75.5305767
  29.1601634  14.7072399  74.4627905  91.4885210  58.7959066  29.2456014
  92.2325014  58.7243101  28.6476095  90.7636665  58.3824768  28.7766798
  47.8948498  14.9686038  77.6002741  48.8332844  14.7821403  77.5719929
  47.7609253  15.6274676  76.9189548  46.8683338   2.7766377  68.4875393
  47.7064657   2.8927505  68.0400038  47.0320320   3.0722871  69.3830967
  14.6765877 101.0550373  65.6463861  13.7303997 100.9242568  65.5842781
  14.8332239 101.2345450  66.5734625  90.2558206  59.3849197  25.2450712
  89.9097704  59.1328129  24.3889673  89.8742889  58.7520411  25.8534582
  11.8799187  52.8539120  68.3817005  11.5465904  51.9600522  68.3033133
  11.1992718  53.3988511  67.9867506  76.4440082  51.1481707   4.6908338
  76.4445137  51.4673721   3.7884195  77.3025774  50.7395234   4.8008211
  75.2747679  16.2588453  73.2805443  74.8880863  17.1085703  73.4919071
  74.5402336  15.7338548  72.9626274  81.4164925   6.5298158  71.2727022
  82.0066452   5.7908982  71.4208555  80.9295559   6.2929237  70.4833937
   8.0575539 102.6043552  65.9817410   7.1607424 102.7198833  66.2957716
   8.5865999 102.5615196  66.7783022  78.3615541  21.5881252  78.6161613
  77.5567055  22.1021008  78.5507536  78.2615042  20.9014869  77.9568052
  68.9403104  72.4918511  23.8074167  68.7607239  73.1923392  24.4345529
  68.1553077  72.4524048  23.2611139   3.3355452  71.2503444  79.6471310
   3.4671570  71.2406289  80.5951881   2.5568081  71.7919861  79.5189667
  39.1418432  63.8977816   6.3614233  38.7867336  63.4089723   5.6189973
  38.5814025  63.6546901   7.0983369  71.2838815  71.0336724  15.1133592
  71.6559457  71.7302587  14.5724638  71.8218993  70.2662268  14.9189527
  17.6835324  84.6908890  70.1715517  18.5427595  84.2710136  70.2123499
  17.8559281  85.5529045  69.7928190  95.2130722  84.2127564  25.7885797
  94.9018263  83.7591627  25.0052412  94.6129917  83.9348462  26.4806039
  60.2594090  38.6759758  82.0165157  60.8259869  38.0130124  82.4111080
  60.8409548  39.4166350  81.8448830  48.5322905  10.8985806  41.4161396
  48.4265423  11.8414164  41.5430689  47.8341055  10.6591594  40.8066750
  52.2845936   2.7177161  40.9243298  52.6530123   3.6011693  40.9272766
  52.4840593   2.3721255  41.7943954  49.2158508  31.8050075  41.5728426
  49.7049570  31.3356209  40.8970594  49.8767138  32.0491457  42.2208309
  13.0883384  28.0232477  45.3478909  12.3186684  28.3915424  45.7817125
  13.5312855  28.7795782  44.9631929  34.6065545  29.0728259  78.6231279
  34.4916105  28.1885600  78.2751417  35.4392362  29.0385580  79.0939760
  33.1871725  86.1419486  62.1772385  33.5665108  86.9327604  61.7938948
  33.2986952  86.2560545  63.1210470  76.7625641  66.1854043  12.9581411
  77.1869205  65.5030182  12.4380357  76.0000061  66.4422789  12.4397333
  54.1519833  47.6459122  81.8779373  54.3160105  47.0741940  81.1279583
  53.4720898  48.2481575  81.5758228  10.3082157 102.7246979  85.6995583
  10.5583454 101.8640126  86.0355473  10.7575299 102.7927811  84.8571205
  60.6532145  10.8687007  82.7957058  60.3431082   9.9748302  82.9408360
  61.1653090  10.8164990  81.9886971  84.1816877  67.0145121  39.5525034
  84.0040325  66.9330993  38.6154611  85.0475048  67.4201479  39.5977743
  72.4263929  99.6527937  24.8319776  72.0518373 100.0047710  25.6394727
  73.3621811  99.8424890  24.8994405  52.7913857  42.4131775  86.0572910
  52.6853132  42.8672361  86.8932438  52.4973917  43.0459690  85.4020309
  37.6097989   3.4452689  77.0184040  36.9698620   3.8525903  76.4346218
  37.3900557   3.7821040  77.8870153  54.6327257  20.3280258  72.2006273
  54.2924786  20.8908987  71.5051842  54.3581152  19.4458091  71.9505978
  46.5200710   5.1941979  88.0100727  47.1726370   4.8860878  88.6389256
  45.8507729   5.6177396  88.5475540  38.1577349  24.9057865  61.6002846
  38.7147093  24.2222548  61.2277365  37.3039055  24.7692204  61.1897278
  69.5596790   2.4411258  48.5474920  68.6205721   2.4495275  48.3624506
  69.6262217   2.7180994  49.4613266 100.1527857  65.4585519   3.0164392
 101.0765527  65.2278951   2.9180009 100.1619505  66.2783113   3.5105474
  20.1255156  93.7603789  18.3071184  19.9278189  93.8586645  17.3757279
  19.4462277  94.2680668  18.7510240  52.1306849  25.8306003  65.7910252
  51.9800091  25.5857396  66.7040253  52.9800415  25.4447865  65.5766153
  91.1867927  91.2950042  17.3621328  92.1374773  91.3613847  17.2725637
  90.9105943  92.1690252  17.6378782  21.4937305  16.4423954  44.6563864
  20.8473921  17.1415758  44.7544813  21.3250399  15.8551741  45.3932333
  37.0285988  37.1331525  50.3075743  37.6644540  37.5052261  50.9187031
  37.4828172  36.3886189  49.9131298  73.7818145  69.5747545  32.3468073
  74.4433497  70.2461496  32.5136240  73.6418723  69.1596988  33.1979044
  23.7410021   1.2323366  76.8705320  23.0297208   1.1738177  77.5084066
  24.2284822   0.4158456  76.9797897  89.3509172  37.7075448  16.3407095
  89.1613172  37.4488738  15.4388387  89.0366958  38.6096039  16.4022501
  94.1804886  24.4587517  71.7593908  94.2881680  23.6154675  71.3194942
  94.8647308  25.0134325  71.3847351  84.3245529  49.0656471  20.3497656
  83.3877777  49.0509987  20.1536329  84.7418331  48.7468740  19.5494611
  84.1586494  29.5972490  67.2284746  84.8888588  29.2215109  66.7367029
  83.4212399  29.5724559  66.6186714  28.7140083  13.5511935  68.8027477
  28.4205031  13.8157606  67.9309130  29.6558070  13.4102595  68.7058830
  95.7744660  94.7081833  86.2592888  96.1602917  94.4045525  87.0809841
  95.4986348  93.9071332  85.8137989  65.4686450  61.8268445  10.8224352
  64.8148035  61.2734028  10.3953321  65.3160595  61.6988197  11.7586858
  67.5661659  15.2983403  79.9058342  68.4728861  15.0500345  80.0859356
  67.3117542  14.7528195  79.1615820  29.9142838   8.9030582  86.9935226
  30.1742435   7.9877889  86.8889523  29.1942024   8.8770324  87.6236343
  64.1548611  85.7022773  75.9660149  63.8145710  84.9695956  75.4525852
  64.4900395  86.3169288  75.3132582  11.4023647  42.7017328  11.9018419
  11.5862236  42.0250132  11.2503202  10.6026993  43.1245872  11.5888555
   4.9568106  82.3919832  47.5151014   5.7886339  82.4531614  47.0454693
   5.0818754  81.6697537  48.1307125  44.9654961  23.2533693  58.8221645
  44.8545980  23.6650109  57.9651403  45.3865147  23.9255357  59.3580437
  66.8255447  19.0603450  32.2935350  66.4670800  19.9362972  32.4365289
  66.1483072  18.4681156  32.6204069   4.2829094  81.7128303  11.2439687
   4.3732605  80.8401444  11.6267069   4.0468416  81.5505340  10.3306348
  15.6955458  96.6089075  89.1694260  15.0680424  96.1924927  89.7602463
  15.1555134  96.9942283  88.4794044   6.5357901 100.4603641  69.1091251
   6.6625334 101.4002120  69.2389441   7.4070717 100.0824349  69.2285633
  11.1785628  87.4263298  46.1703491  12.0618511  87.2400033  46.4886522
  11.0130240  88.3301555  46.4385414  92.4114368   1.6037456  23.1572778
  92.6203928   2.2603742  23.8216646  92.3676023   2.0972387  22.3382719
  48.9758564  81.9884931  37.7504420  48.6019398  81.5201699  37.0040560
  49.7685028  81.4980732  37.9682255  81.5320492  28.0005217  83.5787106
  81.0654926  27.5388145  84.2754078  82.0805550  27.3295498  83.1723022
  10.4388882  86.6603803  65.4533434   9.6862818  86.5910398  66.0407257
  10.8203722  87.5153290  65.6527519  29.5741844  17.5376952  61.8341255
  29.2814088  17.2964752  60.9553051  29.9649453  16.7372251  62.1845341
  30.0335360  15.8831501  54.4630909  30.0126982  14.9731481  54.1669607
  29.6772695  16.3823891  53.7281990  63.7273312  17.0809066  55.6218767
  64.1541290  16.5366721  56.2836027  63.5003853  17.8872871  56.0849953
  56.6025997 101.9422298  73.3397722  56.0415722 102.0056721  74.1127253
  56.0757900 101.4631178  72.7001238  29.3649635  94.2960861   3.9861257
  29.2211590  94.2904213   4.9324472  28.4849320  94.2782095   3.6100252
  43.1466913  13.2904553  51.5724659  42.8978872  12.5810719  50.9799290
  42.5123692  13.9848351  51.3944244  58.2159519  20.1864696  65.8906794
  57.2841072  20.3813839  65.9901905  58.3485746  19.3854558  66.3976526
  46.3265324  37.2434187  76.5854025  46.6663313  37.3642421  77.4720669
  46.9019556  37.7736521  76.0340643  22.0284582  94.2419582  45.7203627
  22.2535015  94.8555624  46.4197016  21.8410851  93.4201228  46.1739159
 106.7228292  77.0078209  34.8930891 107.4466299  77.6308325  34.8282869
 107.1005749  76.1723807  34.6181734  82.1600746  40.9896245  20.8665903
  81.8816255  41.3544944  21.7065771  81.9865965  41.6863051  20.2335222
  86.7422365  44.0668967   1.7638834  86.6352247  44.5229456   2.5986250
  86.0607742  43.3947256   1.7691095  67.5608968  71.5196731   4.7964342
  67.9366325  71.8956974   4.0004022  67.0948242  72.2473267   5.2081735
  86.9357227  60.6124404   3.8625009  86.4887260  61.1133006   3.1801756
  86.2373804  60.3461686   4.4605310  73.3939552  14.6091330  80.8972931
  72.9369116  15.4371583  81.0446644  73.7224483  14.6731794  80.0005054
  23.6392236  16.3315701  68.5066462  23.4445357  16.4638412  67.5788355
  22.8357029  16.5884507  68.9589739 109.2901157  46.0354498  16.0163744
 108.9075159  45.7247886  16.8369444 109.1335987  46.9797522  16.0215051
  82.1693491  90.5577162   5.9561212  82.6503919  90.9553745   6.6818578
  82.2646497  89.6152285   6.0934694  60.0736427  32.9523015  71.8632269
  60.7295895  32.2551894  71.8633318  60.2465248  33.4437251  71.0602045
  69.7495890  24.9933887  63.8227749  70.6708622  24.7343659  63.8426495
  69.7002077  25.6495094  63.1275797  69.4732332  65.0763464  80.3605270
  70.0422478  65.8043480  80.6104660  68.5880327  65.4377079  80.4059887
  67.0831871  23.9579391  82.6023102  67.1567392  23.1058741  82.1724224
  67.9370689  24.0934515  83.0131149 105.3904413  70.7768348   0.9814508
 106.2209533  71.0491827   1.3717134 104.8985933  71.5907672   0.8726843
  85.0968456   8.7813842  75.5911541  84.2115498   9.0510124  75.3466272
  85.2761364   8.0197597  75.0397825  63.9476824  30.4805279  47.2666454
  64.1887617  31.3118982  46.8580723  62.9914999  30.5012083  47.3056507
  70.2196980  11.6663766  62.6247787  71.0351467  11.8912470  63.0727863
  70.2322054  10.7108331  62.5698996  65.2157593  31.8339491  88.1399441
  65.0823879  32.7364612  87.8502560  65.7442427  31.4359808  87.4481583
   4.0650774  83.1028675  85.7675934   4.5162274  83.9198302  85.9803486
   4.7465922  82.4326550  85.8184147  88.0611538  47.0014587  13.5988290
  88.7789081  47.1813512  14.2060335  87.5167440  46.3597140  14.0549142
  54.0451145  17.0512700  86.3666058  53.2385063  17.5618505  86.2964344
  53.9768314  16.6108108  87.2136974  83.0642986  14.1000390  61.7025566
  82.4559307  14.8273921  61.8332624  83.9144707  14.5196223  61.5707445
 100.6100502 101.5638668  75.8490849 100.2812853 100.9954690  75.1526165
 100.4018941 102.4500900  75.5532598  58.0037212  39.0017080  83.5479927
  57.7606678  38.0852699  83.6795139  58.7055635  38.9724207  82.8977680
  34.2423558  44.4982386  60.7730913  34.5979428  44.9955368  60.0365591
  34.6044326  44.9268866  61.5485907  59.5274447  69.0924540   3.9080198
  59.7469639  68.4150269   4.5476587  58.5717725  69.1418531   3.9298971
  62.3819971  18.8242364  68.2414579  62.8926039  18.1669736  68.7142372
  61.8037367  18.3151865  67.6733780  48.7998533  37.9937458  82.5365925
  48.1092834  37.3311329  82.5197887  48.6756802  38.4480214  83.3699322
   0.4691731   1.0366824  40.3898048   0.3421055   1.2285431  41.3189316
  -0.3060592   1.4002752  39.9619579  72.6428795  23.5319471  48.0329370
  72.9573679  22.6287889  47.9925442  71.6909218  23.4572864  47.9663134
   1.7783079  61.5611186   0.8250101   2.1168432  62.3387089   0.3811891
   2.0962009  61.6411832   1.7243250   1.7700062  76.9049957  28.7472875
   1.1889801  76.3244679  29.2388494   1.2207327  77.2562268  28.0464513
 101.5194534  86.8173960  16.4066751 100.5712341  86.8742826  16.5244730
 101.6361402  86.1677745  15.7134206  65.4737090  94.0758446  24.2169054
  65.7170843  95.0013903  24.1979368  65.4668568  93.8490036  25.1468141
  16.1213741  61.0635552   1.1877020  16.1178360  60.7543620   2.0935781
  16.7285595  61.8035307   1.1895616  65.2206755  33.0036306  75.7564688
  64.3780470  33.4491396  75.6685305  65.3410530  32.9030871  76.7007303
  79.9041271  44.5697260  86.3728142  79.8726797  43.8168526  85.7825279
  78.9875746  44.7461033  86.5850735 108.1967043  76.8177393   6.4718683
 108.1549619  77.4856594   7.1562536 109.0987324  76.4989784   6.5029962
  54.5693636  22.8677726  63.3996868  54.3088627  21.9895649  63.1219769
  54.2571735  23.4424520  62.7007484   1.1394033 102.3182276   8.1459386
   0.6869373 102.4026039   8.9852197   1.7944346 103.0161312   8.1557520
  47.4490499  45.0732470  74.9818087  47.3007822  44.3858671  74.3323851
  47.9669857  44.6488285  75.6658030  57.5205039  60.6994006  12.2066648
  56.6488074  60.3811309  12.4413545  57.8082870  60.1146033  11.5056474
   3.0418072  76.9131449  37.9177911   3.8781128  76.7046073  38.3341272
   2.5664339  77.4201515  38.5759599  93.0235695  68.0613902  21.8768842
  93.7647127  68.5651865  21.5405328  93.3799909  67.5808218  22.6240404
  58.7461996  32.6565289  74.4228745  58.2851315  33.4863544  74.3002462
  59.1858530  32.5010037  73.5869646   9.8277721  70.3676250   7.6073415
   9.2151890  70.4667738   8.3361395   9.7749767  69.4406810   7.3744924
  41.0868311  41.9940519  82.4921131  41.3180256  42.4095535  83.3228588
  40.1716185  41.7353439  82.6002407  86.3148117  53.3543348  75.9007502
  87.1469021  52.9575682  76.1584806  85.9222126  53.6437988  76.7243481
  62.2196007  35.7356906  63.3615732  62.4897432  34.8995781  62.9818773
  62.1075153  36.3157010  62.6084089  48.8938427  23.1772828  77.7699423
  48.6189604  23.6443329  76.9809341  48.4066010  22.3538184  77.7428150
  48.0324841  20.2668285  66.6793489  47.2755957  20.8456326  66.5880680
  48.7594986  20.7618785  66.3017130  78.9213467  29.0818644  53.7568378
  78.8705301  28.1665254  54.0321684  78.0111742  29.3777132  53.7397289
  71.0382891  15.2300000  69.5791006  71.5222263  15.3034389  68.7565231
  70.5919313  16.0718250  69.6703672   7.7285417   6.6993896   6.7232759
   7.9674944   7.1201745   7.5491483   7.4741777   5.8107654   6.9720323
   6.0433064  58.3459189   8.0309637   5.2888689  58.8813159   7.7851827
   6.4805136  58.1530449   7.2015817  56.3843966  30.8534265  48.5197830
  55.5929804  30.4838133  48.9112806  56.6220331  30.2340174  47.8297853
   1.6866719  26.1946392  87.5191212   1.9759117  26.5581846  88.3560181
   0.7595478  25.9968090  87.6515388  18.6655483 100.5819538  13.1259687
  18.5946903 101.4905813  12.8334005  17.7707062 100.3350475  13.3594949
  35.6729374  46.7400449   4.9749811  35.1561031  47.4932304   4.6889360
  35.7476387  46.8470502   5.9232481  81.6250156  85.2398494  21.1136396
  82.5483583  85.2539447  21.3655622  81.4567922  84.3292859  20.8711298
  42.0695353   2.4083066  77.8819513  42.7282143   1.7334701  77.7177238
  42.5190544   3.2323709  77.6946402   4.1191969  72.8835681  12.0620783
   4.9154053  72.3687508  11.9307668   4.4016991  73.6316040  12.5882585
   1.3288794  80.4932406   2.7292116   2.2092543  80.7051685   2.4189623
   1.4524422  80.2355626   3.6427648  59.9765348   8.4124815  81.6152859
  60.2955914   7.6275450  81.1699677  59.1369534   8.1494087  81.9922829
  44.9889050  98.5751751   2.9955537  44.9454556  99.5165613   2.8278120
  45.7438431  98.2761696   2.4887045  70.8397055  18.2138050  75.8944082
  70.3727913  19.0410185  76.0124969  70.7271624  18.0055356  74.9669409
  30.7260380  83.8972261   4.3060358  31.1104164  83.5905221   5.1272638
  30.8710823  84.8433521   4.3123300   9.4619118  26.8728781  79.5987940
  10.1849781  27.4310660  79.3127251   8.7106739  27.4635077  79.6538544
   7.3144382  11.6402876  18.4464180   8.2368016  11.6722250  18.7003028
   7.0339775  10.7538033  18.6738360  40.3149700  40.6337547  68.9611244
  39.9996543  39.7300601  68.9490652  41.2413836  40.5611372  69.1907358
   8.1161667  85.5667113  69.9758101   8.7693764  84.8673104  69.9955034
   7.3816372  85.2228045  70.4841614 102.1576309  42.9965210  42.0648146
 101.4206791  43.5971642  41.9536352 102.2560310  42.5773239  41.2099361
  77.9729748  18.7270665  66.5818834  77.8062105  19.6622360  66.6996908
  77.1048117  18.3244705  66.6027212  63.8320875  47.1115541  70.6476736
  64.6152020  47.5928926  70.9146500  63.4701014  46.7705584  71.4655495
  78.8871098  40.8519554  55.6043673  78.4052372  40.9785509  56.4216805
  78.9148712  39.9023438  55.4873180  56.9332123  24.3566680  36.7400432
  56.9917154  23.6782479  36.0673213  56.9103336  25.1785803  36.2499738
  60.7123280  33.4033775  67.3615026  60.5022717  34.0651751  66.7026138
  60.0549889  33.5295749  68.0457640  94.0681051  74.5629814   6.4540155
  93.5828756  74.6946505   5.6394918  94.9882578  74.6201137   6.1965616
  67.1260166  21.6865826  78.3677006  66.8944407  22.6079845  78.2509995
  66.5646315  21.2184024  77.7497339  74.3042421  20.3752184  51.8254375
  74.9793339  20.6348038  52.4524164  74.2221880  19.4284618  51.9401121
  23.9050541  80.4441789   3.0449636  23.3510361  80.1174977   3.7538870
  23.3740006  81.1149385   2.6156576  56.8781233  30.7997108  68.5729885
  57.2927046  30.9734678  67.7279043  56.1459017  31.4150095  68.6115789
  65.8451605  22.7650690  67.5036621  65.7751942  23.4309816  68.1876945
  65.7263660  23.2482624  66.6859579  81.5402794  36.7985678  75.5612230
  81.3174248  36.8839788  76.4881945  80.8662605  37.3027110  75.1054096
  43.7642717   6.4478415  43.3394384  43.3355761   7.2534633  43.6282778
  44.6779680   6.5546203  43.6039877  31.2123133  91.0056614  31.1635923
  30.8256127  90.2662598  30.6945705  30.8115937  90.9742438  32.0323110
  19.2634163  67.8559318   4.8484094  19.9799309  68.4223822   4.5620878
  19.5125065  67.5823453   5.7312162  79.7005606  44.7661734  53.7647533
  79.3997669  45.3341436  53.0554152  79.1800308  43.9684916  53.6699820
  29.1422009  32.1732068  70.7205296  28.4474683  32.7851653  70.4774570
  28.7942362  31.7049670  71.4794111 102.8263664  26.1943150  85.4536533
 102.0435905  25.6981611  85.2142143 103.3836079  25.5597687  85.9042740
  31.7045879  36.1758399  88.3576202  30.7477236  36.1803722  88.3327007
  31.9678593  36.5487266  87.5162601  76.5009403  35.9256506  81.9447899
  76.2083864  36.8360639  81.9871235  76.9748592  35.8646822  81.1153793
  85.2351761  52.4071836  48.0811453  84.8876095  51.6669893  48.5786819
  85.7357788  52.9124355  48.7217283  60.2543259  33.5577631  60.1498270
  60.5189896  32.6579714  59.9586201  60.8127403  34.0960169  59.5888567
  24.3237187  95.5672025  70.8173227  23.9491488  96.1220401  71.5014887
  24.9481179  96.1339878  70.3644323  74.8283720  22.2774792  58.4459162
  74.8172522  22.8811431  59.1886806  75.4411554  22.6722956  57.8255558
  63.4081984  27.2358990  78.9973307  62.8471661  27.2568250  79.7725916
  64.2993498  27.2296023  79.3466759  68.0039501   9.6641171  67.5024176
  68.3812332   8.8459140  67.8255749  67.8697491   9.5129073  66.5668106
  76.0010624  16.7226160  87.1675587  75.9857798  15.8482909  86.7782593
  76.7065763  16.6849518  87.8133678  44.9546242  23.9248991  62.8164530
  44.4056559  24.7070646  62.7609348  45.4885292  24.0620589  63.5989904
  84.8937511  27.8794718  84.1891098  84.8863411  27.2999048  84.9508667
  84.1115093  27.6350379  83.6945629  51.2766171  27.8390360  63.8645411
  51.4387894  27.0767426  64.4202757  51.7210722  27.6345515  63.0418158
   3.2383356  71.5261891  49.1951997   2.4606524  70.9709945  49.2517812
   3.0522213  72.2595718  49.7814996   7.6749096  84.6006349   8.4235819
   6.7842398  84.9176934   8.5732896   7.5923595  83.6470058   8.4207304
  18.2292064  13.3434907  18.0430277  19.0423282  12.8630201  18.1986292
  18.3802065  14.2033283  18.4355981  79.0167332  38.4721684  81.8519115
  78.6628389  37.9921412  81.1032009  79.6916723  37.8950310  82.2091198
  80.7225441  66.9209137  24.2725618  80.2286886  67.5047043  23.6967714
  81.0567259  66.2376967  23.6913831  64.0238999  92.4359253  32.8195055
  64.1299390  92.7713325  31.9292886  64.9182009  92.2972038  33.1312997
  73.9822626   1.9848375  70.9658813  73.6213923   1.9947883  71.8523979
  74.9053049   2.2108752  71.0804749  31.5872917  96.2964561  25.0260503
  30.9019623  96.2208345  24.3620927  31.6285000  95.4285553  25.4276521
  47.2820950  35.1263571  52.1019936  48.1049109  35.0814748  52.5890160
  47.4811840  35.6783819  51.3457727  70.5152653  85.1973417   6.4738615
  70.4694198  85.5325439   5.5784471  70.0466775  85.8474877   6.9972761
  96.3219259   0.3852121  13.5510404  95.5520580   0.8783046  13.2674940
  96.3287733  -0.3910550  12.9910333  65.9886599  35.3899693  62.9360676
  65.6815624  35.7131433  63.7831116  65.8384752  34.4452858  62.9713869
   2.3865830  52.0002842  61.5685558   1.8542801  51.7788839  62.3326683
   3.2735001  52.0986223  61.9148731  13.0316315  45.0780144   9.2475660
  13.5497913  44.4581982   9.7609575  13.2746086  45.9370526   9.5928915
  86.6449522  70.4349211  10.8655031  87.0027231  70.0518194  11.6664179
  86.9368242  69.8478702  10.1680715 108.8193359  85.7057869  81.2336349
 108.8810744  85.3436398  82.1175289 109.6935596  86.0523831  81.0552025
  93.4221363  15.4044974  24.3013620  92.4753475  15.5452752  24.3006301
  93.5253620  14.4711518  24.4869518  80.8241367  41.1782217  70.3338432
  79.9208355  41.2319040  70.0217581  81.3369942  40.9809113  69.5500898
  13.5741386  94.4146612   2.4034269  14.1431770  93.6598089   2.5538404
  13.4263954  94.7807577   3.2754190  92.5003147  42.0713472  75.6773520
  91.9691086  42.1789455  74.8883820  92.4509144  41.1357880  75.8736086
  96.5341282  12.6383460  54.8027611  96.8621731  13.2601166  54.1531324
  96.4551258  11.8124807  54.3253326  89.8243427  50.7550573  65.3072739
  89.6609688  51.1561298  64.4536448  89.5652866  51.4248514  65.9401226
  74.8541164  41.0490942  84.6271706  74.2580795  40.7977581  85.3327274
  74.3382597  40.9414291  83.8280964  31.1951685  51.4628935  68.3716011
  31.9229364  51.7903376  67.8430510  30.4365873  51.9632006  68.0707979
  76.1094618  51.7745161  85.7411957  75.3318214  51.7291164  85.1849174
  76.4391327  52.6649141  85.6198025  45.9977484  52.2215796  62.5538683
  45.2670813  51.7282009  62.9266071  45.5819321  52.9033804  62.0261621
  72.9606342  41.2582874  82.6066971  72.3363113  40.5352402  82.5462055
  72.5874138  41.8423986  83.2668114  51.8076229  31.9443464  65.9513330
  51.4323950  31.1347365  66.2976980  51.9396257  31.7678356  65.0198555
  61.7952108  30.1169443  82.9589558  61.9485426  29.3856454  82.3606873
  61.2120438  29.7601032  83.6288929  67.1911144   3.8617888  67.9583502
  66.4735031   4.1395667  67.3890543  67.7389669   3.3092380  67.4008703
  98.8798832  95.1143864  19.9202879  98.5776829  95.4163244  19.0636976
  99.8260425  95.0117186  19.8179395 104.7854637 101.4258411  -0.0526183
 105.7394956 101.3490274  -0.0403254 104.5110058 101.1411360   0.8190782
 104.3928900  71.9202434  61.3340187 103.5741010  71.4288413  61.3999128
 104.1415467  72.8282534  61.5030622  35.8387113  29.2722321  85.5628872
  35.3562737  28.5725975  86.0033321  35.2334905  30.0137925  85.5573940
  32.8101120  94.8095920  28.9231355  32.2320519  94.6833065  29.6755560
  32.3381386  95.4217604  28.3585794  51.9071627  31.1446142  82.9954147
  52.2359943  31.7408895  82.3226929  52.6853180  30.6822634  83.3067703
  62.3281384  30.9681082  63.4714890  63.2055283  30.6233144  63.6374235
  61.8660688  30.2494836  63.0398560  88.5819340  46.0818577  68.5900593
  88.3140087  46.4885712  67.7660275  88.3995342  45.1501942  68.4677410
  76.3820885  52.4979728   2.3967607  77.1051096  53.1105177   2.2616346
  76.3147830  52.0207124   1.5697630  45.8050585  47.7664042  69.0506649
  45.3181601  48.4579468  68.6024141  46.5479755  47.5848389  68.4750414
  68.9059590  82.6007345   6.5240057  69.6656560  82.5001100   5.9504469
  68.5286497  83.4447196   6.2758978  37.2551800  86.4284812  69.6864748
  36.4093043  86.0457777  69.4535160  37.7008606  85.7411026  70.1815557
   4.5509920  58.0780145  30.7373865   4.0599213  58.8967803  30.8059747
   4.2314491  57.5453517  31.4656694  69.3451643  20.3564143  84.5509815
  69.0515518  20.0655532  83.6876011  68.5425043  20.6211352  85.0002956
  80.3912354  31.0607696  70.7973337  79.6143723  30.7065940  70.3645897
  81.0930634  30.9529662  70.1554251  63.5486078  30.2582788  85.0591850
  63.8862419  31.1312389  84.8587418  62.8751516  30.1040101  84.3966961
  20.7715679  72.1227514  58.5191154  19.8285319  71.9621645  58.4855890
  20.8491064  73.0679165  58.6490345  77.7973175  26.8501258  64.9813986
  77.0724058  26.3734984  64.5769739  77.6963043  27.7494264  64.6694899
  45.2653074  47.9645538  79.1148806  45.2824306  47.0175886  79.2534208
  45.6557894  48.0871248  78.2495880   5.7920862  95.2863972  76.6742706
   5.8608271  94.5615899  76.0528517   5.5515171  94.8702191  77.5020075
   4.7481928  88.4304455   5.0556810   4.5694361  87.6763370   4.4939001
   3.8861952  88.8073709   5.2321012  47.5927591  13.3207822  87.6072407
  46.8221474  13.8855004  87.5482368  47.8667545  13.3842838  88.5221863
  31.4681292  36.0998750  56.8451834  31.8110466  35.2074933  56.8930721
  30.5280042  36.0036850  56.9973087  60.0829983  24.4492888  63.4325886
  59.4332361  25.0190067  63.8442421  59.5703173  23.7334538  63.0571318
  91.2902616  55.8039269   5.7892378  91.7995666  56.5758773   5.5423887
  91.6492056  55.0981393   5.2514131  60.3562784  22.8719616  82.4730873
  59.5770025  23.3512449  82.1915817  60.5651379  22.2995996  81.7348385
  54.8642206  28.0775166  86.3242435  54.8999357  27.9610538  87.2736549
  54.2456579  27.4114347  86.0243320  66.9680977  35.8287191  69.9960136
  66.7870331  36.2094927  69.1366768  66.4241171  36.3331127  70.6009150
  44.1196203  20.5925059  64.9506521  43.4386921  20.9672093  65.5093670
  44.9389029  20.7981420  65.4009008  35.3188301  88.9869975  57.8357315
  35.7609154  88.1400417  57.7769279  34.9301792  89.1149007  56.9703865
  94.0242218  93.2177856   4.8518427  93.8782905  93.8715437   4.1680772
  94.2463325  92.4180391   4.3750723  40.0973606  23.8273811  74.8985338
  40.9410334  24.1659451  74.5988417  39.4734144  24.5238042  74.6937847
  85.1149940  52.5362062  73.5862160  84.9962711  51.5923452  73.6923218
  85.3693199  52.8448725  74.4558525   8.0185248  91.3540541  87.8651047
   8.6734177  92.0410108  87.7408504   7.6846815  91.1794256  86.9851685
  28.2312737  91.2852099  20.6959398  28.4720287  90.3919294  20.9415491
  29.0439472  91.7839554  20.7798536  98.1335901  72.9070380   6.5365369
  97.9455208  72.7864936   5.6057699  97.3381876  73.3033231   6.8922384
  24.0171989   4.5409290  28.5334261  23.6490663   3.9072696  29.1492040
  23.5530742   4.3749849  27.7128847 107.1945118  73.3734754  24.6525724
 107.4355005  73.6901787  23.7820299 106.6081070  72.6356819  24.4851930
  67.3400974  29.5544052  80.9844589  66.4844418  29.3722177  81.3729095
  67.1723652  30.2537680  80.3528023 105.6011842  57.1229473  40.8249719
 106.2830137  56.7195025  40.2877767 106.0403179  57.8535542  41.2604101
  53.4307861  11.1141086  54.9223089  52.5178719  11.0081220  54.6547508
  53.3806133  11.4531469  55.8160496  54.8854733  25.5049300  49.9804592
  54.6323729  24.8982739  50.6762600  55.2572298  26.2567735  50.4417133
  50.6343317   9.2354512  70.1887226  50.0897884   9.0097040  69.4345760
  51.4761877   9.4876337  69.8093605  85.5781746   6.5477163  22.2884583
  86.0188103   6.2007648  23.0641460  85.4270840   7.4708259  22.4916172
  69.2236137  43.7490416  84.8171902  69.1270447  43.9826679  83.8939762
  68.7407255  44.4283438  85.2879333   1.3748369  55.4951903  18.9720495
   2.1569548  54.9564945  19.0917452   1.2181006  55.8843812  19.8323972
  45.1257015  82.9168998  73.3502579  45.2574517  82.0809018  72.9030704
  44.2576195  83.2051968  73.0682039  48.5091448  31.7757487  62.7945328
  49.4354534  31.9481921  62.9631901  48.1549120  32.6205635  62.5169706
  52.3049641  12.0582366  43.2682228  52.5567913  11.6410804  44.0921164
  51.7979860  11.3902521  42.8067017  30.3679180  12.8043127  62.5778770
  29.5599985  12.7121294  62.0729017  30.1939321  12.3378170  63.3954000
   2.8146492  29.4078016  62.4588013   1.8612896  29.4502854  62.5332117
   3.1105362  30.2951074  62.6621962  12.1418699   0.7324640   1.6307981
  12.1412262   0.1410095   0.8781965  12.9530414   1.2327329   1.5415819
  76.8965292  39.9562240  63.5224247  77.0650101  40.8457947  63.2117605
  77.6485491  39.7499299  64.0775299  69.9584389  32.4774671  78.6655998
  70.8393526  32.5248623  79.0370607  69.9193811  31.6155934  78.2510138
 104.8789333  78.2188466  33.5436971 105.3244184  78.8853720  33.0207021
 105.5732273  77.8258112  34.0725668  87.9314350  81.8570116  16.6012914
  87.2697519  81.1955002  16.8033083  88.1843542  82.2109726  17.4539240
 102.9167532  77.3334792   8.8661440 103.4635805  77.7341345   9.5419271
 102.5239872  76.5733817   9.2953546  96.3503647  37.8634572  69.2973518
  95.7193756  37.5115895  69.9252653  96.3906288  37.2050405  68.6037397
  75.0723648  35.7691216  86.5994835  74.9607277  35.6976366  85.6515121
  75.2539253  34.8744869  86.8874073  25.8948574  54.0063813  10.3269251
  25.6532917  54.8198968   9.8841245  25.5704269  53.3144849   9.7505052
  40.1070070  52.3113441  70.6551552  40.3762674  52.2401237  71.5709400
  40.7664204  51.8131971  70.1721907  60.5233335  20.5687547  77.0000267
  61.4042568  20.6333208  76.6312027  60.3258133  19.6322632  76.9859123
  83.7211609  15.4705405  85.6907463  82.8859806  15.1232994  85.3774738
  84.0096092  16.0632050  84.9966431  87.6620674  26.6422606  84.2797565
  88.1322002  26.0728359  84.8888111  86.7777538  26.2775373  84.2449570
  79.4181013  33.6575174  86.1404419  78.6793947  33.0512977  86.1955547
  79.4381905  33.9277482  85.2223969  21.1793385  47.2505820   4.2092950
  20.8108578  47.2089439   5.0917490  21.4300499  48.1675696   4.0974577
  38.0225992   1.1383474  71.4393759  38.3372378   1.6436827  72.1889544
  38.5134959   0.3176527  71.4807415 107.9515575  89.9368551   6.3907488
 107.2400736  90.4721024   6.0392721 108.7049602  90.1478937   5.8393152
  77.0935844  76.2280157  27.6358469  77.7199625  76.3031986  28.3557279
  76.2361573  76.2859443  28.0573900  32.8304840 101.9575558  37.9745579
  33.6102892 102.4204338  37.6681709  32.1162440 102.3174291  37.4486446
  95.9609436  67.1580770   5.4642446  96.7222475  67.1176246   6.0430486
  95.7548546  66.2426331   5.2752359  74.6342945  23.8448668  84.4519520
  73.7754154  24.1096306  84.1226196  74.4430351  23.3478808  85.2473450
  65.7457066   5.2237833  66.2082052  65.0896406   5.8658212  66.4794874
  66.2929726   5.6922466  65.5779076   6.2957226  17.7956426  67.4385595
   5.7732235  16.9938493  67.4574137   7.1144425  17.5380826  67.0147848
  48.8212872  16.7678380  61.1685896  48.9749241  16.9091702  60.2344275
  48.2395840  16.0084713  61.2034512  65.4276705   9.7675616  72.5212574
  64.9703074   8.9440721  72.3512077  64.8192120  10.4448891  72.2258902
  35.6524181  39.3961692  49.8420143  35.7962513  38.4500599  49.8624897
  36.1902332  39.7357345  50.5573320  95.4469395  30.5646062  85.4437733
  96.0276318  29.8663855  85.1412582  95.9385204  31.0000658  86.1401653
  66.9311857  18.5370624  68.3669662  66.9785738  19.4930053  68.3795643
  66.0187960  18.3396745  68.5786676  46.3651451  26.2704793   7.7994497
  46.7712768  27.0273391   7.3770006  47.0910248  25.8177129   8.2288034
  13.5862980  60.2811435   7.0778425  13.3396397  59.4973430   6.5868719
  13.9030418  60.8912149   6.4117201  95.1720715  17.7242732  59.8233128
  94.6278763  17.5567436  60.5927372  94.8324013  18.5436583  59.4635057
  72.4092102  35.2954459  69.6508837  72.1497345  35.3990865  70.5663967
  72.1556664  36.1196089  69.2353106  43.9723253  38.3496833  64.9663305
  43.3884621  38.4793806  64.2189932  43.3840418  38.2233119  65.7107687
  63.4438467  34.4567609  43.7466764  63.1976175  33.8259482  44.4231939
  64.3422985  34.2212796  43.5152292  73.5038160  82.2994378  10.5959661
  73.9886307  82.5877431   9.8226221  73.9154600  82.7649525  11.3240297
  27.7784691  70.4027906   6.2691934  28.5806427  69.9663380   6.5560110
  27.8635655  71.2987211   6.5952261  70.0199270  55.4710007  79.5164919
  70.3554392  54.6332169  79.8355198  69.4477558  55.2371931  78.7856150
  93.4232998  51.1022043  53.0901146  92.6615047  50.7264471  53.5313606
  94.1567421  50.5548668  53.3706856  30.9773620   6.6545240   1.8305166
  31.8380388   6.4066402   1.4928396  30.8346495   6.0698882   2.5748689
  27.9805636  31.0165000  54.8220921  27.2712135  31.1568499  54.1949129
  27.9563618  30.0772119  55.0048113  99.5358849  34.6082592  70.0835609
  99.2369080  35.3648853  70.5879068 100.3384209  34.3287420  70.5240631
  26.8671449   6.6707937  27.1913679  26.4060673   6.9606058  27.9785402
  26.5980705   5.7591955  27.0781381  98.6287498  42.3205423  49.5019197
  99.1049862  43.1318045  49.3250418  99.2131233  41.8188095  50.0702572
  78.4223843  37.3009419  70.0138807  78.0916452  37.4401402  69.1264820
  77.7468252  37.6710844  70.5820751   8.6519657  83.6086845  73.9349842
   8.4642063  82.8635597  74.5057344   7.7931439  83.8936329  73.6227846
   9.5455990 102.4959400  21.3535364   9.2118607 102.2284487  20.4972036
   9.1616306 101.8691709  21.9666822  75.0549053  75.8993342   3.9026220
  74.9786423  75.0833538   4.3971880  74.9195169  76.5876630   4.5538576
   9.8577557  77.1957281  11.8196733   9.6060238  76.8929985  12.6921518
   9.4794140  78.0723670  11.7519148  60.4132557  36.1474872  84.7228813
  60.4798937  36.9620872  85.2210999  59.9248600  35.5558825  85.2953339
  69.7430420  30.0574160  77.3451376  70.6022263  29.8491526  76.9781780
  69.1262770  29.5599151  76.8081760  57.4759461  98.3836590  86.4797211
  57.3832108  98.2206683  87.4183750  56.8358876  97.8009408  86.0710621
  98.7113737  98.1084803  37.8715761  99.0178417  98.4291819  37.0233686
  99.4215702  97.5496939  38.1871851  68.5768270  41.9413996  76.9328451
  68.3794403  42.6874638  76.3665819  69.4547606  41.6660595  76.6689205
   1.8652664  51.4979315  74.3006229   1.3696228  51.9386673  74.9907827
   2.5498806  52.1226025  74.0611935  92.5127602  15.9171355  54.2882538
  92.3518467  15.2859056  53.5869074  92.7946663  15.3832090  55.0310135
  71.0556269  37.3894429  82.5578880  70.8949327  36.4462900  82.5283623
  71.6153431  37.5608683  81.8005466  90.7516956  39.3012786  73.1979895
  91.0642338  38.4356284  72.9349279  89.9339390  39.4178486  72.7143383
  76.8663810  60.6563452   3.2155759  77.3947214  60.4320130   3.9815767
  77.2541832  60.1512959   2.5008924  67.6266527  49.1126728  82.3658562
  67.9532528  48.8533688  81.5042782  67.7193689  50.0652599  82.3803997
  87.0642662  49.0766001  48.3198452  87.8005981  49.6788597  48.2133532
  86.3182831  49.5408344  47.9400826  85.0513744  50.0950766  88.0807018
  84.7128963  50.9718418  87.8991699  85.8576775  50.2469349  88.5736942
  14.1770611  82.2725180   2.8563078  13.3293686  82.3887923   2.4272211
  14.0512142  82.6287988   3.7357767   6.5301571  88.8473847   7.2987611
   5.8137140  88.3258679   6.9368799   6.1169300  89.6676472   7.5682886
 103.8756202  74.3278673   4.6602781 104.3025659  73.5326126   4.3416650
 102.9446291  74.1067102   4.6843012  85.1223850  65.0839043  61.2650061
  85.1436043  64.8891926  60.3280544  84.4321823  65.7406235  61.3575840
  99.9031067  29.4899702  71.7077923 100.4012680  28.7611413  72.0777559
  98.9873600  29.2530322  71.8544197 105.7974266  98.8669470  47.4932630
 105.6040357  99.0504291  46.5739305 106.7533706  98.8701418  47.5421770
  76.0604286  46.9310379  68.0930424  76.6230297  47.2024202  68.8183403
  76.5171862  46.1867046  67.7011585  75.7235416   0.6638996   1.0510023
  75.8832439  -0.2790030   1.0103281  76.5962108   1.0521499   1.1136778
  16.9132576  72.7879432  19.8815687  17.2362385  72.3492291  19.0945203
  17.5279293  72.5304177  20.5686529  13.0822357   8.2942811  40.6752546
  13.3380302   7.5710050  41.2476785  13.8810905   8.8111631  40.5708654
  26.3404808  62.0095125   6.4760168  25.8692799  61.3057127   6.0300691
  25.8845673  62.1111086   7.3115118 102.4172211  50.7278252  76.6831923
 103.1233692  51.3567829  76.5348816 102.5638008  50.4087162  77.5736523
  76.3836241  56.8407249  78.2588530  76.5747690  55.9029341  78.2432032
  75.8474016  56.9888973  77.4799156 102.8972054   6.9413757  56.3704824
 102.9612446   7.7605164  55.8794212 103.1507397   6.2650979  55.7423115
 108.5651850 100.3234413   0.2100904 108.7757992 100.0151279   1.0914571
 107.9764627 101.0650804   0.3500898  33.5648594 101.1557987   2.8730352
  34.4651470 101.3768843   2.6346166  33.0486355 101.9077137   2.5825842
  18.8551006  83.1034305  11.0660894  18.0064640  82.7229050  11.2924917
  19.4631825  82.3646167  11.0910089   6.4241800 100.3162458  13.9285047
   6.2922392 100.4815319  14.8620565   6.4323101  99.3620613  13.8530119
  20.4014931  85.1258257   5.3230627  19.8625050  84.5845130   5.8998640
  20.9481011  84.4994834   4.8485716 105.2789497  24.2475581  46.3283014
 104.7345924  25.0089669  46.1279011 106.1596775  24.5041776  46.0549736
  91.4871502  35.5935407  59.5072603  90.5542755  35.4440355  59.6609783
  91.7849064  34.8041606  59.0550995  93.2378197  57.4532080  68.5317945
  93.6901283  57.6486540  67.7111578  93.8216019  57.7877569  69.2126083
  36.4228535  36.7807484  69.3849754  35.6258678  36.9101119  69.8990870
  37.0535922  37.3937917  69.7625685  69.1182613  24.0564275  66.3150215
  68.4291649  24.7207856  66.3184404  69.4774771  24.0884995  65.4283571
  96.7491220  81.0148957  11.7624433  96.1101221  81.7242721  11.6939314
  97.1718525  80.9895947  10.9040125  57.5719166  29.9130344  79.1954327
  57.4144506  29.2189264  78.5553932  57.0428991  30.6484175  78.8862801
  59.2696524  14.7028136  73.2281733  59.3878126  14.0915120  73.9552069
  58.3284473  14.8763120  73.2116842  85.1025105  45.5715942  68.9862108
  84.7617245  44.9096251  68.3846426  84.8312759  46.4057684  68.6030436
  59.0488243  39.8691750  88.7265682  59.4920874  40.2695274  89.4745350
  59.1117716  40.5246878  88.0318928  92.6071167  46.8842459  71.1301994
  92.8368664  46.6666603  72.0335817  93.2407284  46.4018631  70.5990934
  76.4197588  15.4098177  59.9931002  76.0260296  14.6852505  59.5070839
  77.3579788  15.3326118  59.8198509  83.4699917  48.5407400  76.4234495
  82.5966644  48.8640404  76.6448259  83.5580730  47.7282858  76.9218302
  95.8548069  40.4493523  68.6118126  95.6510162  40.2660847  67.6946926
  96.1827564  39.6181536  68.9550161  57.7061749  10.5622470  83.2704735
  57.9549551  10.5405760  82.3464203  58.3077860  11.1931622  83.6657429
  42.6094961  33.5184216  82.1104717  43.4746218  33.9278126  82.0969009
  42.7156973  32.7527022  82.6749420 100.0703501 101.3547542  29.4756754
 100.2905296 100.6725195  30.1099451 100.5131792 102.1377972  29.8027475
  85.3564358  38.2010937  84.5098495  84.5470715  38.5677505  84.8658371
  86.0498810  38.5866547  85.0453186  86.6411686  24.5855999  61.3147545
  85.9876919  25.1375890  60.8852196  86.8567181  23.9183903  60.6631422
  68.3494759  41.9204378  71.7691278  68.0000257  42.2018623  70.9236002
  67.9076052  42.4788666  72.4087667  27.5305233  94.7022369  11.3724001
  28.3653507  94.3375662  11.0786016  26.8859253  94.0278080  11.1582430
  88.4220957  71.0551873  17.3430498  88.7415050  71.6159871  18.0499513
  87.4797653  71.2205985  17.3132951  79.2625761  39.6100736  64.8268270
  80.1553249  39.6910667  64.4911671  79.2644358  40.1189089  65.6375742
  95.8163141  99.5352247   5.4635961  95.1275324  99.7119072   6.1043699
  96.3003610 100.3584936   5.3991182  43.2955980  50.8616877  81.1702156
  43.5224390  50.4599333  80.3315449  44.1003466  51.2958574  81.4532566
  93.0928205  71.6353681   4.5555360  93.0038427  70.6937626   4.7028215
  92.9129194  72.0293668   5.4091413  77.1174240  36.3698053  74.5583057
  76.4568233  37.0440316  74.3993759  77.9097414  36.7076588  74.1407967
 104.6241665  40.9514332  72.3769808 104.2927361  40.2812815  72.9747152
 104.1778660  41.7543077  72.6461172  54.9740219  37.2977734  80.0651741
  54.9366379  37.3460960  79.1099310  55.3988934  38.1136656  80.3298283
  87.2737122  69.7833061  73.0444908  88.1300545  69.3705320  72.9325342
  87.0500755  70.1110268  72.1733904  53.9028915  13.4893075  21.2059457
  54.4798549  13.8069908  21.9005067  54.4610676  13.4520284  20.4292352
  69.1469908  54.3427563  83.0874729  69.3590498  54.8685169  83.8587284
  69.9952602  54.1514874  82.6873684  26.9727001  96.8348148   5.0717313
  27.4386559  96.1558607   5.5597170  26.0641155  96.5343264   5.0513990
  35.3187418   0.7929100  79.1647863  35.2188158   1.0808875  80.0721550
  34.4234920   0.7408971  78.8300371  77.6153612  48.1969738  86.2561989
  76.8584394  47.7132607  85.9255600  77.3507547  48.4886551  87.1286297
  71.5047789  55.2498722  88.6382484  72.1638012  55.4681396  87.9792500
  71.9531298  55.3722668  89.4750500  80.2114582  59.1000462  83.7049294
  80.3673172  60.0437355  83.7422848  79.2635345  59.0178108  83.6004543
  55.7487869  57.7970982  82.5951385  56.2305021  58.4784460  83.0641270
  55.9773636  57.9320383  81.6754818  85.7929134  43.2631111  65.8021784
  85.6972694  44.0799046  65.3123474  85.4149151  42.5951433  65.2301931
  34.5202526  25.1119605  20.1456220  34.2433008  24.9086276  19.2522104
  33.7034639  25.1788465  20.6402166 104.3981575  59.5565328  22.1858556
 104.6112608  60.0386306  21.3868578 104.0661405  58.7139788  21.8758638
 108.2888317  31.0293674  66.6869497 107.7290154  31.6978407  66.2920141
 109.1464520  31.1669993  66.2847376  31.6407833  73.8179043  11.7749651
  31.4955864  74.2324760  12.6254232  32.5691662  73.9635137  11.5929182
  80.6692623  72.0585587  -0.0700896  80.1241468  72.7759245   0.2531297
  81.3920234  72.0064071   0.5553110  16.8999920  88.8315967  18.8574560
  17.4470577  88.1542137  19.2550619  17.4113236  89.6357682  18.9473302
  89.0018845  39.2524076  64.9254274  88.9111042  39.7168875  65.7574415
  88.5655403  38.4129596  65.0708914 103.9610577  32.5710773  61.9356632
 104.2863941  31.9865918  62.6203251 104.6791553  33.1855822  61.7841768
  80.7249426  78.7217954   1.6533144  81.5019106  79.2756417   1.5771349
  80.5752968  78.6474159   2.5958116  36.2090095  42.8685848  25.0206716
  36.9958910  42.3429576  25.1647909  36.5257629  43.7714473  24.9933202
  80.0000547  77.9523948   4.4500692  79.2932676  78.3922437   4.9225290
  80.6612324  77.7749732   5.1191003  71.9160795  43.5092449  78.6935759
  72.5493765  44.1857910  78.9332676  72.4494267  42.7938271  78.3472395
  63.0248531  15.7664195  10.7106550  63.6548218  16.3867132  11.0775621
  63.4640869  15.4065315   9.9400861   0.4948864  83.2748678  35.0988443
   0.5047283  84.2317131  35.0747545  -0.1207914  83.0592301  35.7993181
 106.7747688  51.0247231  72.0187998 106.5321636  51.8827677  71.6707611
 107.7314568  51.0392475  72.0464516  70.1817846  25.3844714  71.9877434
  70.7065392  25.0068998  72.6936483  70.7540083  26.0393667  71.5878725
  57.6952457  19.6438074  79.9100161  57.3021889  19.8325765  80.7621384
  57.8994799  20.5045700  79.5444918  30.0808692  51.5485907  74.4476366
  30.6014752  52.0846462  75.0458384  30.2190566  51.9461012  73.5879135
  54.9819708  33.9433908  83.6895752  55.9217358  33.7711382  83.7479305
  54.8725653  34.8100543  84.0809250   2.3608360  61.7342523   3.3115347
   2.8086815  61.8797114   4.1449030   1.5492497  61.2866321   3.5506971
  54.7893953  12.7204633  70.5067968  55.2867079  11.9047952  70.4468203
  55.4563046  13.4068727  70.5241728  78.2293606  10.6283534  56.7092800
  77.8850031  10.4440486  55.8353949  77.5567007  10.3000736  57.3059273
  72.8494692  36.9434285  87.5272465  73.5965586  36.5302587  87.0943737
  72.1950960  37.0399618  86.8353558  51.0496426  40.0924301  84.3354321
  50.8795214  40.7452202  85.0145149  51.0652447  40.5935335  83.5200214
 100.4429340   3.7320405  53.1932211  99.9896717   3.1761378  52.5593710
 101.3152504   3.8586873  52.8200626  26.8743858  87.5644520   4.3913229
  27.3175488  86.7160252   4.3900926  25.9420548  87.3476770   4.3916090
  42.8093481  37.9046893  87.5541592  42.2584915  37.8549623  88.3353901
  42.1907043  38.0075645  86.8310261  55.7640362  13.5239577  66.6024208
  55.9365225  12.5838995  66.5497732  54.8509598  13.6155462  66.3301468
 102.1224785  23.9104772  70.2145004 102.2698975  24.5378947  70.9222078
 101.4647579  24.3274236  69.6579123  76.2118101  15.8895147  78.9733362
  77.0273638  16.0260248  79.4554853  76.0415649  16.7298901  78.5478735
  87.6027679   9.6288282  64.8377466  87.4668980   8.9691061  64.1576433
  86.9448566  10.2997613  64.6554518  78.3689140  72.7116278   4.4635255
  77.7687048  72.5190595   5.1838739  77.7973531  72.8899744   3.7167032
  87.0470047  26.6305423  68.0549335  87.6630211  26.1534834  68.6109543
  86.6243172  27.2538781  68.6457157  26.0883808  16.0786176  69.3612576
  26.3503003  16.9896376  69.4942045  25.2314401  16.1350250  68.9385223
  15.7069359 102.2218540   1.0662706  15.8529434 101.8291500   0.2056272
  15.5174980 101.4790275   1.6394670  20.1419029  86.0930899  25.4289491
  20.1013908  86.8806603  25.9714563  21.0546360  86.0447719  25.1446684
  92.5959181  63.8629594   0.7238825  92.7555536  64.6545175   1.2378652
  92.6199554  63.1523505   1.3647325   9.1044747  31.0940623  86.1592674
   8.6389004  30.7331896  86.9137573   8.4434258  31.6045547  85.6916714
  21.8449055  41.3592148  71.3626766  21.5163075  41.9299936  72.0572758
  21.8916928  40.4927492  71.7667532  68.5047150  68.2283974  83.4084702
  69.0777349  67.4766016  83.2578564  67.6306438  67.8489399  83.4992504
  49.2654499  28.2971946   3.8107546  49.1202339  28.7360851   4.6489198
  49.4261059  29.0096370   3.1920011   0.5521618  22.9685664  88.4790134
   1.1642681  22.6865983  87.7992725  -0.0659813  23.5395360  88.0228138
 101.0707353  52.6604962  43.0046709 101.5645431  52.1880886  43.6749036
 101.1739610  52.1314485  42.2136648  19.5745119   5.2974121  15.1818807
  18.6380276   5.4939405  15.2064664  20.0003752   6.1524526  15.2433355
  77.3999166   3.3701870  84.8593521  78.2370472   3.6904716  85.1953030
  76.8834209   3.1823343  85.6430435  76.5321350  61.9190550  54.4456863
  75.8415937  61.6994429  53.8202572  77.3087931  62.0616484  53.9046669
  58.4547974  77.1619832  46.2738609  58.4217240  76.7772209  47.1497011
  57.5840546  77.5378262  46.1443281   9.3885574 102.7561882  25.5729349
  10.2341805 103.0202415  25.2104051   9.5962868 102.4192264  26.4444502
 104.8861955  45.2168378  14.8472841 105.1574968  45.1428166  15.7622392
 105.1685356  46.0926929  14.5838506 108.6454868  29.1386604  82.3396111
 109.1409588  29.8497534  82.7459145 109.2283058  28.7978578  81.6610813
  88.5886383  37.4296260  57.0697737  88.2685947  38.2893157  57.3431540
  89.5420551  37.5134659  57.0836639  22.7195320 100.1244715  14.6533449
  22.9511318 100.4990700  15.5032022  23.5606918  99.9526909  14.2300661
  82.3037052  12.9524207  87.0817661  83.1420326  12.5180304  87.2390747
  82.4775219  13.8778818  87.2536469  75.7314276  85.5092528  16.1309583
  76.1220692  85.0331881  15.3981645  74.7906636  85.4889348  15.9555109
  19.1374931  80.4397562  11.2997587  19.1065464  79.4849089  11.2402589
  19.2912254  80.6170490  12.2277506 100.5518793  97.2976997  21.7095525
 101.1759495  98.0030468  21.8805845 100.6539081  97.1085575  20.7767923
  77.7802753  48.2106638  83.1529045  77.0144272  48.1786060  83.7262154
  77.4199820  48.1488276  82.2682571  79.0530466  86.1837914   9.3187959
  78.7100576  86.7638686   9.9985750  79.8383831  86.6277984   8.9988954
  94.6622372  34.3099022  55.9523392  93.8931465  34.8657250  56.0780191
  94.8134995  34.3204403  55.0072241  68.7751007  25.8011460  75.0131178
  68.5930347  24.8626590  75.0613356  69.6752930  25.8869219  75.3270149
  85.7199574  26.0222912  78.1334066  84.8430538  26.2352395  77.8141642
  85.7439232  26.3768196  79.0222073  87.4917434  75.3582290   1.9596632
  86.9275831  76.0183552   1.5569265  87.8810238  75.8029654   2.7125890
  81.7962726  20.9031431  18.6600168  81.3257202  21.1818973  19.4455774
  81.1909660  21.0848371  17.9411085   4.6546516  60.2471760   1.6575964
   3.8471184  60.2613762   2.1713216   4.3903599  60.5463794   0.7876165
  82.2647572  30.1044703  65.5830622  81.7042542  29.8187280  64.8616648
  82.1710205  31.0569763  65.5964136  91.4594269  36.0723805  63.3434963
  92.1460056  36.0755920  62.6765394  91.7766666  36.6743517  64.0167141
  94.7857857  34.0661550  77.1705961  94.2458820  34.8097920  77.4384403
  95.6593227  34.2722344  77.5033140  93.8009644  43.0719709  72.4026155
  92.9975033  42.6106882  72.6432276  94.2669582  42.4600840  71.8328094
  71.6123486  27.2212648  70.5344105  70.9730911  27.4612570  69.8636007
  71.9064808  28.0576873  70.8951235  90.1315594  62.1679354  68.1892109
  89.4049454  62.7050352  67.8733158  90.3964901  62.5824356  69.0103245
  80.7719803  19.2217755  36.0028553  80.5755520  19.8988235  35.3553557
  81.1644459  18.5115135  35.4951906  55.6142426  18.6651874  63.3087492
  55.2874517  17.9238796  62.7989435  55.1156998  18.6327195  64.1252279
  49.9859476  66.2391567  86.0101891  49.2524099  65.6855345  85.7425022
  50.7534552  65.8291960  85.6113052  15.7675324  90.5501297  21.6210230
  15.8205853  89.6514109  21.9461687  14.9830875  90.5605033  21.0725935
  41.7419561  56.8551723  20.7253034  42.1505674  56.9218913  21.5883310
  40.8501085  56.5575591  20.9049184  69.5205736  28.5736513  68.5683918
  69.0198612  29.3357468  68.8594770  70.2243900  28.9397955  68.0328465
 108.4283899  69.8984495  21.8884714 108.7730192  70.3153708  22.6781805
 108.3799433  70.6060830  21.2457140  96.7505169  57.0921993  75.0865316
  96.3639164  57.9663277  75.0348520  97.1067715  56.9357824  74.2119741
  72.4741125  39.6718621  88.6242199  72.7722979  38.8543820  88.2254219
  72.8561544  39.6635294  89.5018387 106.9271374  73.1583881  76.4906931
 106.4009762  72.9300308  75.7243776 107.4995613  73.8628531  76.1869049
  95.2001762  56.2040949  84.6314144  94.8668480  55.9765625  85.4993725
  96.1499023  56.1125612  84.7080135  76.3765240  45.2613544  79.2743444
  76.7540741  45.9542370  79.8161983  76.4233208  45.6032085  78.3814955
  76.5013933  42.4503469  78.6665821  75.8565855  41.9556284  79.1722631
  76.6254425  43.2593727  79.1628838  19.8522816   6.1637987  60.0727701
  19.9475823   5.8458818  60.9705925  20.7155953   6.0346521  59.6800423
  82.7632427  58.6533594  84.8235035  83.2513905  58.0949831  84.2183971
  81.9565296  58.8668489  84.3545914 105.9380150  44.5504284  70.2474833
 105.4979134  44.5913315  71.0965204 105.4021931  45.0976944  69.6733522
  96.9143105  38.8411570  54.7922373  95.9877205  38.6031747  54.8244524
  97.3741341  38.0534458  55.0825787  96.3479996  42.8682375  79.3291330
  96.5036964  42.2962046  78.5776234  95.5105114  43.2909346  79.1389370
  80.9581089  16.3208520  73.3290720  80.5593872  15.9154272  72.5590801
  80.9322357  15.6382596  73.9996195  43.4525681  37.7699447  61.3430977
  43.2806158  36.8822598  61.6572285  44.3732882  37.9245877  61.5542746
 109.3770599  38.1846356  39.7223115 109.3116570  37.5923967  40.4714489
 108.4809589  38.4888840  39.5785737  56.9720062  10.0935975   5.8716257
  57.6432689   9.4235412   5.7425077  57.0207390  10.3049127   6.8039282
   4.8105249  97.8444651  20.1386984   4.8579798  97.2514751  19.3888052
   5.2990589  98.6197927  19.8622282  81.2606525  22.1995354  50.0772190
  81.1720085  22.4120975  49.1481400  80.8247280  22.9210591  50.5306530
  66.3109779  86.1084175  66.5514898  66.1324644  85.2357483  66.2010479
  65.8255053  86.1393929  67.3758602  40.3851684  44.9736301  11.0308321
  39.7608360  45.0200073  11.7549093  40.9884676  45.6999866  11.1878736
 104.6492672  51.3181877  80.7811546 105.0358772  51.9558382  80.1810169
 105.3995037  50.8585119  81.1580753  66.9230636   0.4153386  36.4721925
  67.1000179   0.0463048  35.6068952  66.0644611   0.8293907  36.3849599
  32.7656826   8.9168493  35.7431276  32.4403414   9.2443267  36.5816648
  33.4786638   9.5128385  35.5135973  76.1577606  57.3085356  81.5590096
  77.0207787  57.0788956  81.9035339  76.0400295  58.2271862  81.8007946
  51.2404617  13.8656131  38.9704759  51.6717991  13.1261627  39.3987043
  50.3211292  13.6055366  38.9120252  89.1673088  52.7431583  67.2131205
  89.5832062  53.4703827  66.7500877  89.1715336  53.0106592  68.1321764
  86.0689449  57.9906654  55.7450962  86.5762901  58.3001852  54.9947357
  85.8945751  58.7796831  56.2582016  79.0881777  56.9329405  84.8484516
  78.7762499  56.7915535  83.9546204  79.8808765  57.4594021  84.7450352
  65.0813341  48.5603428  82.9320145  64.9823999  47.7118874  82.5000858
  66.0222864  48.7340355  82.9060841 105.7507324  41.3298321  75.1086187
 105.0852299  41.6627693  74.5065403 106.2559223  40.7066917  74.5864058
  93.0580235  68.7576246  73.4413576  93.2496548  68.1933928  72.6922560
  93.6767101  68.4781551  74.1161633  73.9898777  58.4563732  72.0424843
  73.5160065  58.7063169  71.2492561  74.5321798  59.2180157  72.2475290
 107.3191547  69.9228239  74.0805817 106.7677116  69.1953611  73.7925863
 107.9008579  70.0905514  73.3391476 103.6021208  94.8989752  13.3412607
 102.6710247  95.0890520  13.4559782 104.0498756  95.6422022  13.7454374
  27.2199211  91.3988068   6.2830980  27.7070866  92.0057991   5.7259042
  27.8730545  90.7608488   6.5706117  14.7580872  96.5755918  18.0038126
  15.0532875  96.0900047  17.2335584  14.6683750  95.9105232  18.6863477
  96.0087131  99.7246817  14.5973642  95.1908849  99.2701128  14.3954713
  96.0842870  99.6699551  15.5500085  70.6297016  26.6665864  81.6497040
  69.9010944  26.1086702  81.3774967  70.7860184  27.2395945  80.8990574
  22.6067005  53.9964104  86.1300182  22.3028694  53.5789490  86.9360256
  22.8599869  53.2675743  85.5635643  81.3117695  29.6737361  72.9509020
  80.6316853  29.3641853  73.5491419  80.8321190  30.1223445  72.2545385
   5.7342253  97.0933082   0.1579054   5.2865658  96.9508913  -0.6760924
   5.0554619  97.4377420   0.7383115  91.6038895  84.6379757  71.6705561
  91.6031075  84.5880699  70.7146597  90.7004929  84.8560715  71.8997574
 100.4567169  82.0660785  16.6005285 100.8525776  82.3183229  17.4347360
  99.5976757  82.4882820  16.6056879  24.2178211  92.0042684  64.2076547
  24.7036800  92.8289631  64.1998632  23.7432537  92.0137098  65.0388773
   9.0623604  41.2590599  72.5570059   9.4599186  40.4813194  72.1654701
   9.7188412  41.5775156  73.1765604  81.3428879  60.1902819  76.1236429
  81.2516594  61.0757971  76.4754581  80.8477783  60.2057934  75.3045797
   7.8832852  12.0922148  82.9861736   7.7876412  12.5700092  83.8100624
   7.7660786  12.7577996  82.3083115  66.8936428   6.7053262  10.4773100
  66.6350159   6.4551822  11.3643129  66.6253933   7.6208106  10.3988035
  95.2243137  12.8252923  73.3770895  95.1780891  13.2190692  74.2483187
  95.8868027  13.3401549  72.9163837 106.2932873  49.2642593  37.2039127
 107.1558762  48.8602304  37.1094441 106.2931252  49.6239567  38.0909586
   1.4263378  65.6846237  82.7605820   0.5586373  66.0780621  82.6682472
   1.2922894  64.9454927  83.3538246   6.4353787  29.6040416  47.0444107
   7.1790730  30.0237775  47.4768066   5.8591305  29.3399668  47.7616549
  40.0976620  75.1837280  12.8549535  40.1916275  74.2810133  13.1590994
  39.3798313  75.5394652  13.3787878  97.1190929  46.4766312  77.0439863
  96.2334442  46.2062407  77.2863531  97.6602364  46.2218809  77.7913094
 100.2568340  42.7987909  73.5968924 100.0896740  42.5024033  72.7022171
 100.2124214  42.0019674  74.1254139  96.0219002  40.2600002  73.5334110
  95.2480030  40.3940725  72.9862928  96.7557049  40.2787495  72.9190683
  15.4849087  45.1501179  71.1735773  16.0443341  45.4592323  70.4610300
  14.6086537  45.1108742  70.7903433  40.9323820   7.0764533   8.2509763
  41.4075264   6.3115112   7.9264314  40.0142797   6.8886415   8.0559309
 104.3299961  25.5932260  65.4784441 104.0193081  25.0633454  66.2125635
 103.8429546  25.2645659  64.7228003  95.5838966  66.9718313  62.6512289
  94.9706459  66.6727018  61.9799042  95.0428772  67.0980692  63.4307098
   2.5551258  73.9827299  64.1326571   3.4580170  73.9642334  64.4499540
   2.2900902  73.0632162  64.1106939  77.0928764  46.1877394  76.8418121
  77.6664591  46.6674662  76.2442350  76.6378355  45.5577707  76.2829638
  89.9461460  68.7976170  50.7232809  89.8967075  69.5451880  51.3190365
  90.5234241  69.0909100  50.0183296 101.7756367  39.8137593  35.9210229
 101.7879868  39.5593548  34.9983311 101.6937065  40.7673168  35.9054804
  58.0791903  84.8012447  60.7343054  58.8618135  85.3244495  60.5611277
  58.3929873  84.0695763  61.2657452  11.9714699  89.6497014  15.9801538
  12.8655396  89.9641445  15.8460195  11.9269047  89.4458297  16.9143350
 101.6797256  26.4431119  75.8773327 102.4316216  27.0351720  75.8961010
 101.4966202  26.2592196  76.7986870  20.5512295 102.2981813   3.8079317
  20.1144657 102.4586943   4.6444185  20.1226101 102.8959110   3.1953676
  44.3154415  13.5533372   5.6566675  43.9122375  12.8221504   6.1246736
  44.0265354  14.3314020   6.1335142  57.0438862  53.9396286  85.3412533
  57.2610855  53.9983606  84.4108772  57.8921080  53.9084530  85.7837296
  30.4735791  63.2143259  68.0690193  30.6398331  62.3234844  68.3772278
  30.6134545  63.7644386  68.8397598  83.9218712  58.1558180  73.6100721
  84.6526241  57.5396013  73.5600567  83.7834358  58.2875729  74.5479965
  19.0962731  75.8901405  75.3490257  20.0188671  75.7168007  75.1619387
  19.0467869  75.9181023  76.3045359  64.5716366  18.8763372  13.1743295
  64.2832550  18.7741462  12.2673471  64.5037636  17.9975740  13.5476930
  82.2965702  29.2598907  14.4714410  81.6102585  29.7337524  14.9411829
  83.0109962  29.1838161  15.1039274  41.4533600   2.4650327   5.2528341
  40.9327730   2.0145170   5.9178503  41.0096105   3.3040897   5.1291330
   5.2043377  21.1056828  23.0474567   5.5085408  21.4405751  23.8909841
   4.9883972  20.1888061  23.2175589  97.0921326  11.1390233  48.1099367
  97.2064781  12.0259213  48.4513521  97.7834988  10.6289423  48.5319138
 107.2756767  65.8339643  51.1548853 107.4160767  65.1613474  51.8212986
 106.9482613  65.3532505  50.3946543   4.9122082  48.9724159  82.2118568
   5.1596199  48.6587477  83.0817032   5.7398354  49.0331602  81.7348003
  72.9769516  70.5490017  85.6635380  72.6881647  70.7799292  84.7806358
  73.8812780  70.8594704  85.7086086   5.1697670 101.4699650  64.2671919
   4.7305809 101.5480614  65.1141024   6.0759388 101.2530899  64.4864082
  99.5240211  60.8870316  85.0938797  98.6981010  61.2997627  84.8414230
  99.4208336  59.9698639  84.8401356  90.1168919  52.9841709  78.2907963
  90.3837490  52.2868395  78.8897514  90.0275898  53.7573481  78.8479805
  85.9811401  50.9087944  70.3471279  86.7716122  50.6816292  69.8574400
  85.5359554  50.0726414  70.4845572  48.3790398  69.7333622  79.8302984
  48.0889654  68.8856936  79.4933224  47.5684977  70.2099037  80.0096321
 106.7582417  63.4568930  70.1717901 106.7216015  64.3352795  70.5503702
 105.9757900  63.3996058  69.6234035  71.1710262  41.6781616  71.4149380
  70.2857637  41.9488049  71.6584301  71.0581779  40.8098555  71.0282373
  97.5599502   4.9836076  69.5390272  96.6329263   5.1900495  69.6583748
  97.7337192   4.2872442  70.1723576  95.4065037  38.8139653  75.8886337
  95.6690788  39.5147538  76.4854431  95.5782318  39.1662097  75.0153255
  77.7199078  59.4526052  78.8045979  78.1358004  59.2561769  77.9651451
  77.2758961  58.6402416  79.0478182  94.8512077  31.6516209  57.5620461
  94.7508144  32.1021557  56.7234945  95.1542664  32.3311353  58.1642532
  18.3145081  86.9315624  68.4301043  17.8876149  87.0157719  67.5775146
  18.2113015  87.7924061  68.8357115   1.3406407  13.4693396  73.8769484
   1.5704571  14.1061735  73.2002974   0.5656468  13.0244756  73.5338545
  47.3632011  87.8004029   3.5967024  47.2456989  88.4078601   4.3270643
  47.0057736  86.9713810   3.9148100   0.8624779  66.8604851  67.3788214
  -0.0616707  66.9079542  67.6236248   0.9506069  66.0149145  66.9389582
  17.6382669  22.1094123   2.6600225  17.1491274  21.3877956   3.0553014
  17.2779068  22.1875230   1.7766912 101.7433453  69.9945879  60.5137491
 101.9711590  69.9868393  61.4434099 100.8097744  69.7841311  60.4941559
   0.7943783 102.9054144  12.8121336   1.2966547 102.1364286  12.5426633
   0.9388361 102.9670265  13.7563665  52.5663551   2.0805494  15.8294160
  52.1280655   1.7493383  16.6132696  53.2725605   1.4550153  15.6674917
  72.5723124  97.5416470  64.6144438  71.8188190  97.1860790  65.0856686
  72.7347565  98.3896828  65.0275660  98.5121250  58.1695700  22.4420547
  98.2324600  58.5033131  21.5896273  99.4680405  58.1596279  22.3934960
   9.8442494  47.7501678  83.6485100  10.1429020  47.4117994  82.8043842
  10.1958691  48.6395693  83.6879921  15.7514629  74.5139745   9.8287256
  14.8606167  74.2557457   9.5921953  15.6571541  75.3946450  10.1917131
  11.9329532  12.0376912   0.3412016  11.3855919  12.8229467   0.3413255
  11.5357479  11.4689676  -0.3183501  90.1279926  58.7109852  65.0735378
  90.6609821  58.8738108  65.8517742  89.2248535  58.7808657  65.3828573
  59.6799135  61.9257212  79.2868567  58.9429665  62.4704599  79.5632553
  59.6146631  61.1406803  79.8306274   5.2194916  34.5018864  79.0872240
   5.4210221  35.3438950  78.6790085   5.3504216  33.8599443  78.3893681
  98.1067848  74.0456629  79.4217157  98.7236786  73.3365440  79.2405415
  98.0368233  74.0642500  80.3761768  76.4343119  80.4137135  77.0883799
  77.2668743  80.2667141  77.5372267  76.6518831  80.3634930  76.1575890
  94.3457817  71.2418750  15.6816633  93.7258648  71.3213876  16.4066560
  94.4757913  72.1402958  15.3780706  91.4043045  48.5184240  73.3929253
  91.2985897  48.1516647  72.5151157  92.1519470  49.1112232  73.3163786
  84.2816639  77.5218678  87.1724033  84.5895386  78.4097433  87.3544121
  83.8185978  77.2610331  87.9684925  28.8325176 100.8153704   6.4115484
  29.4790707 100.4233578   5.8245809  28.0694923 100.2412632   6.3450678
  73.9989471  66.8652344  58.4972906  73.8021708  67.1484613  57.6043797
  74.8404741  66.4147520  58.4257030  74.8631287  38.2714391  82.7061844
  75.0536823  38.7834311  83.4921741  74.1161585  38.7163448  82.3057747
  52.9134998 101.8840006   0.7580526  53.8212738 101.5807798   0.7428892
  52.7148399 101.9989040   1.6873319  37.1857818  26.4142887   8.8658197
  36.2781795  26.1640016   8.6930711  37.1307405  27.3204652   9.1692121
  90.5185223  22.6979256  73.8796186  89.7766876  22.1190763  73.7039804
  90.1435566  23.4227419  74.3798923   7.0925198  79.0457085   4.1161878
   6.3795004  79.5257547   3.6950166   7.8846417  79.5150497   3.8544710
   2.3367535  49.9619675  82.3267078   2.4480377  50.4929066  81.5380669
   3.2139813  49.6299314  82.5176525  34.3045553   1.2424127   3.6384161
  34.5660576   1.6669265   4.4555051  34.1684851   0.3256408   3.8776834
  19.4224104  11.9169036   0.0745065  20.0162062  11.3857404   0.6050737
  19.6365007  12.8203527   0.3072698  89.9110413  32.9505277  75.1701927
  90.4905796  33.2208705  75.8824301  89.2003059  33.5915565  75.1833105
   8.4896313  54.3076944  50.6104517   8.7059723  53.8380146  49.8049498
   8.4993969  53.6341000  51.2904549   4.9156342  95.5187824  11.9991644
   5.5925045  95.1026276  11.4654119   4.0911970  95.2388599  11.6014440
  97.9721832  49.9386311  79.0054369  98.1925869  49.6874428  78.1084633
  98.6962605  50.5004740  79.2816114  70.7774528   4.5369188   6.1879118
  70.3023704   4.8022643   5.4004343  71.3453850   5.2812091   6.3872011
  16.2141072  54.8561287  55.1851606  15.8178078  53.9848852  55.1961327
  16.7635380  54.8594809  54.4013596   4.5919714  95.0534227  23.2075746
   4.1687689  94.7581747  24.0137727   4.2448435  94.4744518  22.5289495
 103.3345413  96.4240646  87.8988552 104.1448402  96.3110447  87.4020004
 102.6675415  95.9828472  87.3728561  49.4495773  70.8902836  50.0621510
  49.1396809  70.4238129  49.2858791  48.8668156  71.6460419  50.1359844
  67.5735140  84.3361282  63.1831217  66.9042063  84.6687698  62.5851202
  68.2696533  84.0161228  62.6093435  27.6709398  20.9218112  31.3302477
  27.1309694  20.3604785  31.8866403  27.3533901  20.7558957  30.4426344
  58.1213331  40.0304794  77.3040771  58.6150026  40.1747847  76.4967966
  58.7767172  39.7349381  77.9360199  85.0611687  17.8453720  55.0477505
  85.2202129  17.3961306  55.8778858  84.9618530  18.7663317  55.2890015
  27.0933136  21.0278074  34.4008310  26.9346269  21.8683378  33.9712198
  26.6508564  21.1036149  35.2462347  57.7485546  49.0887348  14.9738748
  57.5906738  48.9585296  15.9089430  57.0829853  48.5534374  14.5417745
  90.1011086  19.6037138  80.2418232  89.1501236  19.5813608  80.1352024
  90.2915192  20.5041194  80.5049706 101.1135769  31.9183493  64.1825390
 101.6844845  31.6905546  63.4487772 100.6848526  32.7294803  63.9095974
  14.5500050  86.0150197   8.1207616  15.2215061  86.1433604   7.4507864
  14.9553928  85.4250625   8.7562425 109.3930531  29.7123766  62.8272915
 108.9350319  30.5411410  62.6873112 108.9583969  29.3237472  63.5864162
  73.9662632   2.7353803   0.8194502  74.5887169   2.0116035   0.8897073
  73.1709274   2.4089996   1.2403352  86.4474758   1.5554277   3.0487974
  86.2444195   1.5933219   2.1141584  87.2992214   1.9852296   3.1264742
  80.7553291  67.5426149  67.8368330  80.6440926  67.2671223  66.9269085
  81.6941643  67.7075672  67.9240704  70.2313185  42.7372599  81.0410500
  70.8702946  43.1169319  80.4378891  70.3601742  41.7920160  80.9626389
  84.8481369  83.4246922  55.0302696  84.2815208  82.8976059  55.5936098
  85.5485535  82.8270435  54.7686005  24.7588692  90.0970796   4.1697652
  25.0024662  89.5405510   4.9094732  25.3702698  89.8530271   3.4748800
  18.4299978   6.0938207   9.5616300  17.7683338   5.7671825  10.1713331
  18.9606413   5.3257934   9.3500192  87.5949287  75.4760456  72.9291248
  88.2688713  76.1204958  72.7129936  87.5337029  74.9230909  72.1502018
  92.6299286  50.9212637  50.3186941  92.9952717  51.2789822  51.1278868
  92.0959282  50.1799345  50.6041908  76.3168701   5.3637639   1.2967737
  75.6665500   5.5084840   0.6094892  76.9988140   6.0122339   1.1216314
   3.5478913  61.8086720  78.2692146   4.1250931  61.0680437  78.4550571
   3.4326016  62.2407341  79.1155386 106.6683197  34.8740864  82.8703690
 106.8392372  33.9341879  82.9304504 105.9054756  34.9425864  82.2962475
  14.7912846  94.8698070  20.7836969  14.6397743  95.8081987  20.8963735
  15.1548634  94.5835808  21.6216238  60.5321487  41.1625282   3.0104120
  60.5878052  40.4177181   2.4117525  59.8897346  41.7464343   2.6071985
 108.0780792  48.5844564  56.9085932 108.1219482  48.2861471  56.0001230
 107.7075005  47.8425980  57.3866606   8.6449299  97.6124361   0.9898050
   7.7337132  97.5464561   0.7042177   9.1544113  97.3170689   0.2352102
  22.7413712  93.7864902   2.7686460  23.3957443  94.4833925   2.7201803
  22.5946102  93.5319593   1.8576582   4.4589100 102.0016745   5.3723581
   5.4129705 101.9685676   5.4423578   4.1915426 102.6333406   6.0399969
  77.1210670  51.0527325  59.6241283  77.9740715  50.8661366  60.0163031
  77.0178175  50.3848076  58.9463043  99.9835682  28.3024096  51.3558769
 100.7466888  28.6250782  50.8765411 100.2931786  28.1958270  52.2553301
  26.4537106  84.1296461   5.8946283  27.1372757  84.4815472   5.3244264
  26.8828068  84.0195372   6.7431505  86.1829948  51.8850517  52.3387527
  86.9128799  51.4684486  51.8805504  86.1056709  51.3977480  53.1589842
  32.6468548  15.4158346   0.5674226  32.9915556  16.2945501   0.4084451
  32.0269760  15.5284730   1.2880380  93.6739826  42.2229099  50.7783985
  92.8278828  42.0058823  50.3869343  93.8073444  41.5518713  51.4478397
  45.9573422  76.9975069   9.4274004  45.2591953  77.5207618   9.8211439
  45.6776581  76.0908845   9.5540769 107.1662998  64.4325495  78.2925701
 106.7252922  65.2401209  78.5563421 107.9779148  64.7268963  77.8791952
  73.0330610  59.4964361  69.7065639  72.1153069  59.7596645  69.7748852
  73.3236742  59.8562241  68.8685131  74.1140556  56.9284344  87.5972843
  74.9919462  57.1900463  87.3196220  73.5589933  57.1096849  86.8388081
  67.0469713  55.6047916  81.7008209  67.7898073  55.1967525  82.1457195
  66.4372206  55.8245802  82.4051857  65.0208235  59.7163725  87.1859837
  65.1772547  60.0697041  86.3102436  65.7949162  59.9703169  87.6885128
  73.6510738   0.2910463  46.8472726  73.1099209   0.5312721  46.0951574
  74.0054973   1.1224119  47.1626241 102.0975208  79.2165565  55.2800465
 102.3209572  78.8148975  56.1196756 101.2652779  78.8121510  55.0350046
 103.4243774  43.0546045  73.8549709 102.6581860  43.0825949  73.2819080
 103.0789661  43.2486963  74.7263241  18.2688938  77.6852036  53.0151653
  17.6474797  77.0499372  53.3708525  18.4533249  78.2749796  53.7461805
  78.6100864  76.8937588  78.8342619  78.6306524  77.7292109  79.3009901
  77.6805830  76.7330360  78.6717081  75.4371023  53.2144499  53.7963295
  74.5453739  53.0859423  53.4730005  75.4182625  54.0748310  54.2153931
 102.1699715  63.8313007  69.0049887 102.0351791  64.1708231  68.1202364
 103.0932140  63.5795403  69.0268469  81.7031177  19.4779865  10.6052454
  81.1527809  19.9994174  11.1895998  82.0579799  20.1116363   9.9817045
  86.1322880  60.3267479  75.2403831  85.9623146  60.8480930  76.0249472
  86.2891865  60.9734964  74.5523930  15.4806839  72.9196548  53.8442612
  15.7174813  73.1846189  52.9554701  15.7431542  72.0007277  53.8981915
  89.6792959  99.1671064   0.6580217  89.0731977  99.0544060   1.3902624
  89.1443371  99.5457628  -0.0395911  13.9574372 102.1683693  77.2224188
  13.1545483 102.5467968  77.5807476  13.8362347 102.2038364  76.2735844
  98.5764408  54.7965479  74.2844152  99.1809940  55.1730490  74.9239492
  97.7901649  54.5910835  74.7901678  97.5895523  79.6805122  19.8912771
  97.7750658  80.6191900  19.8647936  98.2436107  79.2906502  19.3112333
  45.0319942  14.6095315  16.2190683  45.2328190  14.8026267  17.1348245
  45.8472332  14.2543975  15.8648164  15.5504856  82.0183065  28.1475313
  14.8874912  82.1267107  27.4656923  15.1532135  81.4132312  28.7738664
  39.0013180 102.2608974  25.0867803  38.2909927 101.6788032  25.3566606
  38.6894379 103.1382301  25.3087003  86.2925419  27.3428480  14.4144495
  86.1196789  28.0495492  13.7924154  86.6644558  27.7824346  15.1790865
  93.4979725  68.4522104  80.6180668  94.2246723  68.0991125  81.1313534
  93.5772038  69.4014645  80.7122517  63.1082138  21.5318338   8.1027372
  62.9414448  21.3791601   9.0328558  62.2950252  21.2746040   7.6682336
   6.0669359  44.5021430   0.7028444   5.8762010  43.6847869   0.2426489
   6.3601765  45.1008979   0.0160177  24.6722088   5.4923643  66.2684774
  25.1129017   5.5584825  65.4213333  23.7400971   5.5508531  66.0587788
  79.9859810  99.8672867  65.0470972  79.4347668 100.6431961  65.1489019
  80.2043915  99.6094704  65.9426737  47.7680858   4.9210063  23.5963781
  47.9044136   4.3764440  24.3716867  47.3695549   4.3311683  22.9564531
  38.6937174  61.4364902  17.5161703  38.5990938  61.7851726  16.6297681
  39.2295774  62.0850459  17.9727323  82.1588421  96.6810799  83.8225842
  82.4375629  95.7748318  83.6911964  81.9194317  96.9872475  82.9478359
  87.6426029  57.3619556  49.8272800  87.2023678  58.1936598  49.6520853
  87.3054314  56.7667913  49.1577053  38.0113087  10.2686513  76.9065905
  38.6320076   9.8240293  77.4838877  37.1776638   9.8255838  77.0645428
  57.3814854  21.0691873   6.3385446  57.7899345  20.4058019   6.8947084
  58.0720981  21.3286678   5.7286604   4.5000016  90.3309059  68.9242601
   4.3967377  89.4976902  69.3839550   3.6346852  90.7377243  68.9685535
  25.0960430  53.7304202   5.8339841  24.7901853  53.1174079   5.1654871
  24.4656500  54.4501583   5.8053644  98.3022785  61.2184858  76.8203306
  97.4612045  60.8718538  77.1181059  98.9525890  60.6260109  77.1975565
  42.3826466  96.3535192  22.1857698  42.3529873  95.7291058  21.4608915
  41.5523682  96.8263891  22.1286924 103.1701279  62.1059513  87.6692486
 102.6521111  62.3575544  86.9046688 102.5299644  62.0253706  88.3763027
  40.0731716 101.5161636   6.8106516  39.9019203 101.2144401   5.9185369
  39.9514446 102.4647310   6.7701872  46.3645252  31.8228618   8.8036306
  46.7076763  31.3349239   9.5522268  47.1332630  32.2450630   8.4201868
  89.8927959  31.4455310   9.7350271  90.5314239  31.0355846   9.1516454
  90.2885994  32.2842494   9.9719198   9.4380604  76.4725351  57.9419947
   9.1226231  76.1272097  58.7771511   9.3615567  75.7368660  57.3343992
   8.2829987  66.2317657  49.7689056   8.3574902  67.1065617  49.3875694
   8.9498841  65.7155323  49.3161345  66.7495823  83.4764671  73.4415579
  67.0906353  82.8007984  74.0275478  65.8501625  83.6179638  73.7369537
  34.8307165  24.9699727  17.1178873  34.0848907  24.6788541  16.5932710
  34.8190388  25.9240905  17.0420416 102.1227360  85.1201153  59.9794197
 102.0482445  86.0107327  60.3221798 102.0755482  84.5604515  60.7545137
  91.5368557  36.1920404  70.1712418  91.7700386  35.3962660  69.6931219
  90.6623936  36.0154510  70.5181837  33.1806978  12.8570119   0.0753935
  33.1316217  13.8112489   0.0183065  33.4326347  12.6839773   0.9824808
  76.4856291  81.8793106  79.4664478  76.8810892  81.0832787  79.8216677
  76.8031931  81.9225883  78.5645008   0.4482971  46.8358278  85.5605316
   0.3313290  45.8897924  85.6475163   0.9412705  46.9424105  84.7469997
  79.2907524  64.0873003  61.6184092  79.7213507  63.2913017  61.3066435
  79.5995760  64.7739029  61.0272741  79.3880447   1.8373767  20.2330072
  80.0228676   1.8337242  19.5166166  78.5850414   1.4916984  19.8432310
  35.1741585  20.8085052  22.6405008  35.0984272  21.6727010  23.0450494
  36.0444769  20.8060113  22.2420461  88.9119705  46.6276828  24.5639856
  88.8327774  47.4142543  25.1036699  89.7342190  46.7453948  24.0882833
 104.1781902  94.5105934  80.6058693 103.7802601  94.9451733  79.8515368
 105.0408554  94.2349529  80.2959156  69.6485313  18.8927547   8.0189760
  69.0614208  19.4084255   7.4661501  70.3347763  18.5912744   7.4236543
  82.5850773  80.8422470  77.4619436  82.5051975  79.8894358  77.4171638
  82.4433613  81.0513496  78.3852100  27.3546730  60.1847553  84.4964314
  28.2641064  60.0924635  84.2124462  27.3719631  59.9696589  85.4289913
  51.0454544  49.0259067  10.6347139  50.9295067  49.9730197  10.7107027
  50.2583965  48.7238685  10.1813371  49.1554413  89.5135000   5.2145345
  48.3828125  89.7900465   5.7072790  49.3394909  88.6300376   5.5336816
   2.4755322  88.9909363  65.4750443   2.2988259  88.8395405  64.5465565
   3.2897316  89.4941330  65.4849625   3.8437401  55.6444263  71.7291927
   4.5154606  55.2608204  71.1653900   4.1091286  56.5585470  71.8300629
 101.6838169  96.7352486  60.2933073 101.6892529  96.3279152  61.1594963
 101.5811825  97.6705551  60.4691124 103.2334995  27.0567846  55.0766230
 103.3324718  27.4566555  55.9406471 103.5334969  26.1554289  55.1940632
  56.3263083  86.1012936  56.4471245  55.5472422  86.6478062  56.5500975
  56.1786032  85.6252193  55.6299543 108.9881109  95.6145981  12.5293977
 108.2618450  96.2235716  12.6632650 108.7521385  94.8433855  13.0449350
  81.0524654  51.4013910  60.3352213  80.7040501  52.0685339  60.9266281
  81.9855785  51.6040897  60.2686310 102.9660702  68.5792589  80.0735188
 103.1633282  67.6542139  80.2205181 102.8263187  68.6471987  79.1290140
  93.8963032  47.2478437  88.5891819  94.7648048  47.4871826  88.9126873
  93.2894230  47.6765728  89.1926003  81.9801903  86.5461826  27.0998836
  82.5216293  86.8061256  26.3545656  81.0828781  86.5838051  26.7687535
 103.4892845  32.4117780  72.4595976 103.0042362  32.2916698  71.6431856
 104.4045162  32.4772525  72.1870136 103.7279034  70.5505943  88.5410881
 103.3115005  71.1015224  89.2039013 103.0682564  70.4637909  87.8529358
  50.7178196  13.3941356  14.4310339  49.9341472  13.2200328  13.9097078
  51.4121994  13.5211889  13.7845476  74.1358137  85.3032494  83.1094837
  73.7582350  86.1151600  82.7711582  74.2570543  85.4669857  84.0447521
  48.1255589  84.1428497  20.0184114  48.0568085  83.9161923  20.9458406
  47.3884831  83.6920669  19.6064050  87.6200104  56.3336945  87.7498055
  87.9110432  57.2437859  87.6926804  88.3862400  55.8206415  87.4930954
  83.2441902  87.0763969  68.6684513  83.2326221  86.5449047  67.8724575
  83.6980724  87.8796673  68.4135199  13.1395375  76.4884901  82.3397064
  12.9424034  76.9342947  83.1634903  12.2851883  76.2179184  82.0033836
  95.9352192  15.8203451   9.2762621  96.8160328  16.1355726   9.4788225
  95.4601654  15.8882276  10.1044805  66.0320171  29.0717975  11.0608347
  66.2336239  30.0059787  11.1145075  66.0259231  28.8815967  10.1227338
  96.3314533  68.8071823  57.7010632  95.6828785  69.5104218  57.6689911
  95.8689117  68.0730104  58.1051445   0.2439152  59.3451929  78.8978863
   0.4158913  60.0336885  79.5402527   0.5340039  59.7169352  78.0648851
 107.9953407 101.1051062  23.1819685 108.7928604 100.9832933  23.6970956
 107.4638389 100.3333643  23.3772810  26.0209595  94.4323921  83.6609650
  26.7244183  94.7089958  83.0737114  25.9387814  95.1488400  84.2903900
  49.6132740   4.8556081   1.0502584  50.1783737   4.6803895   0.2977998
  49.9555477   4.2911617   1.7434271  83.8397980  79.7455025  52.2466898
  84.7122669  79.9070311  51.8876123  83.5156631  78.9893341  51.7574310
  91.1197948  80.3131485  63.1965256  90.1631641  80.2946854  63.1692791
  91.3532162  79.6611166  63.8572836  70.6441641  96.7959785  81.7874050
  70.4302692  95.9130955  81.4857483  69.8042345  97.1665573  82.0583630
 106.6039658  56.4768648  74.0280390 107.1379471  55.8860826  73.4969282
 107.1231461  57.2786522  74.0898275 107.4489212  81.9434547  67.2970581
 106.7005062  81.3715744  67.4675465 108.1381702  81.3521385  66.9945526
  20.9972225  29.4624567  72.6306915  21.8980728  29.7230935  72.8224134
  20.5178582  29.6452665  73.4387922  95.0910950  71.3661766  57.4867201
  94.2869186  71.8797588  57.5626421  95.7572174  71.8985271  57.9215908
  33.5742840  18.6210719   5.1244028  34.4961675  18.3634702   5.1262052
  33.5898241  19.5676652   5.2656515  45.4039844   4.0848438   4.2007311
  45.5567821   4.3790857   3.3027895  45.1595863   4.8796169   4.6749075
  64.1966328  37.3920719  13.3937700  63.7941822  38.2282153  13.6285837
  65.1175960  37.6039211  13.2415064  76.2443924  94.5256042  79.7268105
  77.0077085  94.2855167  80.2521133  75.7013226  93.7374115  79.7192621
  64.0621281  79.7139072  53.8518333  64.3270493  79.3794107  52.9949999
  63.3547926  79.1312075  54.1281843 105.2163029  61.3699961  60.3780317
 105.6744671  60.5648804  60.6190872 105.7173252  61.7191792  59.6409559
 104.6745300  70.2456093  72.0871305 105.2163219  69.4780922  71.9037867
 103.7775707  69.9470043  71.9370413  88.7107738  12.9584972  15.7213457
  89.2490658  12.1709768  15.6420763  88.2956585  12.8794185  16.5802152
  93.6386490  40.0544453  33.2718492  93.0887032  39.2751026  33.1917167
  94.5342159  39.7165418  33.2729840  91.6750526  73.2356548  69.2433786
  92.0791912  72.3694706  69.2946339  92.3605633  73.7989092  68.8841391
  90.3491306  50.8725071  80.1016712  89.6431255  50.2298403  80.1706505
  90.8032608  50.8206224  80.9426880  71.7932463  86.4069462  53.1583071
  72.6738691  86.5646648  52.8179169  71.3688898  87.2645187  53.1313372
  94.4906044  67.8140926  71.1911535  94.0168095  67.0071507  70.9896898
  94.8950386  68.0678654  70.3615332  13.6024628   4.1571439  30.8207226
  12.9537735   4.1131032  31.5232110  14.1236267   4.9337877  31.0243011
  90.2489185  70.2349281  55.0496340  90.6170368  71.1183643  55.0335073
  89.3066502  70.3661203  54.9440336  98.0991840  70.7180882  47.5317764
  98.8981724  70.9528351  47.0598173  97.8317070  71.5274239  47.9672766
  26.9502007  98.8999462  76.2320662  27.3918282  98.9744663  77.0780230
  26.0963570  99.3097878  76.3707066 103.7133503  84.4323349  83.6065483
 104.4965458  84.0466309  83.9990520 103.4957504  83.8468075  82.8812504
   9.4793354  73.0121040  64.1316700  10.2381646  72.8017521  64.6758652
   9.5244347  73.9610100  64.0142870  30.7559143  85.2515411  74.1110086
  29.8028599  85.3159237  74.1724348  31.0417782  85.0684738  75.0059938
   3.2423054  41.5558958  73.1530762   3.9092766  41.0224247  73.5852623
   2.6058327  41.7478275  73.8417673   3.1849324  64.3647289  73.0220318
   3.7334763  64.1323566  72.2728062   2.4735485  63.7244987  73.0057573
  14.6168003   0.1277460  79.0584421  15.4337177   0.0731290  78.5625648
  14.8597679  -0.1256167  79.9489498  99.5586586  82.7920437  69.5069933
  99.0964031  82.0039558  69.2215633  99.5905399  82.7187824  70.4608536
  89.5511627  85.9254932  81.3130188  89.9976063  86.7689419  81.2387848
  88.6732197  86.0880089  80.9680176  35.1692234  69.4742966  52.2204018
  35.4815613  68.6269045  51.9032240  35.3012501  69.4389009  53.1677914
  16.1283360  93.7276247  25.9867437  16.2916718  92.9768684  25.4158552
  16.9750557  94.1696527  26.0492857  52.8058513  22.9470436  11.0065420
  53.5713943  23.4868757  10.8096655  52.0831570  23.5712282  11.0723550
  73.6675819  21.6349450   9.0097292  72.7704033  21.5859739   9.3397386
  74.0760216  22.3281280   9.5282800  58.1607663 101.8238258  64.8996830
  58.4021412 101.7158699  65.8196354  58.6833988 101.1691666  64.4365215
  14.6156155  62.1838713  83.4417343  14.3027722  62.3991871  84.3203735
  13.8926350  61.7005253  83.0418491  51.8943167  98.3827877  72.8286839
  51.1964369  97.7351284  72.9273033  51.4410305  99.1863918  72.5737667
 100.9489727  57.9549551  75.0460529 101.6161156  58.5524607  74.7082186
 100.2174187  58.0425930  74.4350004  70.0948318  34.4067375  20.1723058
  69.3575558  33.8056365  20.0658662  69.6967110  35.2228347  20.4751356
  65.7777485   1.9523469  32.7589471  65.5406841   1.0261766  32.8062017
  65.1841625   2.3832027  33.3739622 104.2384815  54.7135782  73.0988455
 104.1654396  55.5211878  72.5902557 104.9204445  54.8980999  73.7446880
  39.5393022  18.0056373  13.3586462  39.6650060  17.9576579  14.3063409
  39.5675834  17.0944349  13.0668504  21.5017926  87.1296883  75.2271318
  21.2271057  86.4583397  74.6025848  22.4189793  86.9258118  75.4099751
  83.5808659  38.7873173  57.5960445  84.2614365  39.3700480  57.2591734
  82.8725815  39.3741941  57.8608847  18.4354817  73.9193058  73.5702991
  18.8852154  74.5328999  74.1512203  18.0012451  74.4759274  72.9238892
 101.6901993  91.4930346  25.0081594 102.3740362  91.2053802  25.6130178
 101.5912985  90.7649544  24.3946893  17.2193466  77.7300262  78.8049984
  17.6770531  77.2632647  79.5041943  17.7105271  78.5447884  78.6994839
  93.2564449  35.3732133  30.1934147  92.9609776  34.8802614  30.9588742
  92.4643707  35.5033493  29.6719670  75.1716408  21.8316451  26.4058263
  75.4814609  20.9659330  26.1397703  74.6604523  21.6698400  27.1987589
  97.0889282  72.6095724  55.6192493  97.7786732  72.6708174  54.9583912
  96.4287376  72.0400000  55.2243328  30.6988751  84.4103813  66.4977360
  31.0455262  85.2290535  66.1430025  31.0341297  84.3765926  67.3936701
  98.7835884  34.8182034  44.0555573  98.0755711  34.1757345  44.1022968
  98.7241173  35.1761436  43.1697941  66.3449081  33.8887016   1.6455038
  65.6504902  33.6939708   1.0161455  66.8878063  34.5444194   1.2078722
  37.7627643  15.5281392  25.3827627  38.2147201  15.0416747  26.0721929
  38.2385382  16.3565580  25.3228624 103.3300591 102.1607780  75.4011106
 102.4465847 101.7948151  75.4433298 103.2841396 102.8179741  74.7066975
  23.3732853   6.3738836  88.4333992  23.2133064   6.7840684  87.5834656
  22.6366386   5.7743753  88.5524654  71.4343023  73.7036848  66.0116100
  70.9781075  73.5430145  65.1855946  72.1375895  73.0545473  66.0270119
  60.3240093  24.8783342  12.1763380  60.0921997  25.4039470  11.4106901
  59.7344192  25.1853744  12.8650625 108.2071495  79.3312216  73.3728361
 109.1549110  79.2341805  73.4653902 108.0052853  80.1515293  73.8229132
  49.9618111   8.2154096  83.1693935  50.4441795   7.6596464  83.7814999
  50.1436672   9.1083635  83.4623051  51.0233101   4.3342058   8.3250291
  50.3232178   3.6816112   8.3401163  51.5371784   4.1524354   9.1118772
  47.1349129   5.8238880  11.2799032  47.5799927   6.5689222  10.8761079
  46.2086757   5.9622089  11.0819299  88.6518192  41.9294882  77.9398537
  87.8002930  41.9870329  77.5064707  89.1007710  42.7383709  77.6941299
   8.0866944  56.1714315  86.8763924   7.6517140  57.0155764  86.7562294
   8.4309326  56.2042713  87.7689457   4.8269116  77.7588034  78.0000210
   5.7006108  77.6518011  77.6239491   4.7366749  77.0255280  78.6086226
  97.9672813  64.2667723  76.5121794  98.2436657  64.0496063  77.4025059
  97.0929432  63.8853312  76.4330578  86.1284065  69.4814968  64.0346193
  85.8413601  69.9707031  63.2635689  86.7199802  68.8135910  63.6879587
  19.5324265  65.1616383  78.8932276  18.9449631  65.8889198  78.6878633
  19.2441593  64.8564625  79.7534609 104.5057201  83.0882168  81.0208797
 104.2316437  83.8759708  80.5512428 103.7459278  82.5075626  80.9784794
  40.5473312  10.8581773   3.7840040  40.1165756  10.7583610   4.6329553
  40.4060825  10.0200549   3.3437402  64.4675875  76.5561771  67.7715540
  63.8858604  76.4696264  68.5267591  65.2859354  76.1459732  68.0513334
 105.1041126  34.7440314  75.6875515 105.9034538  34.3948722  75.2933788
 104.5617867  35.0009346  74.9418211  68.8995441  41.4539234  26.7793043
  69.7378429  41.8332664  26.5155180  68.4827789  41.1983005  25.9563787
   9.9055802  59.9114704  76.3478756  10.7333027  59.8401928  75.8724499
   9.5215451  60.7318640  76.0384989  76.6759571   2.1942941  22.3271616
  76.5099605   1.3862363  21.8416460  77.6282486   2.2901718  22.3142011
  52.6775631  38.6389057   1.9722898  53.6316856  38.7073032   1.9376619
  52.5124534  37.7513210   2.2903688  96.5407944  75.1539278  39.5991182
  96.7559624  74.5708227  38.8711572  95.9052086  75.7691574  39.2333865
  68.9584526  41.8339721   5.2866323  68.1736168  41.3287822   5.0743826
  69.2801937  42.1436588   4.4399889  48.7355026   5.1731626   5.9879644
  48.9412292   4.2588893   5.7929857  48.5388359   5.5614702   5.1354559
  93.8207722  68.9075375  76.4624548  94.6565437  68.5311460  76.7382288
  94.0543461  69.7505474  76.0738468  97.8493118  62.1702480  63.6126900
  98.3447933  62.3674107  64.4075871  96.9341755  62.1759939  63.8932657
  96.1363506  79.2341232  78.6097765  96.0697079  78.2964516  78.4293222
  96.6638756  79.2877674  79.4066858  40.7447087 102.2538757  80.0589180
  39.9102246 102.5745487  80.4010391  40.5007016 101.5736580  79.4312286
 102.0629597  67.4521446  70.0933170 102.8363132  67.0974398  70.5318832
 101.4715099  66.7043114  70.0086737 103.2975197  53.8100815  52.5421619
 103.2305431  53.7689590  53.4961319 102.4725819  54.2058897  52.2609901
  30.2536831  15.4830469  77.6169682  29.8924503  15.1419939  76.7987823
  29.9244080  14.8880208  78.2905769  11.1397873  93.9634991  70.5762911
  11.6247021  94.6515369  71.0320187  10.4864918  94.4337845  70.0583410
  46.5953811  51.8581859  13.0529459  46.4737018  52.8062717  13.0022676
  47.5417122  51.7423908  13.1382711  11.3450466  41.8943453  61.0256577
  12.0455872  41.4921331  60.5121326  11.2533032  41.3271189  61.7912102
   5.5064522  61.1141777  52.6704884   5.8533226  61.8143559  53.2233572
   6.2754666  60.6000805  52.4244070  16.4957390   9.5398534  62.3129988
  16.6351471   9.1414846  63.1721210  17.0344696   9.0191568  61.7172813
  63.1603226   9.9794952  16.6323049  63.2143577  10.9004775  16.8874509
  62.6239475   9.9816743  15.8395059  73.1261143  35.0216190  25.6350191
  74.0719875  34.9238864  25.5254228  72.8854736  34.3376819  26.2599619
  72.7209663  68.7748384  72.8842163  72.5885057  69.2404747  73.7099695
  72.8588724  67.8635406  73.1425762  68.3815559  36.6629211   1.4733846
  67.6605591  36.7012779   2.1018083  67.9651817  36.8001262   0.6224783
  99.3385792  94.3407154  83.3558846  99.7973347  94.4424915  82.5219727
  98.5510731  94.8768330  83.2630253  89.9409389  93.5447693  82.2804165
  89.1966438  94.1115379  82.4829769  90.4914188  94.0705681  81.7001343
  88.5953903  49.1541290  87.7560234  89.3072319  48.5986042  87.4383640
  87.9478168  49.1400290  87.0512676  99.5839024  93.9215279  66.3764429
  99.8017502  93.0126667  66.5832090  98.9341927  94.1678333  67.0348120
  93.0993843  44.1111851  61.7212105  92.5397587  43.5136509  62.2171974
  93.9132786  44.1495705  62.2235489  74.0932068   7.6787034  40.2505739
  74.6759209   6.9213907  40.1944692  73.7333187   7.7698747  39.3683012
   9.5156418  66.7286348  75.2174711  10.2866684  67.2690916  75.3896999
   9.8400151  66.0179377  74.6643639  83.7271786  52.3661327  87.4077892
  84.1005993  53.2471418  87.3831177  83.3039474  52.2614384  86.5556431
  78.4123516  82.2979736  33.3273053  78.5033894  83.0062675  33.9646840
  77.7493191  81.7198849  33.7047195  73.8394165  85.4144859  71.9596100
  73.2766867  86.1809254  72.0697880  74.1486311  85.4723549  71.0555792
  27.0915852 100.9620836   9.2013509  27.9720650 100.7885292   9.5343359
  26.9844589 100.3471926   8.4756334   2.6357304  64.8923683  86.1625576
   1.9272839  64.5927238  85.5928707   3.4353291  64.6920633  85.6759834
  77.9756149  34.4525424  11.0686929  77.5921806  34.3633834  10.1961954
  78.8701137  34.1258899  10.9717329  61.9231876  22.6638595  12.5865801
  61.4322742  23.4761325  12.7108724  61.2716659  21.9711534  12.6957185
  59.6961578  15.3898136   3.3495386  59.0168556  14.7251312   3.4634931
  59.3065056  16.1924020   3.6963232   3.1941353  63.2616425  55.4691696
   3.1531845  62.9240751  56.3639355   3.5906922  64.1282845  55.5580521
 109.1925335  58.2900238  34.1766310 109.6464252  58.8628340  34.7947764
 108.8492489  57.5785160  34.7171354  18.1735646  58.3529186  44.2474318
  17.8539406  58.7947607  45.0340986  18.1750428  57.4239922  44.4783401
  81.5568829  51.3061714  82.0854187  82.3938751  51.7148447  81.8648052
  80.9144592  51.7719603  81.5501118   4.4478833  89.4033146  74.0053082
   3.6405121  88.9713097  73.7264824   4.8141419  88.8203239  74.6702957
  14.4153057  71.6940594  62.0244169  13.9719712  71.8341827  62.8611088
  14.0508877  70.8725739  61.6948891  51.1915169  96.0807302  14.4536264
  50.8666191  95.8816936  13.5755308  51.7637310  95.3444937  14.6698721
 101.6690826  23.8375068  57.7092123 102.5726604  23.8238621  57.3936176
 101.1450672  24.0134764  56.9277525  73.2412004  55.7861710  74.0904379
  73.7037468  55.1206017  74.5996475  72.3147678  55.6202173  74.2648363
  58.1257519   2.1318761   2.4124773  58.6373314   1.3401739   2.2459657
  57.9645714   2.1188823   3.3559187  59.1018543  97.0416859   1.5356023
  58.8647041  97.2767189   2.4326856  58.6883793  97.7143505   0.9944971
 101.4620590  47.0667315  19.7826612 101.8875790  47.1348190  18.9279509
 100.6047153  47.4732494  19.6564472  83.5452843  61.5501738  80.7787514
  83.5542488  60.8157444  80.1649380  83.6167336  62.3269033  80.2239418
  27.4657186  40.1329414  28.9390428  27.7540001  40.5508891  28.1275900
  28.2288679  40.1765815  29.5151765  41.3530811  12.2175876  34.6776350
  42.2783598  11.9913093  34.7719152  40.9173330  11.3810436  34.5146902
  86.1195087  82.2564888  88.1230640  86.0162830  83.1858730  88.3275509
  85.9885120  82.2035599  87.1763420  83.2682133  95.3270817  87.4807739
  83.7949467  96.0633373  87.1697807  83.1337833  94.7838497  86.7042065
  99.6001434  72.4456549  88.3113670 100.2662373  72.2916698  88.9813232
 100.0794697  72.8417492  87.5836468  20.0692784  56.7467785  61.0853863
  19.9837719  57.4826050  61.6915894  19.9317681  57.1321440  60.2200413
   2.5774990  62.5513649  88.8423538   1.7106568  62.9441643  88.9449406
   2.4494492  61.8526745  88.2007313   5.8845650  95.8220863  62.4699974
   5.2575432  95.8201790  61.7467594   5.3420006  95.8678627  63.2572508
 106.8163109  85.5273628  47.0715857 106.1826038  85.9652805  47.6398087
 107.2779846  84.9207687  47.6504898  28.0049667  22.9480184  47.3512125
  28.0039558  23.8120759  47.7630806  28.6051617  22.4284471  47.8860521
  25.0693687  40.5357639  12.2797640  24.9770054  39.8196403  12.9081495
  25.4861006  40.1334754  11.5177114  88.4926399  19.8315135   7.5722368
  89.0627941  20.2528945   8.2153471  88.1372532  19.0696803   8.0299909
  71.5811428  30.5870239   7.4445875  71.7844662  29.6541015   7.5121076
  70.6247600  30.6231681   7.4285658  38.8041195  19.4050733  30.9593637
  39.4320616  18.6990920  30.8060320  38.1381162  19.2844383  30.2825124
  79.0927744  59.2934942  60.3310585  79.1512775  58.3400488  60.2697945
  78.2465219  59.4552231  60.7481098  93.7733459  90.1884460  51.7622805
  94.2832661  89.6863461  52.3979759  93.0601120  89.6018410  51.5104342
   6.7259442  88.7206745  83.7899876   7.6308380  88.9154625  83.5461617
   6.3235508  88.4017944  82.9821301  96.6304684  50.4356050  71.7785454
  96.8738174  51.3516998  71.9119120  96.1373997  50.4357624  70.9581137
  30.2513393   0.7453863   4.5434911  29.7691902   1.4109794   5.0341566
  29.5798525   0.2867834   4.0385015  33.2402706  85.5647755  56.4508009
  32.8374457  86.3775921  56.1453819  32.6112080  84.8826599  56.2157917
  42.2691116   6.6477884  83.3831406  41.4911041   6.5522779  82.8337574
  42.1987114   5.9396089  84.0232658  48.5530170  11.4615241  24.0165956
  48.5972771  12.0980779  23.3031042  47.6775059  11.5763704  24.3860681
  84.7855854  52.3342943  62.0589733  84.4104671  53.1334639  62.4288940
  84.4579124  51.6329861  62.6220274  29.2569122   8.0525030  81.1518288
  30.0456867   7.7736009  81.6168880  28.5985146   7.3971094  81.3825035
  61.1439276  68.4952116  79.7988319  61.3077879  68.1334877  78.9278889
  61.7654371  68.0409241  80.3676701  56.1978684  15.4769529  80.6433582
  56.8545113  16.1589063  80.5019951  56.6222630  14.8545469  81.2338924
  94.9900627  78.8559055  84.2769527  94.4142532  79.0862322  83.5478306
  94.7827530  77.9407501  84.4660187 108.6700043  68.9354507   6.2753160
 108.6177334  68.1691924   5.7040460 108.1587681  68.6937515   7.0476205
 108.6410354   8.9480604  83.4682178 107.7888225   9.3494810  83.2984352
 108.5162996   8.4551347  84.2792034  88.6718941  97.7237511  29.8091745
  88.1485462  97.5935745  30.5999875  89.3905830  97.0969200  29.8917103
  95.2347835  37.9955474  16.9850595  95.2144607  38.7697307  16.4225156
  94.4993099  37.4617187  16.6844995  12.6057755  98.5735035  82.5408459
  12.3726116  98.6877918  81.6195393  12.1891247  97.7494335  82.7929115
  76.2109073  41.8181411   0.4705389  76.3403972  42.6766578   0.0675352
  76.9887527  41.3178913   0.2236707  22.7126061  91.0471916  78.5635376
  22.2090660  90.3627014  79.0041637  23.6267029  90.8024311  78.7076139
  82.4360832  67.9653636  13.4134157  81.8996033  67.6034252  14.1186960
  81.9207367  67.8174964  12.6204546   0.3917729  71.2954473  56.7303705
   1.2026154  70.9696865  57.1210670  -0.2984298  70.9826326  57.3151779
  83.6636432  28.0781595  20.8018930  82.8776249  28.4641353  20.4153211
  83.3315166  27.4561683  21.4492376  39.8216782  19.0831579  68.0029917
  40.1373634  18.5707963  67.2586441  40.5469856  19.6711076  68.2138968
  13.8845383  89.1337967  74.0193605  13.0287873  89.3822384  73.6697960
  13.7820469  88.2169437  74.2745018  92.4191475  93.3213806  86.9166470
  93.1929302  92.7864361  87.0936394  92.0269203  92.9251480  86.1385822
  93.4146595  70.0231695  68.8392401  94.1190529  69.4612646  69.1622448
  93.8334179  70.8711195  68.6913872  20.7680641  97.2212601  67.5451803
  20.9544789  96.3647461  67.1606350  20.0065075  97.0716476  68.1054306
  88.0737972 102.2112179  87.1935844  87.6948833 101.4621735  87.6535702
  87.7506447 102.9746342  87.6721191  30.0868950   8.7250055  69.4963074
  30.8302078   8.5910810  70.0843382  29.3180237   8.6526693  70.0618553
  80.4157162  85.0280571  84.4650459  80.0643826  84.3982029  85.0944042
  81.0297108  84.5198822  83.9349556  45.7132374  81.0145473  71.3475513
  44.9409615  81.3257217  70.8753395  45.7382332  80.0738621  71.1722898
 104.5828422  58.6041442   5.2099760 104.9323639  59.4949428   5.1866586
 105.1246818  58.1179134   4.5885141  64.1777500  40.9785262   5.1828153
  64.5054325  41.2292568   4.3191106  64.6155247  40.1489345   5.3735216
  61.9512924  31.0292808  40.6395109  61.4844116  30.3966895  40.0935514
  62.5500950  30.4973785  41.1636694  36.2476956  75.6391287  63.6678505
  35.7702671  75.3215981  64.4343138  36.3555275  74.8650503  63.1152153
  49.3848404  32.0475189  17.9187639  49.4779667  31.9826976  18.8692148
  48.9455875  32.8862182  17.7778013  25.5922924  86.1128998  85.0336456
  26.5129601  85.8680630  84.9406338  25.4478012  86.7660236  84.3489742
  30.9439884  97.4513245  78.1070089  30.5353867  96.5868282  78.1508160
  31.2393986  97.6222134  79.0013027   8.0188977  47.2282124  65.5690908
   8.2266842  46.9517517  66.4616299   7.0657765  47.3161983  65.5613661
 107.9635048  52.0214176  80.0339890 108.7836838  51.6474342  79.7120190
 107.6461029  52.5614691  79.3102217  71.1199650  29.1705505   0.9847410
  72.0215401  28.9836971   0.7230814  70.8799156  28.4403745   1.5552290
  81.1349487  67.2031021  88.0303669  81.0439205  66.2785625  87.7997780
  81.0559654  67.6667786  87.1967030  81.8730530  45.2510921   2.8119333
  82.4473461  45.0258438   2.0800264  81.5009579  46.0997478   2.5720174
  38.3498440  22.7861513  76.9536448  38.2114468  22.9909051  76.0289001
  39.2715702  22.5336946  77.0077181  16.2390839  98.6731243  47.8161287
  17.1356045  98.5527039  47.5030899  15.6985985  98.5972023  47.0297861
  27.8792321  50.5071735  36.6136694  27.0103203  50.7670212  36.3075757
  27.7100788  49.8263168  37.2648597   8.3397805  54.2075014  79.8525572
   8.8987862  54.9804497  79.7731495   7.8992020  54.3161058  80.6953621
  55.9659084  32.9552452  20.3450639  55.1820072  33.4786884  20.1785143
  56.0387977  32.9299919  21.2991483  33.2912026  19.0720285  59.5106697
  33.6904202  18.2533277  59.2164230  33.8755665  19.7551645  59.1819096
  28.1372604  14.3316377  30.7724547  27.4302254  14.9766935  30.7573700
  27.9626522  13.8030447  31.5511298  63.9408398  83.6908436  74.0639162
  64.0510273  82.7675343  74.2910814  63.0040836  83.7848091  73.8910151
  84.2977524  69.2545605  79.3234062  83.4699440  68.7749100  79.2932463
  84.0426636  70.1624727  79.4872952  47.4896774   2.6309217  86.7273235
  46.7865143   2.7207006  87.3705482  47.4400673   1.7179311  86.4440918
  43.9128670  23.3076421   7.3281534  44.4548973  23.7582675   7.9757459
  43.1096634  23.0871526   7.7998312  44.3599781  28.1838075   1.0251768
  44.7111877  27.6258603   1.7191370  45.1019462  28.7242690   0.7538374
  54.1593536  15.1078550  26.3838251  53.6403545  15.1001827  27.1880682
  55.0616058  14.9872581  26.6798551  74.6353865  65.6433916  54.0662670
  74.9399614  65.7454824  53.1645775  75.3148508  65.1195669  54.4907236
  79.0204382  74.9623013  86.3842010  79.1201544  74.0467978  86.6452503
  78.4952307  74.9275541  85.5847168 105.0554466  83.0483055  63.5282707
 105.9253693  83.3427143  63.7980652 104.4522285  83.6407375  63.9770269
  10.5631790   4.9600233  64.7971869   9.7042522   5.3582490  64.6560955
  10.4170570   4.0230382  64.6670389  91.3790512  82.8236961  51.6253710
  91.1655426  83.7509918  51.5215588  92.1628189  82.6970577  51.0906649
  65.3795418  24.5579997   3.3067854  65.1427540  23.8685695   2.6864298
  64.6404537  25.1657955   3.2829912  69.0823158  46.7916385  13.6979635
  69.6779903  46.1298171  14.0492399  69.1648468  47.5316135  14.2995126
 105.8607388  52.6570845  46.3905478 106.7341614  52.8837252  46.0711861
 105.6161690  51.8799591  45.8880568 101.3595486  99.7476292  60.8402061
 102.1601486  99.6956348  61.3622904 100.9866714 100.6019020  61.0579443
   7.5640354  14.1327489  77.9354906   7.6469956  14.9522699  78.4230661
   7.8630409  13.4592546  78.5464239  68.6168823   8.5343374  55.4799461
  69.2530308   7.8470529  55.6779146  69.1408310   9.2482007  55.1164961
  55.8311066  27.0828906  15.2555902  55.8351120  27.2994748  16.1879594
  54.9276241  27.2347680  14.9782999  27.3438629  43.9558116  14.2775114
  28.2696232  43.7916175  14.0979631  26.8847975  43.2346622  13.8468988
   6.8883549  70.0679207  74.6368980   6.1061417  69.9013758  75.1628733
   6.5522896  70.4203653  73.8128376  74.9566444  26.3110773  10.6848867
  74.3215259  26.1223165  11.3756998  75.8069881  26.2633983  11.1217649
  88.0980015  78.2809448  77.5931978  87.9472160  78.5470152  76.6861725
  88.6994648  77.5391388  77.5283623  97.0748520  52.5700092  75.6482840
  97.1978188  53.0004358  76.4943600  97.7813721  51.9258356  75.6023502
  66.6019138  11.5382568  24.6451910  66.0785374  12.1710817  24.1534097
  66.8827423  10.8992235  23.9902074  96.0261822  67.6114082  66.1832571
  95.1787949  67.4898434  65.7550144  96.5538883  66.8707418  65.8846474
   7.2162949  91.0476780  85.1871490   7.5532948  91.4988613  84.4131374
   7.1045052  90.1397324  84.9054241  76.9058657  78.8136530  49.7381735
  77.1035480  79.7181940  49.9809790  76.8078518  78.3572960  50.5738544
  97.7859768  76.3264743   2.2397573  98.0737289  76.4532081   1.3356741
  96.8504032  76.1369220   2.1689947   8.6194645  74.6685886  40.2370453
   7.8545414  74.5919180  39.6667290   9.3093907  74.1894150  39.7781062
   9.0186535  85.4830551  87.4902534   8.6390148  85.9923840  86.7742348
   8.5169922  85.7444954  88.2623959 107.4860096  78.6852026  63.3979654
 106.8555641  78.6760950  64.1181707 107.5808907  77.7652740  63.1510687
  66.4653572  35.5924980   6.3982828  65.8782467  35.4366866   5.6585176
  66.9049820  36.4158145   6.1858709  58.5274395  27.6274148  18.5001047
  59.1708645  28.1663743  18.9602811  59.0515312  27.0528833  17.9420049
  75.8907780  28.7164203   4.2234190  74.9725517  28.4555189   4.2943437
  75.9691509  29.4761459   4.8003919  51.4876732  38.8696090  13.3341749
  51.5565094  38.9838878  14.2820318  50.7537922  38.2660858  13.2183607
  63.2582378  70.2995825  66.9081068  63.5226440  69.8427868  66.1095715
  64.0163183  70.8363914  67.1391439  27.6710758  87.1345141   0.9648378
  27.9787026  87.8103497   0.3608186  27.8288040  86.3109377   0.5032308
  27.8800797  13.3637893  36.0077620  28.7647629  13.3923495  36.3721108
  27.7420378  12.4429476  35.7858920  55.7060766   7.8737587  68.8380575
  56.3613129   7.7905411  69.5308590  55.1545811   7.0974880  68.9354849
  16.2215639  90.7809114  47.1510696  16.6890169  90.4750263  47.9283428
  15.3264500  90.4630887  47.2693682  87.3642706  73.7894657  10.0759561
  87.2089504  73.5801652  10.9969957  88.1907724  73.3539679   9.8674543
  68.2239151  23.2042456  75.2130842  68.5566235  22.3179054  75.0718737
  67.3261309  23.1786394  74.8820829  44.3265702  79.5811402  60.5342627
  44.4337441  80.2528225  61.2077522  43.4561421  79.7433745  60.1705694
  51.4135170  16.9776106  81.3059521  52.3555231  17.1417725  81.2622261
  51.1449099  16.8791163  80.3925037  35.9324290 101.9541948  83.7098408
  35.5011154 101.4679845  84.4125557  36.8017079 102.1554343  84.0563869
  64.1359377  12.8249705  74.6574593  63.8053036  12.3817086  73.8761568
  64.7524500  13.4753215  74.3210268  32.2244382   3.6602429  48.2596636
  32.6781058   2.8323907  48.4180260  31.3071489   3.4725571  48.4586239
  44.5322037  20.2507758  50.0392723  45.2540588  20.4238939  49.4349670
  44.2994356  19.3363094  49.8786354  63.4632756  83.8540756  79.4995785
  62.6154591  84.2141472  79.7599411  63.3285023  82.9064523  79.4906950
  23.0046536  71.7599236  30.2769089  22.8938938  72.4257266  29.5981836
  22.2118450  71.8262707  30.8091521  39.2883707  79.6140181  32.2680521
  40.2256180  79.4804060  32.1268153  39.1097666  79.1898405  33.1073403
  71.1394930   8.0874574  57.8734064  71.1514759   7.1478724  58.0558014
  70.6726789   8.4697545  58.6164856  44.5877647   7.8379804  74.7103262
  44.6673536   8.7072664  74.3175936  45.2800226   7.3233867  74.2953491
  36.1288716  89.0790557  73.5488272  36.6368462  88.3532690  73.9113474
  36.3883473  89.1167199  72.6282358  77.6512527  12.6704609  23.0953646
  78.5050392  12.6174903  22.6658654  77.8279734  13.1121540  23.9259720
  10.0910530  65.9746995   3.8102873  10.1001701  65.0766471   3.4791525
  10.5264435  65.9207204   4.6610220  67.9548407   1.3736211  60.8729839
  68.0544615   1.5577334  61.8070126  67.0779562   1.6917957  60.6583405
  92.1425031  43.3093312   4.7539671  92.0011829  44.2554155   4.7195299
  92.7631496  43.1339660   4.0466650  93.9067736  79.2492734  57.9823971
  93.7154117  78.8622152  57.1281147  93.0473723  79.4569932  58.3491564
  13.6201264  87.1404373  82.9824829  13.5258747  88.0868660  83.0902863
  12.7237536  86.8205666  82.8803635  88.6094761  38.7313128  75.5085135
  89.5468616  38.9213634  75.4709816  88.3953285  38.7653542  76.4408302
  28.4864022 102.8319664  68.9133453  28.3468510 102.9801063  69.8486567
  27.6898218 102.3900667  68.6193705  82.8404735  51.2629548  22.1937330
  81.9104122  51.4513455  22.0683248  83.1734585  51.1021750  21.3108404
  64.5201969   3.2282534  75.1970816  64.3844652   2.2854030  75.2911139
  65.1355934   3.4524384  75.8951187  62.6679277  24.2341113  83.5434151
  63.2757473  24.4488096  82.8358173  61.9448709  23.7816453  83.1090260
 106.1247921  29.6846151  60.7352734 106.6373444  30.4266715  61.0560179
 105.4681110  30.0777173  60.1604033  45.6261683   2.0858744  81.9506454
  45.0697613   1.7984632  81.2267399  46.4803839   1.6955383  81.7657566
  88.7098503   3.0996600  35.4802465  89.0689278   2.2520226  35.7425499
  89.4180584   3.5188895  34.9914551  77.4051762   9.8700714  49.9685287
  76.7372465  10.5536890  50.0211191  77.3546648   9.5547730  49.0661621
   6.8319140  61.1666360  11.2914236   6.6521082  60.2827117  11.6117056
   6.0601864  61.6740671  11.5427930  14.3657360  42.9024479  10.1779611
  14.5539913  42.4896499  11.0208089  14.9990139  42.5141129   9.5743234
  54.1833258  22.7951860  37.9985285  54.9379826  22.3239064  37.6455116
  54.0838051  23.5534644  37.4229050  64.8742485  18.9097917  60.8593941
  64.5437527  19.7196901  60.4707193  65.6023169  19.1899991  61.4140415
   7.5781307  60.1755395   5.1923521   7.7962647  60.4155710   4.2917688
   7.3271713  59.2532882   5.1403291  67.5512791   4.5179519  55.4652739
  67.4675274   3.5938701  55.7004118  68.4953928   4.6684411  55.4179716
  74.0960693  10.0413561  58.8879490  73.8939571   9.8097694  57.9814482
  73.2810259  10.4102385  59.2283344  68.3791732  59.5772961   0.2103193
  68.7401294  60.4626623   0.2558096  67.4562405  59.6827605   0.4411943
  82.9476643   5.4475582  60.4719019  82.4261189   6.2494004  60.5075216
  82.8805161   5.1583838  59.5619011  16.4005146  81.9037297  11.8360670
  15.5911694  81.7877272  12.3337991  16.8272934  81.0476067  11.8699033
  32.0013691  85.3070592  76.5411425  32.1809222  85.4578959  77.4691725
  32.7244927  84.7547864  76.2439585  75.2250862  14.2419863  52.3245001
  74.4407415  14.3927372  52.8520489  75.9523678  14.3888772  52.9292440
  49.3138027   2.3642135  82.7283478  50.1749611   1.9562523  82.6377392
  48.7193394   1.7742652  82.2648716  10.2046356  74.1224673   2.4805982
  10.8790360  73.4977177   2.2139413  10.6653271  74.9589899   2.5455911
  19.2292286  79.4197594  81.0832119  20.0481154  78.9242112  81.0923290
  18.7347533  79.0789925  81.8286037  46.6110897  40.7820368  33.1353498
  45.8493519  41.1667681  33.5689092  46.5302563  41.0557222  32.2216797
  70.3494167  14.1742277  80.0162983  70.5004025  13.4959519  79.3579865
  70.7260370  14.9669325  79.6341896  83.9410400  34.2349267  49.4611073
  84.2630005  33.6498952  48.7753153  82.9901218  34.1273713  49.4407272
  63.5202456   1.6756555  28.8025022  64.4522238   1.4688648  28.8723826
  63.3931875   2.4133021  29.3991303  37.5736738 100.2470832  81.1542416
  37.0511175 100.4084384  80.3686619  37.4156309  99.3261766  81.3620472
  50.3437805  43.4611273  84.6696281  50.5397844  43.4949350  83.7333298
  50.5614042  44.3358803  84.9916267  29.8743225  97.8180604  52.6828623
  30.6645132  98.2048242  52.3057079  29.3617083  97.5344383  51.9258833
  85.0806713  46.0480928  60.4003096  85.1963520  46.6541719  59.6685171
  85.1362038  46.6006136  61.1799717  83.7155247  30.5832458  87.8416061
  84.2028141  30.5226016  87.0199585  82.9570580  31.1277151  87.6306248
  -0.2637838  75.9496271  55.8206463  -0.0994776  76.6403090  56.4626694
   0.4502178  76.0351001  55.1888800  48.8466978  18.0926716  71.8434000
  49.0580654  18.4502923  72.7057552  49.5018053  17.4096084  71.7002439
  73.2584333   5.0617164  52.7040720  73.7182093   5.5304879  52.0075893
  72.5790596   4.5636430  52.2495317  66.1729527  17.5548303  78.9510536
  66.5579939  16.7897952  79.3784857  66.9034243  18.1648517  78.8485003
  78.5630083  12.6106739  72.9151773  79.3185043  12.8072977  72.3612881
  78.1650066  13.4636712  73.0890274   9.1539704  56.6824627  79.0849829
   9.9713074  57.1574163  79.2353630   8.5113655  57.1317863  79.6339846
  55.6138849  18.1615949  78.0828047  56.0214710  17.3585975  77.7582979
  56.3269329  18.6364996  78.5097265  77.6508379  31.5120625  64.5000458
  77.7333689  31.0624433  63.6590576  76.7070055  31.6000342  64.6329927
  56.0101391  93.3719533  49.2045450  56.1875511  92.5229584  48.7996197
  55.1038624  93.3088081  49.5060492  28.0243040  97.8955161  54.7960949
  27.5714613  98.7320267  54.9029446  28.5834194  98.0220371  54.0295315
  21.2036920  36.0954475  88.8450623  22.1315694  36.1014104  89.0801048
  21.0861254  35.2820182  88.3544064  56.6287136  24.9097872  61.9643211
  56.4789677  24.5761585  61.0797310  57.3629045  25.5167103  61.8703032
   1.7822243  86.7708205  29.6064639   2.5077845  86.5049898  29.0415478
   1.2800075  85.9678351  29.7451234  34.9118448  97.4733709  27.4304605
  34.1619374  97.9627900  27.0923185  34.7139860  96.5596973  27.2248292
  56.9497490  17.5017023  46.5034819  57.9038906  17.4870491  46.4284039
  56.6425180  16.9954908  45.7514286  57.0141649  29.5634055  53.6929131
  57.2961330  29.2868590  54.5648336  56.3037682  28.9622021  53.4690237
  98.0748501  82.8986203  82.3498535  98.9750876  83.1997990  82.2269917
  98.1623545  81.9808089  82.6071358   2.5438262  83.2309782  52.7989912
   2.1633459  83.4894239  53.6384392   3.4817148  83.1547474  52.9744482
 105.2871441  76.1638954   0.0467451 105.0523876  76.3504413   0.9557684
 106.0491012  75.5879476   0.1095064  51.2484646  25.6928015  55.1682663
  51.1432266  25.8604121  54.2317486  51.0463619  26.5301681  55.5856419
  75.4042721   1.0221051  39.0444851  75.5542564   1.4810409  39.8709941
  76.2334204   1.1011013  38.5727763  74.4220448   8.9879721  87.6406670
  74.2902040   9.1467196  88.5753632  75.1177883   9.5958233  87.3902893
  73.2208347   6.9558096  62.2300386  73.2923937   6.3380951  61.5023422
  73.7540340   7.7042645  61.9621849  15.2368507  77.0784667  10.7568891
  15.8202992  77.5622085  11.3415392  14.5737228  77.7180818  10.4972990
  38.8554430   5.9027886   6.1760288  39.3019366   6.1892575   5.3792781
  38.1879997   6.5713710   6.3301301  70.9827995  30.0428724  67.0187140
  71.3781309  30.6393051  67.6544905  70.3068638  30.5659318  66.5877247
  73.8812256  17.5352526  64.3669319  73.1106901  17.2764099  63.8614607
  74.6235180  17.2311544  63.8446665 102.5475858  56.3924151   3.1431158
 102.1293091  56.7206040   3.9390905 101.8392061  55.9706893   2.6567228
  20.8571364  63.9577018  45.8939362  21.3152434  63.1927072  45.5458593
  20.9949900  64.6392523  45.2361202  65.5945015  13.2867396  49.8168421
  64.9231005  13.9135432  50.0862312  65.7230806  12.7289736  50.5840397
 100.4623094 102.4098163  60.7382488 100.0387397 102.6851167  59.9252129
 100.7443180 103.2266665  61.1499023  87.4477768  38.6096859  60.9017563
  87.8066730  37.8202391  61.3069630  88.2150936  39.0866256  60.5855465
  84.4142460  43.9564773  12.7008684  84.0547060  43.9599708  11.8137701
  85.0128626  43.2096687  12.7137430 107.1056579  67.1765449  30.5408437
 107.0529436  67.8004446  29.8168237 107.1554016  66.3202444  30.1159818
  32.8271222  16.2270486  53.6796951  31.9513059  16.4005852  54.0247488
  33.3923817  16.8497157  54.1368580  37.0131645  66.6150036   4.5723112
  37.8266201  66.6551629   4.0694101  36.4602242  67.2953585   4.1881139
  77.8820562  29.4013262  62.4107647  77.7121830  28.8278055  61.6634703
  77.0467663  29.4416332  62.8764915  30.0043545  54.8886582   4.9924810
  30.2330074  54.1372701   5.5396230  29.0600739  54.8083916   4.8578603
 105.9644699   2.8799391  58.7841034 106.4966679   3.1506813  59.5322275
 105.7645607   1.9592214  58.9530659  59.0864468  36.3900137  45.2213812
  59.5542717  36.3403368  44.3877697  59.7267485  36.1038184  45.8727932
  22.3489929  84.0911614  35.7537079  22.6008583  83.1690883  35.8044600
  23.0968071  84.5212339  35.3389239   0.2635489  56.8860796   9.2229898
  -0.6715336  56.7542109   9.0665872   0.5916367  57.2652224   8.4076173
  41.1264515   8.2880920  54.9758339  40.5506468   7.5235069  54.9664640
  41.0013056   8.6715537  55.8438921  50.3683805  17.3573947  68.3871174
  49.4182062  17.3961663  68.2780266  50.6616497  18.2588923  68.2547235
  11.5433146  80.6673371  46.8784332  11.1728073  81.2838828  46.2469053
  12.0463349  81.2150704  47.4810839  96.3925648   5.2939641  66.8496323
  97.2061825   5.7626766  67.0355415  95.8362675   5.4694605  67.6085567
  77.8259850  18.6989951  63.6031151  78.3469772  17.8974009  63.5557461
  78.0717421  19.0953326  64.4390297  32.3797822   3.8612550  58.0812788
  31.5334487   4.3074343  58.1108236  32.5866604   3.8016033  57.1486092
  66.7113209  21.2611747  65.2708387  67.6498222  21.0736465  65.2541399
  66.5135145  21.4114618  66.1952448  22.0804430  97.0256357  76.7165613
  22.8277851  97.2513657  76.1627054  22.4136473  97.1008103  77.6107407
  12.8844477  92.8782891  76.5811777  13.8088394  92.6298284  76.5806484
  12.6993204  93.1141864  75.6721592  69.0966606   5.9323221  82.0594501
  68.5372305   6.4263886  82.6587582  69.5495462   5.3018188  82.6194477
  84.7544575  48.7510777  69.8143053  84.9224186  48.8543081  68.8776302
  83.9914131  48.1748629  69.8587322  69.6892309  16.9597888  46.7911911
  69.0318441  17.2279358  46.1491871  69.2937326  17.1640670  47.6385880
  32.0034672  79.0469014  60.5225706  32.7094008  78.6647975  61.0439968
  31.8261601  78.3945571  59.8448992  64.0273333   7.6877922  75.7232809
  63.8262320   6.9582057  76.3093615  64.7524786   7.3699969  75.1853180
 104.6793380  99.2816903  44.5975161 103.9273944  99.0789001  45.1540136
 104.3608108  99.9604421  44.0024853  83.1961155  12.1394730  50.8991909
  83.9326286  11.5409124  51.0236883  83.0181313  12.1079803  49.9592113
  62.0322514   7.8259456  54.4483852  61.4330482   7.8591931  55.1940966
  62.7462530   8.4165847  54.6883345 108.0613031 102.7628863  45.7443476
 108.1005802 102.2872142  46.5740633 107.1624412 102.6389391  45.4395247
  45.8840348  99.2986598  68.1242323  46.6838719  99.6767210  68.4896851
  46.1649872  98.4672456  67.7420759  47.0355272  17.9765213  65.3901291
  47.3103142  18.8867199  65.5008650  47.8529596  17.4917519  65.2759457
  59.9131203   9.5570070  70.2334976  60.5566120  10.2430177  70.0558901
  59.3958044   9.8970717  70.9635448  10.7086048  58.8001677   4.0737302
  10.4357395  58.9491203   4.9790437   9.9342880  59.0117916   3.5522897
  49.6414734  96.8217235  77.5686550  48.9771057  96.8693416  76.8812084
  50.4705693  96.7489581  77.0958567  75.6164598  19.4721365  56.6690779
  74.9704695  20.1628804  56.8167257  75.7082367  19.0441072  57.5203133
  29.7215773  90.7082855  41.7312813  29.3671681  91.4503895  42.2210884
  29.8293329  90.0185608  42.3861885  63.2150698  16.6487396  60.8487034
  62.4735260  16.7164588  61.4501667  63.5996723  17.5252557  60.8430195
  10.5074478  91.7263555  37.4196887   9.6515871  91.9369983  37.7930021
  10.6187512  90.7907807  37.5886393  37.3998524  80.2576744  63.3444548
  37.5666357  79.3573557  63.6234570  37.0417525  80.1721703  62.4608898
  68.0128908   5.3477556  36.3327384  68.2527876   4.4246957  36.4142394
  67.0661688   5.3376406  36.1918592  36.1488272 100.7760498  29.5624733
  35.7918383 100.4025283  30.3682470  36.8551756 101.3508200  29.8573303
  80.7698154   8.6189675  16.1407924  80.9356785   9.3811232  16.6956258
  81.3797092   7.9535425  16.4593327 103.9366554  67.9323199  16.0191114
 103.0139230  68.0512491  15.7940443 103.9445709  67.1758547  16.6055639
  86.3255953  59.7708556  31.9672067  86.9607757  59.1596266  32.3402746
  86.5558170  60.6180247  32.3486955  28.7172867  80.9242116  55.9945297
  27.8400351  81.2711488  55.8323622  29.2380930  81.2339293  55.2535391
 105.4131864  44.9919244   3.6755903 106.2000679  44.5200404   3.4028680
 105.1328396  44.5477864   4.4758279  85.7731152  25.7764578  51.6420889
  86.3936615  25.9802008  52.3418331  85.9487724  26.4325881  50.9676456
  93.8656139   9.3193507  55.8094263  94.2554951   8.9560127  55.0143099
  93.0717182   9.7603393  55.5069590 104.4697689  84.8657492   6.5582330
 103.8722824  84.5896128   5.8632620 103.8979982  85.0724414   7.2975500
  90.3991245  24.8467043   6.5781076  90.3547691  24.0306952   7.0764978
  89.8692631  25.4643062   7.0821436   5.2355967  75.2960780   3.5673578
   5.5468569  74.4067314   3.7359197   6.0175667  75.8424738   3.6461504
 101.7788601  30.5253243  66.3489294 102.4265575  29.9485135  65.9439421
 101.4482403  31.0589123  65.6262922  94.5050716  18.3162224  43.3777332
  95.0178909  17.7624452  43.9664459  94.6496105  19.2060757  43.6994457
  60.1459503  32.8247523  76.7856884  60.8242226  32.2627592  76.4110661
  59.3561220  32.6103568  76.2892675  84.7455025  36.3032889  47.8293896
  84.3340015  35.7931685  48.5270071  84.9504280  35.6597662  47.1510744
  39.6929798  74.3088177   1.7648180  39.1705761  73.7845281   1.1578233
  39.8018513  75.1503756   1.3219125  63.5897518  95.2863210  66.8488836
  64.3619610  94.9060701  67.2676229  63.3149124  95.9849732  67.4426699
   1.2876091  75.8637336  -0.0825922   2.0706806  75.6835130   0.4375513
   0.9263525  76.6643265   0.2979047 106.7088795  14.7124088  25.5879569
 105.7901287  14.7725976  25.8497047 107.0373535  15.6086755  25.6589484
  51.9394970   7.2397155  71.8224001  51.5278339   8.0450904  71.5091276
  52.8777122   7.3891598  71.7055416  82.3471451   5.7837611  75.2142859
  82.6356411   6.6942972  75.2769327  82.0522976   5.5645823  76.0981750
  86.6538239  11.7857432  79.6074438  87.1876049  11.8364418  78.8145161
  86.3767529  12.6878357  79.7677326  65.1077700  35.4203582  77.3838520
  65.2021742  35.0076556  78.2423401  64.7131920  36.2723947  77.5697947
  77.8701305  26.6844392  83.3673000  77.5958776  25.8000469  83.1246662
  77.4450445  26.8443227  84.2098904  97.7872658  56.4891386  70.1410961
  98.3012676  55.9758949  70.7644892  98.3270741  56.5169144  69.3511152
  72.1342993  28.7043500  78.0845976  72.8605080  28.8061905  78.6998034
  72.3079634  29.3504047  77.3999929  63.7277746   7.4462283  72.6244020
  63.0626678   6.7628580  72.7073050  64.2143154   7.2122830  71.8339777
  69.4141769  20.7357812  55.2767372  69.7789907  21.5938306  55.0601864
  69.3407726  20.7406616  56.2311077  93.4137510  63.9871409  17.3267038
  92.7019380  63.3922019  17.0908983  93.7592434  64.2917028  16.4875944
  64.6541071  13.4291315  63.9953136  64.4725990  12.7007198  63.4014273
  65.5871010  13.3495200  64.1938448  74.7561359  31.4956737  76.9749737
  74.3182755  31.9739628  76.2708807  75.5977774  31.2355804  76.6005039
  67.5692081  27.7995610  43.1402731  67.5661659  27.0088148  42.6008797
  68.4083748  27.7726912  43.5999632  85.6397057  23.4943628  54.4383192
  85.1909637  23.0666399  55.1676464  85.0788403  24.2370105  54.2144156
  86.4537907  11.7437422  54.0574741  87.2287464  11.2022531  53.9075994
  85.8567047  11.5092564  53.3470201   3.4191262  47.6332378  49.7935724
   3.3948361  46.7172098  50.0702286   3.4783017  47.5936556  48.8390255
  30.9678875  12.5800490  82.5746441  31.2885891  12.1373296  83.3603764
  31.1797177  11.9809163  81.8588161  49.2982174  90.8431183  48.6133623
  49.9706436  90.2876698  49.0077782  49.1017414  91.4954566  49.2857361
  99.6322632  55.3171682  71.9165468  99.2583466  55.1956749  72.7892733
 100.3573990  54.6935415  71.8777275  27.1766720  84.8930290   8.3878381
  27.2365437  84.4471291   9.2327173  26.5844307  85.6281069   8.5464056
  93.8938522  38.3747458  59.7450876  93.0396843  38.6884189  60.0421476
  94.2030048  39.0536904  59.1453505  67.7996540  15.4629326  88.9172745
  67.7180862  14.9670410  88.1026173  68.5404491  16.0502028  88.7670422
  40.4925658  94.7546565  72.3481846  41.4347197  94.8960715  72.2555590
  40.2351547  95.3235864  73.0736446  38.7535644  47.6932669  80.3580952
  38.7488842  47.3855543  79.4517183  37.9297471  48.1713438  80.4529858
  93.8886738  46.6513681  67.6277924  93.0927086  47.1754074  67.7175903
  93.7952518  45.9597301  68.2828856  13.3158470  85.4933034  59.9578285
  13.6151005  86.3313364  60.3105068  13.1480814  84.9543177  60.7308626
  16.3206221 100.2222320  79.3847847  17.1123768  99.7395166  79.1474247
  15.8039500  99.5987388  79.8952198 102.1677208  15.3300679  64.1801405
 103.0049038  15.0110006  63.8431597 101.5438366  15.1559126  63.4753990
  52.7675772  32.9775929  80.2905941  53.2100821  33.7919211  80.5299377
  53.2838058  32.6291871  79.5637131  84.6090603  12.8355503  46.7079878
  85.0238800  13.6525369  46.9849205  85.1320934  12.1490431  47.1219683
  94.0819454   5.9693795  64.3051767  93.9119530   6.8841535  64.5299578
  94.7987461   5.7097340  64.8839712  29.9751354  64.3041240  53.3168554
  29.6635414  65.0979411  52.8821182  29.3788697  63.6175691  53.0179501
 105.1881527  52.9891816  49.0788801 104.5103239  52.3230260  49.1929777
 105.5716728  52.7965595  48.2232912  76.5885067  39.4187474  79.8638964
  75.7659006  39.8959923  79.9724722  76.8726826  39.2249656  80.7571602
  39.5274664 100.7619529  78.2338810  39.6711375 101.2096108  77.4000978
  38.5946776 100.5471597  78.2327890  66.3323807  73.6557558  11.5064676
  66.8225764  74.1929415  12.1288641  66.9659876  73.4456232  10.8204515
  51.0556030   7.0446867  80.8882046  50.6905460   7.4318165  81.6838837
  51.9861031   6.9314772  81.0820675  80.5066395  19.3212926  73.4367561
  80.4587269  18.5567892  72.8627634  79.8784733  19.9401343  73.0643749
  89.1590786  16.8553519  57.0992517  88.9535236  17.7069986  56.7136621
  88.9585972  16.2246561  56.4076853  85.9258556   9.9769777  59.5971727
  86.5610504  10.3236294  58.9706039  85.8493328  10.6600094  60.2633858
  64.4096184  28.6857176  61.5221977  64.5344162  29.5445728  61.9259596
  65.2003479  28.1967711  61.7500257  38.8295269  22.5195718  60.4273558
  39.7440124  22.6729465  60.6648922  38.7630391  22.8232908  59.5220566
  55.4806210 100.8877834   4.0274033  55.6550862 101.5336381   4.7119969
  55.8238865 101.2872810   3.2281518  23.1368122  55.6052518   6.8331869
  22.6980171  55.3909093   6.0099371  23.2933006  56.5482262   6.7827566
  64.7840786  24.9714780  81.2943935  65.5685759  24.6522284  81.7403412
  65.1021528  25.6667352  80.7184792  88.0981827  16.5697718  87.1196938
  87.3511982  16.5970910  87.7176094  88.8575840  16.7390871  87.6772404
  78.9577293  61.8858910  59.6093369  79.0816355  60.9446669  59.7317219
  78.4072590  62.1527290  60.3455496  83.5752964  18.2433748  75.9265661
  83.3537960  17.3263669  76.0886335  83.8071537  18.2733333  74.9983597
  50.1331997  33.5484004  70.3463984  49.4479227  33.4638071  69.6834707
  50.8614635  33.0289888  70.0056934   6.0088978  80.5834606   1.9639261
   6.2211285  80.2451518   1.0940225   5.2114401  81.0965445   1.8333776
  77.2440338  13.1374204  62.4441576  77.2430038  12.3482728  61.9024229
  77.1088362  12.8161347  63.3356333  88.1075573  18.3470452  70.6969595
  87.3004246  17.8560507  70.5430269  87.8967667  18.9324331  71.4243650
 103.2868290  19.1997218  67.3564768 102.8642082  18.5848081  66.7568922
 103.9354038  18.6722291  67.8226662  34.4502045  96.2574433  71.4405107
  34.3718840  95.8323639  70.5864573  35.3906656  96.3944357  71.5545177
  98.8349413  90.3205445   0.8685262  99.4249939  90.0273183   0.1742036
  98.5024093  89.5117238   1.2577112  14.8350678  51.8819129   7.0143278
  15.5733547  52.4591838   6.8195779  14.4944630  52.2021657   7.8495844
  58.8311529  23.9324903  86.9221210  59.0840435  23.0531383  86.6410255
  59.6126223  24.2807317  87.3513794  97.4879360  27.0278454  34.8553205
  96.9002247  27.6616120  34.4440126  98.2137394  26.9383550  34.2377281
  69.6124458  11.2363601  54.3435383  70.4278946  11.5043151  54.7671843
  69.0543318  12.0128798  54.3855000  88.2053661  16.9099367  66.5956450
  87.3189354  16.5646589  66.7017365  88.7695980  16.1377680  66.6359854
  75.6371307  24.9266648  33.6522532  75.0286722  25.3108549  33.0210567
  75.9460115  24.1251588  33.2298660  89.9300480  58.3798504  71.9093323
  89.7602367  58.3226061  70.9690571  89.1827583  58.8654900  72.2585392
  72.6478624  32.2924256  79.7538757  73.5981989  32.2425413  79.8568439
  72.3349905  31.4197588  79.9921989  93.8988304  20.5277538  55.6822824
  94.5689678  19.8940980  55.4261017  93.1575012  19.9916983  55.9639072
   2.7463057  89.5174130  86.1005704   2.6129296  90.0396808  85.3095733
   1.9469120  88.9972123  86.1817317 105.1686023  61.5488913   5.0641687
 104.2779373  61.6131261   4.7194631 105.2359318  62.2702780   5.6897123
   4.7164666  11.8512261  79.3091202   5.4454361  11.3512921  79.6764183
   4.6490322  12.6237500  79.8702717  13.5147835 100.0899415  48.7941313
  13.3368136 100.8359366  49.3668890  13.5039068 100.4582929  47.9107141
  89.2455482   7.8347659  78.6897945  88.9059162   8.3923161  79.3898058
  88.7738323   8.1191087  77.9069424  53.6393524  94.8988264  80.4366112
  54.5544697  94.8789941  80.1566029  53.6690689  94.6800499  81.3679981
  84.1239929  19.4451773  26.1184406  84.0495110  19.7009909  25.1990700
  83.3526993  18.9015269  26.2790251  79.2443991  58.6096239  76.8325520
  79.6754599  57.7632666  76.7138147  79.9495745  59.2514324  76.7486143
  36.7142296  19.9056005  47.1549368  36.6509628  20.5145574  46.4191389
  37.2782731  20.3513408  47.7869177   5.6107498  87.5282656  75.4575586
   6.2875487  86.8518697  75.4834461   4.9837519  87.2656273  76.1314487
  16.3388596  21.1429623  17.8712137  15.6206474  20.5861500  18.1718023
  16.9322643  20.5443814  17.4175508  40.3702116  17.3468280  65.8040380
  39.9325418  17.8384519  65.1090670  41.0936785  16.9013381  65.3631687
 104.3687916  10.6957030  88.7811470 104.3206024  10.9744871  89.6955776
 103.8053036  11.3117254  88.3129215  90.1567364   4.0389764  84.1924667
  90.6316090   3.8178545  83.3913231  90.6495571   4.7677666  84.5695972
  68.0302048  26.2602305  69.7197437  68.0330467  26.7136669  70.5627298
  68.6107254  26.7816496  69.1653538  72.5790358  21.9166398  53.6699057
  73.0384588  21.2780762  53.1245613  72.1014547  22.4642277  53.0467749
 104.2255520  69.8483220  12.5651605 103.7150215  69.9305883  11.7596681
 103.6517261  70.1941433  13.2488020  57.6106358  29.1260815  65.9834814
  56.6774511  28.9557195  65.8555269  57.6907873  30.0780153  65.9232283
  28.7771225  10.1539552  49.2287207  28.0688906  10.0245047  49.8594952
  29.5126224  10.4669571  49.7553158  50.1617028  97.5947427  60.1526117
  50.3972412  97.1614390  60.9729767  49.4188381  98.1533187  60.3814697
  67.4079847  30.5635786  69.0299416  66.5103912  30.2320576  69.0555191
  67.3602915  31.4174247  69.4599438  45.1894356  92.4886405  74.4750261
  45.4799057  93.0311828  73.7418795  45.1678826  93.0869060  75.2219200
  53.1713558  95.8733838  84.8273754  52.4275662  96.4025419  85.1154518
  53.5240628  96.3462674  84.0735817   3.4785782  30.1991296  53.9060116
   3.9030682  29.9311399  54.7210121   2.8998600  29.4690990  53.6860847
  66.9940640  81.6992747  86.8188858  66.0426975  81.6383063  86.7327976
  67.2021176  82.5938450  86.5492630  15.0874386  49.3079099   3.0423124
  14.9196491  48.5389456   2.4975450  15.9520779  49.1491036   3.4210069
   0.1723299  99.2542484  15.1835687   0.8321247  98.6548212  15.5322702
   0.6635914  99.8458984  14.6136148  50.6839609  22.9991841  48.4520626
  51.5477991  22.8734827  48.0593634  50.1443815  22.3066688  48.0706072
  24.9847088  68.1823280   7.4747331  24.4884930  68.4850648   8.2352312
  25.8897171  68.1345525   7.7828081 103.7431908  23.1547713  48.2618570
 104.1778946  23.5271978  47.4946737 103.1436920  23.8412952  48.5542727
  81.0192585  41.9006777  74.5303679  81.6807175  42.1112823  73.8713121
  81.2247276  42.4750710  75.2679920  16.1300122  47.6580286  80.6175232
  16.7401539  47.8789330  81.3212013  15.3028523  47.4795580  81.0649586
   9.6611668  97.2795885  82.8222084  10.0934769  96.4999192  82.4736977
   8.8028218  97.2870391  82.3986244  99.4858456  60.6698132  88.1784153
  99.6011257  60.1627541  87.3747826  98.5700703  60.9475565  88.1570816
  89.4415569  61.3167095  72.6583004  89.1968632  60.6485319  72.0180702
  88.6336613  61.4941216  73.1400251  87.4691200  22.7347589  37.6885915
  88.2900715  22.4052358  38.0542350  87.5137997  22.5104451  36.7591190
  75.7471418  18.4290195  77.8473997  74.8227406  18.6419094  77.9754305
  76.1994743  18.8922119  78.5524368  72.0922852  21.3584423  84.9210072
  71.1366749  21.4123344  84.9326229  72.3722982  21.9125342  85.6495762
  79.6351767  33.5848761  40.3261805  80.4718685  33.1200147  40.3171968
  79.3286705  33.5089183  41.2297916  99.0186214  29.8470950  64.3102312
  99.8956776  30.2296424  64.2844152  98.4280109  30.5972672  64.2420197
  72.2635651  41.3474321  73.7436247  72.2669888  40.3975868  73.6252117
  72.1002913  41.6973972  72.8677845  61.3471985  35.8172536  77.4073362
  61.6715097  36.6474843  77.0583773  60.9852266  36.0426998  78.2642984
  58.2093430  33.6571932  68.4884119  57.3160934  33.5030007  68.7959099
  58.4568214  34.4941616  68.8814449  37.6175953  73.7320887  45.3931618
  38.3735777  73.2619940  45.7449198  37.9354788  74.1214263  44.5785475
   0.6973467  47.4705758   1.2871225   1.4995775  47.1955722   0.8432348
   0.0741158  46.7648819   1.1144502  65.9345675  25.4620624  88.4980392
  65.5476046  25.8504272  89.2826748  66.2932730  26.2061787  88.0144501
  54.8112274  88.1854521  46.8907738  53.9003254  88.0857812  46.6140938
  55.3038098  88.2542025  46.0729313  38.6509110 101.1915944  71.1855364
  38.1601740 101.6181805  71.8879843  39.0527655 100.4295390  71.6026831
  48.8074280  99.6829908  68.9432859  48.6427952 100.6258903  68.9348507
  49.7612454  99.6061700  68.9198256  90.0003910   5.0579119  69.9315691
  90.6835556   5.7227230  70.0184107  89.3940830   5.4204762  69.2856836
  42.6588751  82.6267301  77.4167967  42.2743345  83.4878646  77.5805283
  43.5719563  82.8102528  77.1958208  49.7381449  34.1017270  53.7981272
  49.7700500  34.7393799  54.5112991  49.2196941  33.3770418  54.1478014
  83.3867550  22.8672075  64.7721100  82.5836182  23.3873987  64.7474766
  83.5378551  22.7038527  65.7030869  29.0317702  29.6477532  59.2681503
  29.4777918  29.9076247  58.4620667  28.9571524  28.6956024  59.2043114
  99.7447586  12.5343645  37.9741931 100.6293392  12.5208890  38.3396411
  99.2829227  13.1959999  38.4891510  37.6244507  86.0686567   5.6256826
  36.9749413  86.6074994   6.0773618  37.2073994  85.8358124   4.7961671
  75.7431793  16.5243614  62.5711441  76.1697435  16.2492228  61.7596197
  76.4500475  16.8950081  63.0995321  84.0495300  10.4108822  82.7795315
  84.6870804  10.6258261  83.4603882  84.4604874   9.7046506  82.2809505
  72.0632839  31.3353348  68.9665413  71.4612389  31.9553494  69.3780756
  72.4198961  30.8279133  69.6956396 103.2366966  95.2020672   1.7800768
 103.2746004  95.5484178   2.6716097 104.1532158  95.1077774   1.5205820
  49.4139481  14.0267992  59.1196489  50.0897884  14.7045732  59.1098309
  49.0961838  14.0184772  60.0225258  89.5170021  20.8879685  35.0318742
  90.1017189  20.2104950  34.6922278  89.9468994  21.1977768  35.8290172
  81.6234875  14.5145988  57.3591995  81.0675144  13.7388885  57.2857571
  82.3672771  14.3313897  56.7852306 100.6614399  35.5024719  67.8475523
 100.2826118  35.0440025  68.5975742 101.5748024  35.6496692  68.0931807
   6.3972769  75.0347450   6.8795641   7.1982250  75.4537728   6.5647085
   6.3707886  74.1944244   6.4219720  62.4407459  65.2252757  80.0666523
  62.6432968  66.0917722  80.4193497  62.9226853  64.6190583  80.6292057
  41.3980557  95.3501873  79.7092152  40.6339384  95.8646249  79.4490051
  41.8560292  95.9044193  80.3411293  91.5615845  28.5778451  52.9156303
  91.4739418  27.7998304  52.3649549  90.9483719  28.4317541  53.6359501
  84.0347099  50.6148672  65.9535027  84.0820122  50.0566769  66.7296600
  84.7680950  51.2223339  66.0503006 104.5310116  16.5253186  22.5801110
 105.4449463  16.7509842  22.4068308 104.1935349  16.2274885  21.7353392
  43.6107206  16.1405194  59.3977785  43.5488272  16.8926072  58.8089085
  44.4317818  15.7128179  59.1545486  60.4396152  36.0734940  73.4080935
  59.5875692  35.7167816  73.6590958  60.9407520  35.3126216  73.1145430
  82.6346970  31.3963199  50.1456976  83.5812855  31.2596703  50.1065588
  82.3414803  30.8369136  50.8649492  99.2501901  40.8424011  21.4027460
 100.0653862  41.0471228  20.9447248  99.5300745  40.3962460  22.2020204
  32.6641871  87.0331739  54.0489435  31.8835236  87.3369419  54.5121050
  32.3726202  86.9055676  53.1462049 103.2673836  34.6646380  58.2294035
 102.4112701  34.6724176  57.8013420 103.4915447  35.5893826  58.3334732
  59.2302681  89.1356932  46.8578577  59.9916340  89.5558213  46.4578104
  59.5936753  88.3982729  47.3481417  57.3361540  41.5780735  84.2007160
  57.0974636  41.8657255  83.3195210  57.4996567  40.6393003  84.1101551
  76.0968494  17.2193122  55.0091219  76.7322254  16.5886033  55.3478479
  76.0119820  17.8710473  55.7050133 103.3722591  34.9021173  88.1298447
 103.9040470  35.0452948  87.3469448 102.6569271  34.3391633  87.8338528
  91.3475704  29.4289780  74.5099735  91.9318485  29.7363496  75.2030611
  91.4893436  30.0413632  73.7880898  81.3294411  16.6424358  61.1045790
  80.6816006  16.6167045  60.4003954  82.0934105  17.0647490  60.7118702
  69.7314882   9.4598895  82.9938316  69.0363836   8.9512718  82.5762558
  70.3584003   8.8038087  83.2984161  67.0920849  31.3965583  79.1305113
  67.9384565  31.7617011  78.8725138  66.5332031  32.1613741  79.2681313
 107.0188640 102.3338917   1.1620290 106.5297197 102.3440531   1.9847543
 106.7008232 103.1002787   0.6848104  77.8257895  45.3149843  82.3616219
  78.5570288  45.6289959  82.8935146  78.2301331  45.0332880  81.5410137
  36.0131502  14.4818592  61.1068392  35.6104493  15.2757657  61.4586592
  36.8969750  14.7518885  60.8575058  79.8157644  18.4388936  85.3643131
  79.5304298  19.3098021  85.0880241  80.5693913  18.6024451  85.9313393
  65.4567600  93.8800179  68.1149244  65.5457379  94.6005582  68.7387323
  64.9243523  93.2302760  68.5738468  94.1565800  27.6175094  40.3956318
  93.7543201  27.0635557  41.0646248  94.9218464  27.9971695  40.8274508
  91.0318184  46.9547367  65.3363609  90.5646420  46.1326742  65.1874065
  91.3369274  47.2175694  64.4679928  81.7070103   9.5721507  68.3362007
  81.3514805   9.0085793  67.6490211  82.2206497   8.9822090  68.8879061
  71.6673088  31.3473439  42.3668718  72.3756933  30.7049179  42.4083090
  72.0712662  32.1247673  41.9813013 102.3815655  71.8756917   2.3180540
 101.8286251  71.3785162   1.7153127 103.0581115  72.2601560   1.7606504
  76.8536472  19.0602553  80.3335094  77.7667379  19.2909706  80.5045891
  76.3549805  19.8230934  80.6261635 104.6883774   8.4880269  57.9924202
 105.0769997   8.3929443  58.8619947 103.9495087   7.8794974  57.9924440
  33.7450085  85.6003931   4.7216375  33.7799892  86.4013532   4.1986997
  32.8447399  85.5645063   5.0448568  18.7181435  47.7432871   1.4914472
  18.4959946  48.6466184   1.2658937  18.0317841  47.2179910   1.0800893
  25.4749928  76.9071319  12.6470144  25.2870998  77.1388224  13.5565431
  25.6919441  77.7397802  12.2276647  95.2114964  40.4769659  58.2518291
  95.1030350  40.8040810  57.3588228  95.8026218  41.1051083  58.6668539
   3.6596117  66.8377474  10.5823095   3.8154230  67.4374965  11.3118703
   3.8602552  65.9716943  10.9371717  75.3801298  19.1316581  84.0370369
  75.4846621  18.5478151  83.2857513  76.1682367  19.6748555  84.0297222
   8.9809262   7.3910302  67.4186325   9.7395073   7.3358810  66.8374729
   8.2539975   7.0517051  66.8964720  90.9153007  94.2415264   5.8128412
  90.6552910  93.7545803   6.5948351  91.7881559  94.5763519   6.0183962
  44.4657685 102.4563796  73.2511425  44.9645210 102.8515200  73.9662218
  43.5539557 102.6712284  73.4477806  69.1736937   4.6216941  45.0824499
  68.8295174   5.2465987  44.4442701  68.7908840   4.8952657  45.9160233
  79.8082829  34.6992946  70.9299517  79.4306660  35.5746412  70.8438969
  79.2150450  34.1329527  70.4364347  32.5349236  44.8915863  55.6857347
  32.8805161  45.3940344  56.4235353  31.8042922  44.3955708  56.0550261
 100.3573011  83.1543234   9.4667585  99.5753311  82.8575828   9.9322660
 100.5663513  82.4371531   8.8682611  87.0886421  45.9561300  87.3888206
  87.3097706  45.2724171  88.0211735  86.1620235  45.8133411  87.1959209
  72.9425430  57.7099466  83.0571747  73.0687952  57.1126986  83.7944508
  72.0224762  57.6019192  82.8162575 100.0164961  61.0583487   0.4131658
  99.5262502  60.7214758   1.1631067 100.0135301  62.0081189   0.5321558
 106.1833382  15.3969693  74.9531555 106.0336781  14.5668924  75.4057121
 105.4866982  15.4416955  74.2982292  89.1358948  18.1892693  38.9699984
  88.9814758  17.7372766  39.7995067  88.6381721  19.0034783  39.0446138
  79.0805864  22.5303555  55.5347300  78.2146978  22.8268099  55.2544022
  79.4389343  22.0802784  54.7697115  80.5215359  34.2666674  88.9319992
  80.0871277  34.3985128  88.0893040  81.3556290  34.7283816  88.8463211
  78.1370306  31.4833975  67.3169994  78.4853458  30.6011295  67.1884966
  78.7743711  32.0568609  66.8913555  85.3103924  48.2679701  52.3101711
  84.5234394  47.7239466  52.3414469  85.2691746  48.7948847  53.1082296
  92.4931908  24.7610402  46.9033909  92.3006058  25.5033231  46.3305426
  91.6694736  24.2758918  46.9518852 102.4867821  13.3267307  75.2986336
 102.7380371  14.2487681  75.3529549 101.8879414  13.2851923  74.5530415
  90.6410408  10.0045931  40.9032965  90.9173870   9.3147200  40.3000212
  91.1572456  10.7685578  40.6461525  70.2863766  88.2932173  65.3335571
  69.6830059  88.8083838  64.7980404  70.1872612  87.3972999  65.0114727
  69.9766874  25.2639103  43.4052467  70.0605106  24.6301770  44.1176987
  69.7558689  24.7347784  42.6387691   8.6301670  79.6675518  12.3609121
   8.2889042  80.2822855  13.0104406   9.4317684  80.0798395  12.0389040
  95.2064323  25.9415627  69.2114878  95.4189110  26.7776942  68.7968016
  94.3642998  25.6925154  68.8306713  98.1850647  70.0071874  11.3345010
  97.8194212  70.4200128  12.1168764  98.9572548  70.5326417  11.1250932
  30.6208254  87.7432119  55.7879066  29.7920872  87.9322278  55.3477955
  30.3813530  87.6186525  56.7062569  50.0703573  11.3489401  58.7452316
  49.8414230  10.9720600  59.5948076  49.9368000  12.2901726  58.8569260
 101.7488098  39.8326993  62.6131439 102.0967579  40.7234478  62.6547766
 101.1857605  39.7592449  63.3837366  93.8832188  30.3857589  61.2116623
  93.3326530  30.4366350  60.4303026  93.8626957  31.2702060  61.5771246
  10.6862675  12.4339139  76.6180086  11.2480294  13.1590843  76.3445520
  11.0414730  12.1616721  77.4641466  78.5876513  35.6955004  57.7730560
  79.2311430  35.5861068  58.4731865  78.5742474  34.8493671  57.3257160
  92.9123306  33.6206818  32.2065568  92.5446320  32.7721548  31.9595194
  92.5940800  33.7695599  33.0969381  29.9304543  75.1214698  -0.0345843
  29.2738972  74.6297601  -0.5279295  29.9968395  74.6602085   0.8015211
  34.9445664  26.6617703  59.3716383  34.2069184  26.9732213  59.8961353
  35.2917992  27.4502993  58.9546394  60.5231953   0.6347819  56.4864063
  60.2220392   1.4261502  56.0400105  60.1129150  -0.0830853  56.0041571
  94.3063831   8.0976307  59.3819094  94.0928459   8.5097772  60.2190256
  95.2360249   8.2855219  59.2526770  63.6542416  26.9792843  76.4723253
  63.3804703  27.1418214  77.3750257  63.1363010  26.2226820  76.1975050
  90.1345348  19.4248378  85.4502296  89.6751118  18.6014044  85.2855492
  91.0021591  19.1583693  85.7542992  35.0730976  15.3162853  14.7106512
  34.8473390  15.0952331  15.6142004  34.6027740  16.1321060  14.5389993
  76.7775059  19.1949105  61.0463095  77.4804211  19.8006511  60.8113146
  77.0228672  18.8674009  61.9116211  72.2131443  44.3416548  86.9032097
  72.0502758  44.0101194  87.7862644  71.4598036  44.9012947  86.7147636
  12.2997700  17.6816285  55.6362104  12.4216496  16.7323601  55.6198597
  12.8261982  18.0033410  54.9043608  59.7432209  81.4422785  35.6761932
  60.2975632  80.9611761  36.2905860  60.0748135  82.3396932  35.7065845
  87.8880310  26.9721866  53.2610464  88.2500458  26.9251156  54.1458988
  87.2242451  27.6600885  53.3101225  64.7631788  37.1829557  65.0941849
  65.0673294  38.0047631  65.4793549  63.8286066  37.1538639  65.2990246
  95.2771854  11.9705510  46.2079287  95.4553223  11.4952922  47.0194912
  95.7947636  11.5141594  45.5445623   8.4980427  49.2585802  60.0962114
   7.9009663  48.5262394  60.2491951   9.2008721  49.1317558  60.7335377
  81.8858719  22.7740788  61.2389326  82.1090317  23.4042358  60.5538511
  82.6505184  22.7653766  61.8146610  68.9742327  78.2165337  63.3696222
  68.7942219  79.1050816  63.6767292  69.8096752  78.2873774  62.9078388
  90.7084942  34.3737531  44.9693060  91.1288643  35.1017714  45.4270363
  90.0913334  34.7924542  44.3692827  79.4103193  23.0412173  41.5260744
  79.1756487  22.6539874  42.3694086  80.3130341  23.3378410  41.6416216
  85.6911278  11.5644062  65.4880905  85.1941299  11.7700458  64.6962976
  85.0627136  11.1190522  66.0564137  97.6620483  43.9061022  72.8692293
  98.3669949  43.6163473  73.4482908  97.8845501  43.5335732  72.0160294
  89.9369717  55.4753351  66.8932724  90.6947613  55.8041048  66.4096546
  90.1081085  55.7209444  67.8024578  92.6446152  46.8223715  62.9087305
  92.3230171  46.4030933  62.1106005  92.6933193  47.7524424  62.6877642
  75.0982332  26.5012360  59.7900248  75.3900003  27.4115920  59.7415257
  74.3412590  26.4608741  59.2055607 104.8792934  47.2254515  69.1392088
 105.6434917  47.7263069  68.8539362 104.5560837  47.6978445  69.9064159
   0.7586514  51.2721539  63.8543701   1.1632191  50.4046583  63.8521528
   0.3015839  51.3211298  64.6939659  86.6971945  85.1506856  20.6947000
  87.0955633  85.6056812  19.9527319  87.4342035  84.9306491  21.2644632
  81.9108772  67.9260921  70.7269096  81.3250065  67.7924967  69.9818373
  82.7173519  68.2662630  70.3394651 101.9796371  27.9688573  72.8740072
 102.4530697  28.3028054  72.1120596 102.4660206  28.3076477  73.6255932
  86.8533134  48.1118917  83.3838367  87.4739075  47.4616146  83.0548573
  86.1540604  47.5948095  83.7837219  92.7515888  28.1743288  63.8815689
  93.1056499  27.5458193  64.5107317  93.4751701  28.3424520  63.2779217
   5.7641922  33.1110287  84.2655277   6.0037934  33.4848404  85.1135159
   6.3821350  33.5023499  83.6480713  83.4282207  42.1573973  71.9760132
  83.9914131  42.8630495  72.2939825  84.0239620  41.4223289  71.8311071
 105.1991940  73.4167099  79.1481543 105.2413082  73.9892578  79.9140835
 106.0994530  73.1161356  79.0240097 106.2593365  56.4841604  36.3423657
 107.0893955  56.0794973  36.0904074 105.7530022  56.5174484  35.5307341
  99.4774437  50.1314783  39.2495060  99.7255898  50.9184647  38.7644196
  98.5466480  50.0159073  39.0584731   2.2752342  45.8246705   3.9259966
   2.6981125  46.4217451   3.3088167   2.4032507  44.9560222   3.5448225
 105.9579849  46.9293070  60.1437902 105.8533478  47.0883846  59.2057180
 106.8223000  46.5257549  60.2233410  91.3093281  44.7419977  53.0054331
  91.1060619  44.8074722  53.9385080  92.1733570  45.1449060  52.9196835
  25.4644833  93.1982115  16.7902811  25.3983460  94.0634039  17.1943815
  25.3998146  92.5859573  17.5232084  71.7088032  41.4317226  52.8158140
  72.5377846  41.4141369  52.3375750  71.4859676  42.3607540  52.8747749
  82.8709221  28.3019948  51.3980913  83.3404446  28.9720964  51.8948221
  81.9864368  28.6539364  51.2978029  17.1192490  11.8055511  61.0729170
  17.8351723  11.9478953  61.6921234  16.6196476  11.0798812  61.4471245
  96.3406467  34.2221570  58.1651211  96.4021778  35.1081061  58.5222483
  95.7200050  34.2986131  57.4404240  94.2277622  49.9961519  73.4492254
  94.2224026  50.9109497  73.7309074  95.0414467  49.9028540  72.9538012
  42.4173889  90.2949193  15.1234682  42.5922165  91.1095574  14.6522672
  42.8910313  90.3898385  15.9498365  81.0453606  42.4428511  67.4772310
  80.2158642  41.9784260  67.3655272  81.5952969  42.1266699  66.7604113
 106.2024689  34.5020247  62.1303177 105.9518337  34.8727059  61.2841463
 106.8135262  35.1395988  62.4995661  37.0043064  87.9796933  35.0855184
  36.7341830  87.7375816  34.1997147  37.4257303  88.8329469  34.9826074
  22.2424469  97.0602014   6.8276842  21.9856510  97.7243259   7.4673994
  21.9333038  96.2351349   7.2017534  51.8862225  95.4370951  43.1727552
  52.0810868  94.6981280  42.5963974  51.3555886  96.0259282  42.6361609
  79.5941353  38.0991983  59.0183926  79.9309540  37.3851848  59.5596600
  79.4013119  37.6898909  58.1748772  86.7076397  57.1359539  22.4417448
  86.7591381  56.9323969  21.5078568  85.7750225  57.2765207  22.6051688
  82.2877121  45.1605749  54.3295479  81.3433647  45.2732277  54.2211437
  82.3757362  44.6161699  55.1119232  97.9829693  19.7745013  48.0585337
  98.6451626  19.7775507  47.3673487  97.3933411  19.0584719  47.8221703
  69.2245461 100.4161920  36.6631365  68.4107472 100.4431727  37.1663618
  69.9098755 100.5982675  37.3060942 101.6063690   8.8762313  70.6474495
 102.0779514   9.7020763  70.7561779 100.9713745   9.0526170  69.9532604
 104.9914932  39.8566389  79.8266220 104.5888710  40.2933979  80.5772018
 104.7828579  40.4200172  79.0814352 102.1626282  50.3720474  73.5498095
 102.1145630  50.3289986  74.5048285 101.3957500  50.8847141  73.2942629
  35.5917702  84.9483803   1.9453962  36.2181912  84.4174793   1.4534910
  34.8101769  84.3994310   2.0086057  89.1504002   3.9410970  52.7962351
  90.0999832   3.9326799  52.9164886  88.9661312   3.1502301  52.2894716
  87.0997143  13.0955279  42.7995682  87.6264858  13.5320330  43.4690475
  86.7667484  13.8083434  42.2543526  87.5598335   5.4777020  36.3235497
  87.3332691   5.8968246  35.4933476  87.9248810   4.6294072  36.0718203
  87.2892857  18.3243132  20.5486321  87.1514702  19.2334712  20.8144712
  88.1401539  18.3293247  20.1101923  78.9274931  43.0101490  64.8313665
  78.3300924  42.8628397  64.0981197  78.6700106  42.3595238  65.4845238
  86.0488510  43.2892609  60.7675266  85.7366371  44.1879511  60.8728838
  86.9744778  43.3274984  61.0083294  96.4422226  46.1418629  43.3763981
  96.2523365  45.9232712  44.2887545  95.9670544  46.9582844  43.2218218
 101.5248203  40.5833673  46.0652256 101.5408230  39.6704364  46.3525057
 102.0419502  40.5900908  45.2597618  97.2726082  77.2843268  10.8908327
  96.9615721  77.6032546  10.0436170  98.2111763  77.4722364  10.8875997
  75.2096605  49.5564747  76.9466734  75.1845264  48.7700844  76.4015245
  74.2986393  49.8469543  76.9901991  77.3733473  44.8435593  67.0947361
  78.2041931  44.7121000  66.6379595  76.7090607  44.5414925  66.4752913
  20.1829373  30.7011533  55.2018261  20.4071080  30.0341988  55.8507824
  20.0803219  31.5054369  55.7105780  96.6454601  35.0009108  73.7989426
  97.5334835  34.8235679  73.4888077  96.2797260  34.1362143  73.9854193
  93.5503387  11.8250060  89.2234707  93.7442303  10.9751058  89.6188164
  94.0830517  11.8464828  88.4284878   2.9280030  46.1999559  74.8800230
   3.0927883  46.3463020  75.8115101   2.2658669  45.5090284  74.8595858
  73.7223768  53.1551695  80.3021908  74.5324755  53.6203480  80.0934219
  73.3105516  52.9981804  79.4524956 100.6625557  53.6723042  61.1959887
 101.3267422  53.9535618  60.5667162  99.8487568  53.6523247  60.6924343
  91.6758347   3.4070671  54.4383526  91.4051723   3.9743468  55.1602697
  91.3838673   2.5332341  54.6979618  76.4052534  51.9182348  76.5261078
  75.9404325  51.1251688  76.7929840  77.1803331  51.5978003  76.0647964
  81.4065838  41.8576145  53.9621258  80.8345604  42.0728254  53.2254362
  80.9412766  41.1659479  54.4325686 100.3179455  44.4635868  68.6161184
  99.8694324  45.2686501  68.8748550 101.2279129  44.7287464  68.4824038
  86.1558796  94.4504928  67.3574305  85.4728962  93.9131485  67.7587175
  86.4144970  93.9639293  66.5747356  98.2656765  54.9666929  56.7196894
  97.3569870  55.2246571  56.8745089  98.5623550  55.5448389  56.0168695
  15.9745369  49.0859629  -0.0575201  15.0547562  49.1918386   0.1854379
  16.3443146  49.9658438   0.0153215 104.0778160  48.0700016  61.6090584
 103.6402130  47.5101614  62.2503948 104.7008038  47.4903822  61.1707020
 108.0656052  46.8400860  82.5740528 108.9014912  46.5041494  82.8975868
 108.2609844  47.7320051  82.2867680  90.3071117  25.1279116  54.6135712
  90.9765053  24.4517446  54.5089674  90.4233551  25.4434180  55.5097675
  92.5537777  17.3749208  46.9009352  92.5574207  16.5079284  46.4952993
  91.6363907  17.6469934  46.8763685  75.6038952  24.1187310  48.9928579
  75.4589462  23.6744189  48.1575060  76.2229538  23.5567045  49.4588232
 104.5804596  51.5582705  53.5840321 103.9161968  52.0813751  53.1353045
 105.3924561  51.7478991  53.1139946  93.6148739  43.9438295  57.0141172
  94.3202114  43.4840536  56.5587711  93.8622570  44.8673725  56.9682884
 104.0794754  29.7567391  58.5652781 104.4193649  30.1748300  57.7741337
 103.4401798  30.3802466  58.9099073  74.4831848  57.1754074  76.2975407
  74.3324614  56.6230011  75.5304909  73.9351606  56.7903757  76.9813967
  41.1676073  11.9872034  83.7262058  41.0019541  12.8465116  84.1139984
  41.4163589  12.1766317  82.8215122  81.5231800  37.3746109  51.6182518
  82.3223209  37.3427200  52.1441603  80.8146477  37.4079537  52.2609806
  46.3236389  75.4959801   3.4837492  46.4539585  76.0865381   4.2256982
  45.3983460  75.5940917   3.2591779 106.4385532  87.7237847   5.2338178
 107.0420049  88.4227565   5.4858358 106.5617870  87.0487645   5.9011896
  15.3847061  22.1939111  57.6463223  15.4958855  21.2540984  57.7899313
  15.5228649  22.3105669  56.7063618  89.8830891  18.2288635  60.6532669
  89.1779518  18.2560384  61.3000107  90.6657505  18.0149305  61.1611080
  -0.0109733  52.9721260  82.8480911   0.0204026  52.1517420  82.3559380
   0.3114735  53.6321068  82.2343445  99.9785233  33.0443263  25.9768844
 100.6487274  33.4104228  25.3997850  99.5598221  32.3605037  25.4540968
  98.8009453  41.1753416  62.9361010  99.6094227  41.0669041  63.4369516
  99.0947628  41.3559437  62.0431900  25.0187527  34.3305063  32.5680304
  24.5541512  34.9092197  33.1725717  25.5677162  33.7858129  33.1321049
  75.6615400  17.8773832  58.8025761  76.0578680  17.0542288  59.0881872
  75.7898569  18.4736454  59.5403051  59.9855576  87.7400330   3.8267381
  59.6884975  88.0224660   4.6917398  60.6833801  88.3549455   3.6005743
  83.8049507  51.2018919  76.3440704  84.0336990  51.2524033  77.2721624
  83.8413525  50.2676392  76.1389256  92.4020767  32.6678681  77.2428465
  93.2814598  33.0456448  77.2568226  92.5479221  31.7237067  77.1835136
  82.0878506  13.8826072  46.0738564  82.2634029  14.7810256  45.7941103
  82.9385853  13.4464395  46.0264683  16.2345562  65.7949784   0.6682260
  16.2960968  66.1787787   1.5429456  16.7713223  66.3654509   0.1180608
 105.8396339  21.3138795  62.9006147 105.6283188  21.3017488  61.9671106
 105.2023983  20.7204771  63.2981586  44.3135144  88.3483647  64.2994738
  44.1323639  88.9794992  63.6029911  44.9616791  88.7828886  64.8538113
  63.1291794  96.9438579  32.4706419  63.6049603  96.8884018  31.6419180
  62.7032088  97.8006819  32.4453981  75.6522465  32.6829982  81.9896412
  75.4639149  32.5437379  81.0615444  75.8487606  33.6174154  82.0565796
  89.1171265  22.8367925  63.1999350  89.7213936  22.4459910  63.8311005
  89.3951130  23.7505269  63.1363297  41.5180763   8.9080373   6.0045774
  41.0597881   9.7122280   6.2484796  41.3212761   8.2957832   6.7135484
  93.3877468  40.8862972  62.1022081  93.8410664  41.4236927  61.4526463
  93.4999466  41.3607264  62.9259586  88.7094116  50.8641005  51.7384291
  88.7834549  50.5655766  52.6448679  88.5132217  50.0706720  51.2402201
  84.0427780  42.5714684  68.3244419  83.1000137  42.7128506  68.2382584
  84.3817902  42.6680136  67.4345112   3.4289013  24.3745041  68.5376644
   3.0913388  23.9114714  67.7709293   2.9482781  25.2022243  68.5484123
  86.8681812  15.0154018  64.2369747  86.5497971  15.6214678  64.9059629
  86.0845566  14.5521951  63.9409828  97.2612762  11.8232214  66.4197302
  97.9208755  12.5086498  66.5262508  97.7666092  11.0303426  66.2402534
 100.0928211  14.6634698  55.7642555  99.9113178  13.7380552  55.6002617
 101.0410213  14.7031057  55.8891249  37.7604986  90.5775725  55.0117207
  37.3817612  90.0400328  54.3161345  37.2723891  91.3999867  54.9715328
  75.7631159  82.2924805  70.8435774  76.2989140  81.5676689  71.1657667
  74.9693537  81.8739319  70.5104303  84.5539284  22.0355558  81.4428043
  83.8423443  22.6717949  81.5141106  84.2544079  21.4146519  80.7787323
  11.8019520  33.5122824  77.6093483  12.3843228  33.0823898  76.9830275
  11.0681282  32.9058671  77.7092934  80.7719707  14.7948098  54.1545105
  80.9330082  13.8731587  53.9523697  81.6412449  15.1955605  54.1539574
  87.9175568  34.1480851  47.0089817  86.9767952  34.2699099  47.1368980
  88.3109665  34.9547482  47.3417807  90.7791424  42.3775768  49.8669481
  89.9842930  42.8931999  49.7306204  90.9553146  41.9791698  49.0146160
  76.6580486  43.0400038  84.8143005  75.9806347  42.3653603  84.7673798
  77.3126125  42.7672863  84.1713333  12.7470337  27.2028136  54.1723108
  13.2510220  27.8716183  53.7087059  12.7308785  27.5022984  55.0813103
  74.4891453   8.4805119  29.8862338  75.2388287   7.9139745  29.7039151
  74.5378494   9.1645384  29.2184258  96.1221123  36.6621089  61.8371582
  96.3325691  37.1704030  62.6204681  96.6761589  35.8841252  61.9004488
  38.2939650  96.8163781  81.8974400  37.5167109  96.4444165  82.3142719
  38.8733698  97.0386850  82.6262093 100.9977055  36.1508250  37.8382492
 101.3098335  36.4261794  36.9762802 100.9370995  36.9627142  38.3416319
   9.1629444  16.7281246  68.8046026   8.9836727  16.7729020  67.8654099
   8.3356320  16.4437127  69.1930628  79.5420313  20.0258660  50.8422565
  79.9638081  19.1699564  50.9181118  80.2683926  20.6460977  50.7794714
  71.6071367  26.3449335  65.7303953  72.0151281  26.8211746  66.4535618
  70.7909584  26.8163085  65.5634117  74.7593498  26.7577243  83.9456940
  74.8569918  25.8967924  83.5388851  74.5123005  27.3367238  83.2246113
  60.4415846  16.7973423  58.3508921  60.1904964  17.5065947  58.9426279
  59.6222687  16.3381934  58.1661320   1.1311756  54.3495846  70.9567451
   1.9859825  54.6641159  71.2510300   1.2618100  54.1283703  70.0346661
  96.7990685  33.0367041  36.4946914  97.0301628  32.5759459  35.6881380
  97.6397228  33.2277894  36.9106483  99.8313164  76.3744357   6.8874128
  99.5683788  76.3350227   5.9678705 100.4877638  75.6837943   6.9786222
  89.4485950  42.3775053  55.6843615  89.0791035  42.4468803  54.8040771
  89.4141293  43.2696247  56.0295725   9.4852387  32.5022221  73.9197350
  10.3973614  32.4715233  74.2083931   9.0805851  31.7338967  74.3224382
 108.1205750  29.7656703  21.8835378 107.7045155  30.3722763  22.4960351
 108.5801506  30.3303766  21.2621427 107.7031898   8.9542687  44.8602629
 107.9369545   8.7329882  43.9588070 108.2684708   8.3991671  45.3974342
  81.5417767  44.0377092  71.1164284  81.8340778  43.1468153  71.3090324
  80.6315708  43.9362478  70.8381319  97.3413467  28.9824462  84.0836716
  97.2691441  29.5897484  83.3473301  97.1644783  28.1222343  83.7029076
  19.4745671  44.8878145  78.2403517  18.8850819  44.6388197  78.9522076
  20.2439343  45.2480602  78.6814070 107.3729038  20.7453322  77.5055408
 106.8303776  20.0066662  77.2293758 106.7659950  21.4840627  77.5520849
  65.0509787  32.2657728  71.9743872  64.6068954  31.6767025  71.3644552
  64.4254446  32.9754567  72.1202946 101.4493084  60.9852409  69.8080587
 102.2530937  61.5047646  69.8242664 101.6287231  60.2859879  69.1795015
  65.8827099  28.3978692   5.2382333  66.1946853  27.5112668   5.0570257
  65.0673088  28.2704297   5.7231195  97.0964718  36.2926030  86.7792320
  96.4760780  36.2400579  87.5062752  96.6392708  36.8026590  86.1106205
 108.8823795  33.4796238  73.0457973 108.9246178  34.3500757  72.6498604
 109.7565269  33.1131434  72.9123878   2.0092713  36.8075490  52.5651646
   2.1102558  35.8615112  52.4600697   2.3288761  36.9857454  53.4496593
  78.2316351  25.0867629  52.2056150  77.4895716  25.5748558  52.5624561
  78.0132866  24.1685367  52.3650360  12.0939407  66.3940802  27.5720461
  12.2205505  67.0280149  26.8661173  11.1447582  66.2834647  27.6272447
  81.2294483  83.0515957  47.9660702  81.1367512  83.8903332  47.5142145
  80.3319168  82.7892971  48.1706858  67.3989630  22.7445054  41.9888592
  66.8479204  22.5644922  42.7505493  67.0043468  23.5174561  41.5850592
 100.6083107  48.4048414  64.5302486  99.8750019  48.2185698  65.1165867
 100.9282970  49.2619324  64.8117208  92.8539658   7.6621985  32.1506333
  93.2565498   7.9327041  32.9758525  93.4440231   7.9967880  31.4752769
  87.6003551   0.7780989  67.4372959  86.9498825   1.3409980  67.8571272
  87.4516678   0.8985005  66.4994097  79.9566031  11.6125190   7.5823271
  79.0109682  11.5603304   7.7211684  80.2528286  10.7026350   7.6066548
  14.1624008  27.1929193  86.0320854  13.5364567  26.5005517  85.8198071
  14.5630299  27.4191928  85.1927280  73.9124060  22.7778053  50.6832647
  73.7422419  21.8407273  50.7789660  74.4328642  22.8462052  49.8828411
  91.3722420  12.1077919  62.2918224  90.8741093  11.3669479  62.6371384
  91.3444233  11.9931948  61.3419151  80.1809765  95.1400589  65.7796097
  80.9218289  94.9936365  65.1914501  79.7470070  95.9179150  65.4291248
  62.6459932  22.7572322  87.9372883  62.3566151  23.5638905  87.5109100
  61.8558121  22.4069333  88.3485508  99.6267484  66.8973794  11.2956197
 100.0316595  66.7051545  12.1413953  99.8276304  67.8199032  11.1380537
  72.7232885  13.8024998  58.3530712  73.1226635  14.6644986  58.4700775
  72.6444197  13.4526134  59.2405319  92.4565887  44.4065142  76.8729973
  92.4546528  43.6146212  76.3352871  91.6459179  44.8578072  76.6376638
   2.0951973  46.6778803  83.0120182   2.6844250  47.3807859  83.2857990
   2.6051651  46.1700201  82.3809528  49.0455008  27.3256969  32.0043707
  49.6184349  27.8211665  32.5895953  49.4620085  27.3959231  31.1454058
  79.0304232  15.8127248  58.9090109  79.4803667  15.1767027  58.3528996
  79.2117882  16.6589880  58.5001373  21.5524517  42.5715590  79.5332813
  21.3267170  43.2795382  80.1366425  21.3809620  41.7707586  80.0288010
  84.6111774  47.7245426  62.9297972  84.5106316  48.6659527  62.7888536
  83.7202549  47.3782539  62.8789520  55.3168926  72.1812299   5.0363882
  54.5072804  71.8750766   4.6276815  55.0821743  72.3274115   5.9527738
  11.5890274  55.7667181   7.1546514  12.2917423  55.2231893   6.7982729
  11.6376839  55.6309724   8.1009252   4.2476091 100.5685547   1.1124380
   4.0985928  99.6593693   0.8527906   3.8747559 101.0857180   0.3984697
  72.4020100  15.8937716  51.4287567  71.5647888  16.1327708  51.8264627
  72.6384497  16.6519380  50.8944225  72.2291994  15.4437387  62.2673035
  71.9999313  15.8402419  61.4267969  71.5195847  15.7020402  62.8554821
  46.2750126 101.4439095  81.8577957  45.5403401 101.4125881  81.2450218
  45.8691288 101.3761734  82.7220345 105.5226326  60.6117868  78.6777639
 105.0460148  60.0845575  79.3189335 105.3325748  60.1958275  77.8368759
  92.4461555  18.9459598  87.3662090  93.3423138  19.1879451  87.1325970
  92.5467873  18.3071554  88.0719280  98.7938595  31.0909176  44.4561863
  98.1557083  31.7875767  44.6100044  98.8200188  30.9960151  43.5040617
  89.7647858  26.8049073  47.9817438  90.4288197  27.0209575  47.3270512
  89.5314598  25.8955240  47.7951717  32.5937392  80.2415477  46.6831207
  32.9626824  80.7058298  45.9317541  31.6640784  80.1492201  46.4747095
  85.1286316  32.3244476  47.7414513  85.2384090  31.6894126  48.4491968
  85.3341103  31.8339705  46.9455576  -0.3209152  94.5976475   0.2516420
   0.2287684  95.0422457   0.8969457   0.1521692  93.7904480   0.0495298
  80.3863525  14.5379114  48.1775665  81.0776424  14.6630239  48.8277245
  80.8313942  14.1429925  47.4277544  71.4206482  87.2148322  56.1492920
  71.6599632  87.1770488  55.2232599  70.7493092  86.5401434  56.2508965
 109.2201614  50.3436089  54.4838953 109.1145992  50.8542919  55.2865696
 109.1181183  50.9824467  53.7784100  80.6115818  44.3863678  80.4202175
  80.3985119  43.5433435  80.0200367  79.9822950  44.9984741  80.0387001
  11.4542614  10.7688284  44.4360065  12.2934567  10.3563416  44.6405506
  11.1825692  11.1790264  45.2570724  74.8958397  27.3946571  86.5367031
  74.9322319  27.0998716  85.6267452  73.9619398  27.5039434  86.7158985
 108.0747318  48.5187483  78.6479044 108.4773064  48.6313963  79.5089960
 108.5326862  47.7702475  78.2654762  89.4636345  60.0227261   9.5229858
  89.5797443  59.4422245   8.7708086  88.5554409  59.8863697   9.7928196
  96.0994720  32.6135468  71.9431210  95.8192062  31.7534924  72.2561550
  96.7073917  32.4220824  71.2289762  54.7668156  22.0665017   6.6867120
  54.4779381  21.3661519   6.1016519  55.7086071  21.9250385   6.7828901
  19.8794041  97.9607990   8.3619554  20.1158581  97.0337084   8.3907087
  19.8101959  98.1614950   7.4285944  87.1906471  58.1709099  43.6559725
  87.9779243  58.6389637  43.3778572  87.1743011  58.2739592  44.6074677
  96.4453030  32.2934222  51.9420290  96.5605259  32.4473953  51.0043478
  96.4777851  31.3412213  52.0341587 106.6429329  41.1050606  62.4067259
 106.8119621  40.1974583  62.6595402 106.5284920  41.5675926  63.2369089
  90.7600880  56.2800980  47.2303295  90.3183842  56.9693804  47.7263308
  91.6906548  56.4928293  47.3011732  96.6059780  43.6782265  52.2821093
  96.9380951  42.7908182  52.4179125  95.8539581  43.5661411  51.7006159
  84.9632168  53.9611626  42.5354004  84.9348164  53.0160570  42.3864126
  85.8581448  54.1304398  42.8298140   6.6361462  12.8016579  68.1219959
   6.4013325  11.8983781  67.9094362   7.5933396  12.8066933  68.1217670
  24.5358429  88.8048413  14.6123369  24.8346291  89.6833160  14.8473604
  23.5996590  88.9079717  14.4415815  76.2585211  79.7363281  54.1142750
  76.9354820  80.2328491  54.5740843  75.4878712  80.3035831  54.1377306
   0.8111321  20.0970864  66.5593433   1.0227619  19.4710040  65.8669043
  -0.1442970  20.0791740  66.6146231   3.3164440  39.3402410  51.7276716
   4.1680180  38.9290977  51.5792990   2.6841103  38.6319923  51.6061640
  98.6099148  50.1759529  51.0216045  98.7096977  49.9411011  51.9441700
  97.6682091  50.1179171  50.8601809   2.6481663  45.0605583  88.3422470
   2.4715172  44.4692039  87.6105881   3.4720551  44.7438908  88.7126160
  83.4422493  28.9647341  45.8478498  82.8690910  29.7003269  46.0637760
  84.3273258  29.3230939  45.9146309  85.7235050  30.2951479  79.9565125
  86.2695980  30.5948806  80.6832695  85.0251961  30.9471011  79.8968887
   0.1293503  59.4426107  45.2732372   0.5024086  60.2545834  45.6163931
  -0.4718841  59.1474867  45.9570885  90.4323769  55.0636673  82.2133636
  90.8123970  54.8017836  81.3747787  90.8534241  55.8988857  82.4167347
  86.0059834 100.0652599  77.5553942  86.3332748 100.9143829  77.2585726
  86.7847061  99.5103645  77.5990438 102.5074482  24.1844177  77.9394722
 103.3095360  24.3284607  78.4416056 101.9491768  24.9297714  78.1608534
   7.0964180  30.6954765  50.5048370   6.1584984  30.6934166  50.3137159
   7.1474396  30.8186245  51.4527082  96.5668488  39.4980669  27.1680999
  96.5304375  38.7150574  27.7174664  95.7030106  39.8988914  27.2648168
   8.5836159  28.0532289  35.9559751   8.1293808  28.1644154  35.1207876
   8.6519944  28.9394140  36.3112664 103.2339954  39.2709303  27.6783800
 103.0367756  38.3815551  27.9722285 103.8721752  39.5968628  28.3129859
  18.6699520  21.6710401  80.9166241  18.1749855  22.3047733  81.4358807
  18.2645356  21.7026329  80.0500965   1.1591374  44.6480083  54.2185593
   1.6778790  44.3304539  54.9576807   0.2560173  44.4293118  54.4482613
   6.8542801  17.0091164  82.4358463   6.4160382  17.2801280  81.6291714
   6.8851315  17.8028452  82.9699516   1.8905388  56.5083408  59.7713995
   2.6783596  56.1720467  59.3442297   1.4040028  56.9413185  59.0699387
   3.4606873  48.5581303  80.1776695   4.1358601  48.8147259  80.8057880
   3.8740860  48.6717844  79.3218613  97.7774620  34.8130655  62.4770212
  97.8928185  35.3671074  63.2490063  98.6612606  34.5149732  62.2619104
  17.6067578  65.7232714  60.0226974  18.4457337  65.2786875  60.1439047
  17.6666771  66.5026426  60.5751610   3.9662587  21.5924883  12.0047867
   3.9833008  20.8610320  11.3876045   4.4431435  22.2928166  11.5594184
  84.0494061  72.9804277  56.5422916  83.7802792  72.0978880  56.7971134
  85.0032043  72.9309511  56.4785671   7.1030175  55.2299929  58.6048222
   7.5181233  56.0123158  58.2416439   7.4580132  55.1599789  59.4910002
 107.5004005  31.9747996  61.9008112 107.1361732  32.8323340  62.1203566
 108.3403492  32.1705222  61.4855766  19.7024857  45.7766533  51.8679476
  20.2003800  45.0552511  52.2525358  18.8411270  45.7205105  52.2816420
  81.0012531  27.7488446  55.5655193  80.8074093  26.9976091  55.0048923
  80.9840870  28.5005260  54.9731398  13.3239971  73.2994843  84.1789436
  12.6026856  73.2439184  83.5521698  13.5072075  72.3899889  84.4145012
  83.4020329  29.2738199  76.1014891  82.7400684  29.9489093  75.9522104
  84.2294121  29.7537184  76.1386061 102.4928284  72.5680876  41.4103222
 103.0599499  71.8165445  41.2377024 102.1385670  72.4050283  42.2844744
  98.0941963  28.5803819  66.7427349  98.1243610  28.6446190  65.7881689
  97.1609879  28.6001396  66.9547510  46.7464908  25.4728738   0.3278501
  47.0051178  24.9223510   1.0669477  46.9714722  26.3621560   0.6013258
  76.0242891  38.5107040  70.7939005  76.0400581  39.4640136  70.8786631
  75.1380968  38.3117437  70.4917145   1.9808136  59.0556622  70.4957724
   2.8288876  59.4795322  70.6274128   2.1893250  58.2378101  70.0442457
  82.6754665  63.4481192  82.9564381  83.2582474  62.6906586  83.0098915
  82.1148014  63.3739138  83.7286949  30.2936589  50.4852152  63.6681890
  29.6799122  50.8895540  63.0549526  29.8213612  50.4635763  64.5004749
  86.7769718  57.1967030  69.8426914  86.4747334  57.0889282  70.7445049
  86.4297199  56.4335585  69.3808842  32.2413479  61.9784880  43.4055710
  32.9243695  62.6155949  43.6148739  32.6900135  61.3060188  42.8930187
  11.4803158  35.6312299  75.5992699  11.3696419  36.5029025  75.9789705
  12.2385346  35.2658916  76.0551929   1.9305073  26.3834071  68.2774639
   1.1527001  26.3995719  67.7198029   1.6103779  26.6392088  69.1425133
  12.9073845   6.9580686  36.7361617  13.4061276   6.8071288  35.9332275
  13.5524880   6.8736166  37.4382663  14.4582878  46.1667204  39.3622541
  13.5422264  45.9646749  39.1718912  14.4207608  46.7801380  40.0961065
 101.3420486  55.3918028  50.8396816 100.4485130  55.7194901  50.7374334
 101.6903019  55.3637123  49.9485254  16.0641705  33.7395334  43.9562607
  16.7618023  34.3489861  43.7152100  16.4188706  32.8751206  43.7484121
  86.1978531  39.8931599  51.6139221  86.7659378  39.7580886  50.8554554
  85.8428860  40.7739067  51.4934683  94.3579865  40.5081367  11.5653563
  95.0839710  41.1292887  11.5074611  94.1996861  40.2397156  10.6603038
  95.1088524  47.3142719  72.7931118  94.7751904  46.5773630  73.3048391
  94.7839642  48.0899525  73.2502699  99.9831295  56.0267925  54.4390917
  99.6870995  55.3919220  53.7867641  99.8255825  56.8789768  54.0326500
   5.2983700  62.3266935  86.4968300   5.8934437  62.8754473  87.0077038
   5.2279507  61.5160131  87.0008850 101.4942169  42.6700974  36.0470390
 100.6015491  42.8572798  36.3374543 101.6983128  43.3739710  35.4312992
  91.2384224  14.3600023  51.8544340  92.0620155  13.8817644  51.9504261
  91.3458252  14.8622227  51.0466766 107.5985146   6.3185203  16.7443073
 106.7195797   6.0260004  16.9854200 108.1617069   5.9862214  17.4433255
  17.0438420  45.7757950  38.4997177  16.1886250  46.2056446  38.5080409
  16.9041287  44.9742317  37.9955268  13.6770378  57.4002123  61.0094261
  13.7009369  57.7232027  60.1086855  13.7138020  58.1904602  61.5482998
  89.7939301  60.2223301  60.8777428  89.0359688  60.8000422  60.7884598
  90.2465916  60.5401230  61.6589832  89.9206543  19.0540171  42.5857687
  89.2555523  18.4530926  42.2499704  90.0963116  19.6486247  41.8565083
  98.5476398  31.2550902  39.1175604  98.0488014  30.6832457  38.5341334
  99.0032673  31.8579650  38.5300446   1.7484986  41.2679529  27.0073795
   1.5268551  41.8956041  27.6952434   1.1454045  41.4727783  26.2928534
  73.5758734  60.1489305  78.3315945  74.1837358  60.6421614  78.8824606
  73.4003592  59.3482876  78.8259602  62.6347145  23.1843225   1.3123949
  62.5086578  22.6616088   0.5204923  62.0678600  23.9457694   1.1895330
  93.6339092  45.2813816  73.8491583  93.9342213  44.9238348  74.6847439
  93.7791824  44.5746326  73.2201576  74.2813969  63.5932541  31.2698054
  73.4184980  63.3564186  31.6097212  74.5695543  62.8185511  30.7870674
  80.6980133  25.7846999  53.1141663  81.2495613  25.6428218  52.3448181
  79.8089266  25.8419895  52.7642012 105.5821800  17.4541354  62.8026390
 106.1728573  16.7486978  63.0666161 105.1338100  17.1139646  62.0283747
  47.1590885  28.1422178  10.7500990  46.5545162  28.4300701  10.0660951
  47.9680141  27.9339925  10.2826460  84.8918056  37.8738260  73.7251377
  84.2031193  37.8247285  73.0621624  84.4571590  37.6250148  74.5408678
  10.3920018  37.1539736  82.8033257   9.8167359  36.6571403  82.2215652
   9.9310051  37.9803658  82.9475117 103.9284515  32.1573615  66.4147758
 103.5704803  33.0356407  66.2854910 103.1616020  31.6073513  66.5749693
  68.6647495   8.8258401   5.7097490  69.4617065   8.8404647   6.2397344
  68.8286575   9.4615642   5.0131662  94.9201584  31.6204762  54.5472193
  94.1049004  31.9920111  54.2102623  94.7505665  30.6799507  54.6009016
 107.3340988  25.6379485  50.7811213 106.6625023  25.9309697  50.1652288
 106.9286633  25.7368827  51.6425514  72.1174145  80.3007030  73.1907320
  72.2709799  80.0564766  72.2780418  72.7268505  81.0210514  73.3517122
  92.8305054  70.1196003  44.7770929  92.2289276  70.8244514  45.0169230
  92.3742676  69.3179321  45.0328398  83.2208443  84.1884136  49.4193602
  83.3083916  85.0264549  48.9652205  82.5169563  83.7363052  48.9541912
  16.0242497  35.2271461  78.0101490  16.8771302  34.8161340  78.1512165
  15.9314381  35.8420968  78.7377834  86.8115782  77.8379610   8.2236536
  87.6425432  78.2978561   8.1043871  87.0434545  76.9101313   8.1837042
  20.4604756  36.3917685  78.6693668  20.6501519  37.1914434  78.1786823
  21.2270390  36.2664890  79.2287540  90.5463600  53.2046795  25.8969164
  90.0272942  53.0894375  26.6928625  90.8543205  54.1099262  25.9407783
   1.7429291  21.1978889  56.0037088   1.1773812  21.9225860  55.7368898
   1.1553036  20.4445791  56.0624456  12.4841725  15.8306813  60.1433802
  12.8943478  16.6718769  60.3443241  13.2176243  15.2463388  59.9514914
  93.6015606  43.6279917  79.4918060  93.2388592  43.9229679  78.6565351
  93.9933777  44.4134760  79.8735380  80.3395271  71.7736912  22.1231198
  80.2608585  72.3084450  21.3331318  79.4490051  71.4675188  22.2947574
 105.1993847  59.0120363  76.3374519 105.9465885  58.4322071  76.4848328
 104.4333744  58.4620619  76.5017271   4.5317208  37.9549313  58.4549618
   5.3121029  37.6851702  57.9707575   4.4866978  38.9025950  58.3279228
  50.1016220  27.1497289  13.3764990  50.0499042  28.0631391  13.6579855
  49.1908535  26.8569700  13.3446844  82.0994949  21.5995979  70.9371614
  82.6663303  22.3606038  71.0628605  82.6380920  20.8535862  71.2010050
  82.8588486  16.3904035  88.0758286  83.5248566  16.2323987  87.4067307
  83.2560921  17.0347095  88.6617374  16.1406574  95.6461409   4.0588052
  16.3575611  96.4711454   3.6245783  16.3717423  94.9714592   3.4203489
   2.6235997  73.6784458  58.9745808   2.9456555  73.6323166  58.0743694
   2.3281609  72.7890110  59.1691399   5.6689202  14.8737633  58.8513947
   6.1244522  14.5055246  59.6084404   5.4188668  15.7553923  59.1278601
  29.0208374  74.1106844  45.6610727  28.5229241  74.6716928  45.0664473
  28.3822762  73.8301182  46.3166285   2.1244656  21.7300463  61.3787746
   1.8730675  21.4615822  60.4950523   3.0333840  22.0174718  61.2923241
  92.6955509  40.9309816  88.2396507  93.6318493  40.8490372  88.4209538
  92.5597191  40.4163790  87.4440575  76.4009333  60.7866955  76.5691471
  76.7942762  61.5708113  76.1861706  76.3394642  60.9818554  77.5042200
  90.3060436  88.6115646  78.1279898  90.0918388  88.2629013  77.2626686
  91.1505699  88.2157993  78.3433342  98.3603764  20.6204438  64.4523335
  98.6879349  21.5196633  64.4338179  97.8987694  20.5508447  65.2879858
  73.7336334   3.3541385  50.0775297  72.8763088   3.1814186  50.4666288
  74.3460926   3.2928077  50.8105810 100.2061844  38.5318923  53.1501007
 100.4866505  38.1798530  53.9948750 100.6208992  37.9611516  52.5031853
  18.2395874  54.3609095  78.7139702  17.5274216  54.8222208  78.2709837
  18.5480915  53.7226105  78.0708265  81.4820862  42.5839376  64.4638968
  80.5643940  42.7898502  64.6418524  81.4767361  42.2070980  63.5840130
  76.0108900  22.2011161  32.9485106  75.1673841  21.8222022  32.7012157
  76.6490602  21.5165186  32.7477884   8.0906330  37.9919982  74.7028160
   7.8207909  38.2101607  73.8107252   8.3612095  37.0751476  74.6537447
  11.0046253  98.1033018   4.8877771  11.4663658  98.8895252   5.1791151
  11.1138687  98.0999258   3.9368398  95.2624226  28.8281226  67.6157856
  94.9196243  29.5081043  67.0358324  95.6015587  29.3069482  68.3720541
  44.4415737 100.1341610  48.4160280  44.9942280 100.8346457  48.7626171
  43.5939194 100.5515268  48.2626486  92.7896881  47.3689365  55.0466681
  93.1597233  47.0053196  54.2422485  92.1548080  46.7135572  55.3358650
  30.7307564  56.4274693  61.2382889  29.9698387  56.4159727  60.6576777
  31.1569725  57.2653580  61.0579824 108.0927658  49.7415161  60.5133200
 108.6075497  50.0410843  59.7639990 107.1829891  49.8258686  60.2279854
  29.4350014  86.3389590   8.3221777  30.1206837  85.6896952   8.4787805
  28.6329517  85.8239081   8.2346399  89.7798347  74.8702908  49.2066288
  89.5415592  73.9462042  49.1323090  90.5614471  74.9606848  48.6615133
  84.5946884  22.4638867  62.4943733  84.2394447  22.3302293  63.3731079
  84.9506378  23.3522558  62.5124931   1.9294106  78.4654999  39.8272204
   1.6671025  77.7738142  40.4346704   1.2348210  79.1205406  39.8957372
  46.9666179  16.4546911  18.8250311  47.3079094  17.1827070  18.3056696
  47.7160915  15.8704988  18.9400823  50.1178513  85.8986237   0.3721960
  49.1926632  85.7353523   0.1888998  50.2918778  86.7550424  -0.0183146
  77.9192528  32.5130645  26.6418417  76.9852527  32.4258224  26.4514120
  78.3109363  32.7697936  25.8070238  76.0583973  38.8674688  58.1898117
  75.3212452  39.3791294  58.5230398  75.9756422  38.0179787  58.6231136
  45.5917915  15.5363885  25.1792677  44.6349224  15.5127231  25.1872594
  45.8171734  16.2937013  25.7195528  14.5796427  10.7717172  22.9550989
  14.7825703  10.7776586  23.8905199  14.7266849   9.8656074  22.6838644
  12.6898800  45.0128222  12.1672118  12.2487961  45.7511806  11.7470837
  12.1691548  44.2493486  11.9178271  93.4908390  50.1673841  60.2752066
  92.9846478  49.9206829  61.0492468  92.8692627  50.6429577  59.7241068
  93.8240719  54.4557381  52.1007395  94.2241955  53.6275578  52.3657942
  94.5654678  55.0233269  51.8900347  55.8585628   0.8456460   1.7460783
  54.9342903   1.0838071   1.6737325  56.2649235   1.5931980   2.1845682
  19.9012410  82.9708672  69.2239857  20.4085671  82.9388714  68.4129143
  19.4750534  82.1152401  69.2738295  28.5364374   6.3015453   7.3175295
  29.0112528   6.5288679   6.5180929  28.6558136   7.0589105   7.8905733
  90.2234268  48.0562592  77.5251722  90.9288502  47.5978565  77.0685816
  90.3017998  47.7704287  78.4353304  85.4591656  45.4979181  64.1401863
  85.1832867  46.4133215  64.0937138  84.6838474  45.0295210  64.4495678
  84.2897224  16.8055236  28.4001589  84.2323971  17.6691353  28.8089657
  84.9643326  16.3475096  28.9015126  99.3088245  71.2250376  50.9573126
  99.5508289  70.6428909  50.2370548 100.0945854  71.7477989  51.1171007
  18.4794651  65.1078987  46.8154907  19.0399395  64.4008827  46.4957619
  18.8823925  65.9061003  46.4738035 100.9590054  59.2005062  16.0424459
 101.6882038  58.8354063  15.5412459 100.9870720  60.1391411  15.8569527
  18.3591114  36.6538191  43.4122849  17.4564205  36.9453096  43.5404253
  18.6893879  37.2027588  42.7010775  94.4295216  48.8241911  56.6321850
  94.3829155  48.1385803  57.2985172  93.6237240  48.7213087  56.1258936
 102.4920915  97.5707987   8.5584886 102.0230411  97.7279356   9.3779619
 101.8071388  97.5528934   7.8901060 102.7473927  26.6469288   5.8078688
 101.9815826  26.1543751   6.1030960 102.5003910  26.9791150   4.9448079
  14.1111145  72.1795919   6.2550028  13.3712826  71.8515280   5.7438715
  13.8983498  71.9492176   7.1593721  18.0016457  29.1688323  65.6746578
  17.5703846  28.3289194  65.5172300  18.0690419  29.2285705  66.6276121
   2.2360932  44.1773510  46.4390278   1.8261467  43.5565233  45.8367443
   2.1672093  43.7593889  47.2973967 107.6245880  31.6280532  88.0696774
 106.7963505  32.0042586  87.7717972 107.6208878  30.7359028  87.7228546
  -0.0204433  56.0368824  44.9993706   0.7556092  56.5601063  45.1999140
  -0.1350940  56.1312151  44.0537548  99.9799442  24.6260500  55.7988834
 100.3978920  25.3513193  55.3346252  99.7098446  24.0225458  55.1067448
 108.0415344  70.5345249  52.6764488 107.6640987  70.9706545  51.9125319
 107.5103951  69.7461843  52.7889156  79.8705959  54.5797920  46.3930845
  79.3115711  55.2720737  46.0402870  80.6287003  54.5631218  45.8089399
   8.9280640  40.5436659  80.1359367   9.7977387  40.3625202  79.7794628
   8.3233200  40.2129173  79.4717646  50.7896694  46.2694827  11.6648157
  50.1691040  46.3991920  10.9476621  51.1387237  47.1432868  11.8405111
   0.4310929  40.6928253  49.8088264   0.6002365  39.7507048  49.8035192
   0.6327664  40.9673405  50.7033682  16.3527523  50.0870895  71.3699675
  16.6952645  50.9389448  71.0993052  15.7774483  49.8213387  70.6525850
 105.6086349  33.4041309  57.8032589 105.5632496  32.7300286  57.1252012
 104.7117043  33.4763169  58.1296444  26.7037522  47.9287291  72.4030209
  25.7505547  48.0000830  72.4536180  27.0036637  48.8258839  72.2567558
 104.9333000  78.3432245  81.3561726 105.1234722  79.0884161  80.7862949
 104.8647976  77.5973129  80.7602215   5.0014435  62.7854967  66.2507296
   4.9945484  63.7050962  65.9851789   5.8262001  62.6792717  66.7247820
   2.3837601  78.9599943  71.2251282   2.4103962  79.2771816  70.3223991
   2.0666348  78.0597067  71.1534071  88.2980442  72.4413681  48.7998009
  87.6728439  72.9506397  48.2840395  87.7679729  71.7611122  49.2151499
  99.7727489  41.9483709  88.5814381 100.0981140  41.7361307  87.7066135
  99.9861813  41.1790800  89.1095161  31.7410885  57.7572393  79.9035454
  31.7845093  56.8789911  80.2817440  32.4576985  58.2340431  80.3223038
  25.6035458  51.4556313  57.1376896  25.1510369  51.7925262  56.3644075
  26.5093170  51.7460871  57.0306730  97.4922180  84.2322922  79.8889732
  97.6251507  83.8905811  80.7731724  97.5048161  85.1834679  79.9953842
  90.7694721  39.8217249  61.9986057  91.6144085  40.2652597  62.0734072
  90.4202557  39.8197842  62.8898287   2.1411167  37.3785114  55.2414465
   2.5277840  38.2443118  55.1106548   2.1177517  37.2677350  56.1919308
   9.2766987  54.5302105  70.3269005   9.9993931  54.6622181  69.7132874
   8.7987267  53.7788200  69.9759293  86.5026165  93.0146705  50.5025196
  85.9313561  92.3331701  50.8567095  86.4085652  93.7467002  51.1120415
 107.0863438  37.9147339  44.1163301 106.6007900  37.2444272  43.6355495
 108.0018520  37.7609038  43.8830519   9.7899472  38.7882662  25.1473761
   9.1367470  39.0504885  25.7960653  10.0485646  39.6066332  24.7235584
  20.3328358  27.2229981  20.5379081  19.7707115  26.5263319  20.1989317
  20.7249008  26.8512702  21.3280582   5.4992806  73.2551289  40.3100634
   5.7885968  72.4613762  40.7600498   5.8121144  73.9713049  40.8627510
 108.7457737   9.9057332  11.3408334 108.4791740   9.9248592  12.2599657
 109.1627773   9.0512840  11.2301405  93.9112663  16.1530864  41.0096455
  93.9354324  16.8802893  41.6315985  93.7521839  16.5681458  40.1619148
  84.7513866  28.7912226  58.7374830  84.7480011  29.5375276  58.1381130
  84.0754032  28.2062054  58.3953667  21.3426148  55.8427238  78.0127001
  22.1345078  56.0410166  78.5125113  20.9626614  55.0846386  78.4567451
  74.3791389  75.1562881  61.9047546  75.2321863  75.2531910  61.4814854
  73.8574314  74.6529198  61.2797165  87.7433014   1.9680487  43.7657022
  87.4122334   1.8391296  44.6545267  87.9867744   2.8931749  43.7326384
   7.6018177  47.1426916  54.9811649   7.1814667  47.5382423  55.7447577
   8.1549679  46.4507914  55.3438377  98.7895393  22.9095387  75.6084967
  98.5146427  23.7981939  75.8342218  98.4455395  22.7692103  74.7263432
 103.6961651  24.0259027  55.4733610 104.5558548  23.6076760  55.4258442
 103.2295227  23.7024140  54.7027540  83.9949703  33.4465384  62.6596689
  83.7984276  32.6235747  62.2120810  84.8971844  33.3447838  62.9627991
  88.0214691  50.3489542  68.6910486  88.4553623  51.1170006  68.3194685
  88.7025738  49.9137402  69.2037916  18.7031399   1.7487597  65.9489870
  18.9681088   1.6949631  66.8672085  18.3867298   2.6459342  65.8431816
 101.2500095  29.8470807  47.3920012 100.3069782  29.9809027  47.2970629
 101.5147591  29.4211578  46.5766907  88.3541393  31.0730672  57.8436279
  88.8218117  31.1791444  58.6720419  87.5511837  31.5820718  57.9550028
  59.0036545  95.1607683   8.4398706  58.3773480  94.8953512   7.7664335
  58.4621773  95.3739193   9.1998727  78.9706087  56.6287136  49.2037392
  79.7800922  56.6203260  49.7145176  78.8090324  55.7084370  48.9958525
 107.4336624   1.6887297  39.4863224 107.2133827   2.4678367  38.9757347
 106.6203785   1.1848956  39.5173979 102.4670792  11.9413090  71.9205523
 102.7614403  11.6463089  72.7822733 101.5687656  12.2393894  72.0634127
  99.2799377  31.7486119  53.2071257  98.8047504  31.7089224  54.0370941
  99.9799728  32.3827934  53.3620214  20.8606564  60.2042341  21.5965915
  21.5130078  59.5886087  21.9307756  20.6964814  59.9153757  20.6989074
  83.7112617  25.4753757  66.5061903  84.2544556  26.2422752  66.6879416
  83.8227844  25.3197026  65.5683422   1.9624554  41.9072866  59.8539591
   1.7954003  40.9928083  59.6258020   1.5803467  42.0103407  60.7255173
 100.1976299  73.8462400  44.7955036  99.6130180  74.5688868  44.5669508
 100.4207039  73.4439611  43.9560747  11.1337315  44.7848701  53.8088131
  11.9982468  44.4258928  53.6088896  11.1129032  44.8413277  54.7641182
  15.4033028  24.4468641  60.4911375  15.8619725  24.3574953  61.3265228
  15.6372010  23.6569262  60.0037718  79.2761660  37.5853539  73.5970545
  79.9929333  37.4913335  72.9696512  79.2167759  38.5278320  73.7533808
  94.3902683  52.6849937  74.6041250  94.3326283  53.6364126  74.5163059
  95.2993107  52.5223446  74.8559427  84.4202137  25.9880424  63.9285326
  84.5827579  26.9292974  63.8665152  84.3434906  25.6978369  63.0196142
   7.4995648  34.2882395  65.5209112   7.9135071  34.6323180  64.7293949
   8.2053505  34.2587352  66.1668396  90.0361443  58.2793474  49.4405079
  89.1198540  58.0869627  49.6395731  90.5206203  57.9442310  50.1949644
  93.9476681  23.2368636  65.0455093  94.5384216  22.7811551  64.4458675
  93.0706787  22.9985452  64.7449684   6.2004315  38.0200267  63.1537724
   6.3226067  37.3997808  63.8725233   6.4044701  37.5165653  62.3656559
  88.2435036  40.2079487  57.0984697  88.5091114  40.6140184  56.2733650
  88.8335228  40.5843353  57.7514935  93.7059402  94.0562916  58.0937290
  93.1380939  93.3002472  58.2426739  93.1491852  94.8134613  58.2752895
  85.8521938  48.3448935  58.7167549  86.5285587  49.0202808  58.7679052
  85.1841545  48.7180042  58.1416464  26.3989506  80.5662563   3.6480482
  26.4398537  81.5059021   3.4702070  25.4839287  80.3325608   3.4919698
  45.3681622  98.4883860  13.8537939  45.0287018  97.6194265  13.6395414
  46.1497746  98.3173349  14.3792017   8.8679825  21.6935492  52.6427507
   9.3056427  22.4411845  53.0498505   9.2121350  20.9316278  53.1088686
  44.0908657  42.6946878  74.6516895  43.8051926  43.5169601  74.2535830
  44.0964257  42.8731060  75.5920982  80.5038341  27.9165212  13.0094774
  81.0622772  28.3123151  13.6785944  80.1668819  28.6593906  12.5086458
 108.1704807  66.8703651  64.3063593 107.4780846  66.5334654  63.7377501
 108.5783768  66.0875845  64.6766472  86.8684292  49.3931246  85.7559204
  86.9473267  48.9404202  84.9162388  86.2196255  48.8844252  86.2422466
  22.7127682  71.2099552  78.6149025  21.8694626  71.5570736  78.9057255
  22.5116764  70.3316545  78.2918072  42.4403915  89.6157029   4.6353967
  41.5265808  89.6073225   4.9202211  42.5248108  90.4210642   4.1250093
  18.0298649  54.0707541  47.8938246  18.9170300  54.0351343  48.2514620
  17.4754845  54.2711687  48.6479616  33.2698857  82.9472446  75.2525854
  34.2257820  82.9460430  75.2025700  32.9876458  82.5034618  74.4528151
   7.0317017  41.8779659  77.5027561   6.4997040  42.3911333  76.8945885
   7.0782410  42.4160385  78.2930374  53.5872326  88.3063081  20.0031717
  53.6949120  88.9849332  19.3367632  52.6653252  88.0558589  19.9431856
  92.3201847  31.1991048  58.8296986  93.1311607  31.3467622  58.3431244
  91.6437531  31.1387587  58.1551456 105.4570389  45.8957863  78.0105257
 105.3972054  46.7911482  78.3436537 104.6985340  45.8035517  77.4339867
 109.2484283  71.1790276  88.7736416 108.5270596  70.5978155  88.5327053
 109.9164963  71.0208178  88.1066513  63.4384712  18.5032216   1.7616995
  62.9603561  17.6740018   1.7668207  63.3692821  18.8251439   2.6604898
  84.9210247   4.8420326  20.2962263  84.1420635   5.2305213  19.8980768
  85.1980861   5.4807130  20.9531553  18.3119808  70.2145243  41.7949295
  17.4892746  69.9487591  41.3841295  18.9254223  69.5122290  41.5788221
  76.3812447  34.3589354  64.5199919  75.9062910  33.5484695  64.3361521
  75.7615185  35.0547147  64.3007660 104.9718285  74.9793291  58.6434364
 104.0633011  75.2067614  58.8411236 105.4168797  75.8225536  58.5589933
 103.6787987  72.5973368  28.2878733 104.1997623  73.1666327  27.7215409
 104.2160606  72.4827671  29.0717435 102.7877140  22.1965718  45.7925129
 102.8347969  22.4283385  46.7200375 103.3981037  22.7968502  45.3643560
 108.5716438  61.1263943  76.1466599 108.2242584  61.5352345  75.3539419
 108.9067841  61.8573093  76.6659689  86.6832542  72.9203987  56.8941784
  86.8442249  73.5753489  56.2149429  87.3576641  73.0874300  57.5525856
  49.9317344  12.3364297   5.2737291  49.9504932  11.4052860   5.4947431
  50.6967148  12.7032653   5.7169683 100.8667755  60.8982468  63.1095314
 101.1603642  61.3440275  63.9040852 101.2106228  60.0088406  63.1929398
  16.4126145  44.2459631  42.5533199  16.3483845  44.8459864  43.2963371
  17.2960411  44.3823624  42.2109842  12.9539524  11.9113648  73.7727499
  12.6489006  11.5312576  72.9489183  12.5121151  12.7589655  73.8235664
  77.8967142  49.8088455  57.3000240  78.6851406  49.4060040  57.6637983
  77.8379536  49.4598389  56.4106560  91.4011765  85.9062004  58.8524055
  90.7909489  85.1963043  58.6526537  91.6443253  86.2607765  57.9971933
  69.9831470   4.0496532  22.6172788  70.8201679   4.3855802  22.2966631
  69.9352344   4.3521015  23.5241754  34.8573456  99.3637636  24.8755701
  34.1195259  99.9334171  24.6579607  35.3075085  99.8167398  25.5885942
  21.0261856  53.0957794  48.1514215  21.6103875  53.5320044  48.7716150
  20.9746777  53.6963558  47.4078560  92.0011711  59.5430279  59.3637800
  91.2801838  59.8536921  59.9113989  91.8160343  58.6136818  59.2286015
  80.1199055  49.0418577  81.7900753  79.6052313  49.0868664  82.5958824
  80.6715202  49.8237610  81.8142128  15.1506172  78.8506222  77.5305986
  15.6956707  78.3002901  78.0929899  15.5435788  78.7684155  76.6616583
  96.7538929  33.4949756  82.6289272  96.3465595  33.8631582  81.8448639
  97.4666214  34.0997624  82.8350544  57.0647796   7.0616094   0.3999670
  56.3685402   6.4106981   0.3115995  56.6795715   7.8713266   0.0649889
  24.9482476  72.1077824  84.1571617  24.6319805  72.8507662  83.6431789
  24.1795002  71.5481997  84.2673302  45.4000435  88.7192729  10.1419027
  45.1077995  88.4100225  10.9993417  45.9365044  88.0042937   9.7994955
  88.6900234  70.8987284  80.2027607  88.6313343  71.1853600  79.2913675
  89.1407204  71.6147327  80.6504631   9.5871697  76.0749247  14.3344362
  10.4805813  76.1836985  14.0085275   9.4961224  75.1322964  14.4737013
  81.4875698  67.1508741  19.4933498  81.2073040  66.2651062  19.2629170
  82.3121738  67.2712994  19.0224409  87.8476906  42.1634340  48.2134628
  88.2602215  42.9946852  48.4481478  86.9082069  42.3404646  48.2609797
   0.8951031  33.5645628  31.6522670   1.3803898  33.3611846  32.4518681
  -0.0062431  33.3081341  31.8473625 109.3171120  50.5509090  58.2510281
 109.0476608  51.3337374  57.7706051 109.0302372  49.8218346  57.7011347
  91.4053440  72.4900579  59.6419239  90.8043671  73.1965876  59.4055271
  91.1438465  72.2396088  60.5279970  82.8152752  91.0504723  33.1729650
  83.1320190  90.3338623  33.7228489  83.3660221  91.0137653  32.3909426
  64.7054657  10.8286849   3.0094583  65.2354797  11.5423528   3.3644254
  64.2445072  10.4720966   3.7688024  80.4076385  64.4329453  53.1217337
  81.2959862  64.1593409  53.3502245  80.4117680  64.4861603  52.1660233
  81.7020321  68.8608551  59.1433907  82.1549034  69.5167828  58.6133862
  80.9983730  68.5409594  58.5788059   0.9262310  96.2885857  85.7706547
   0.5696713  95.8842278  86.5616035   0.8928715  95.5954170  85.1113892
   1.1055313  90.3055954  80.8674908   1.2162529  91.2266922  80.6317902
   1.6543232  90.1891994  81.6430664 100.4810047  78.6383247  76.4725542
  99.5267963  78.7078762  76.4429712 100.7859612  79.2352200  75.7892179
  90.7071877  33.7444854  64.7086430  90.2369404  33.9145494  65.5248404
  90.7521248  34.5971370  64.2759800  79.9963713  59.4980431  49.6238661
  79.5116806  58.6869240  49.4709063  79.5382547  60.1536179  49.0979576
   4.5605885  44.4597244  56.1463022   4.8563992  45.2804232  55.7523680
   3.8423191  44.7167730  56.7244387 106.4649773  78.6517668  47.6158619
 106.0532188  79.4633770  47.3192549 107.1532059  78.4832525  46.9722891
   6.0703503  80.4414177  69.3448353   5.2035462  80.8305836  69.4607687
   6.4727246  80.4902172  70.2119827  11.6148220  89.3732548  62.8268957
  11.4799343  89.4355583  63.7724924  12.1630322  90.1281834  62.6129103
  97.0572090  42.1049976  64.8020172  97.7643967  41.8575668  64.2062855
  96.7959690  42.9794979  64.5135212  53.4621846  70.5864382  59.0778160
  52.7387081  70.2467394  59.6045113  53.3033596  70.2388620  58.2002020
  93.0093384  98.2051563  67.5841999  92.1703434  98.4339428  67.9841709
  93.0883217  97.2605133  67.7170277   1.7526757  30.6299043  65.5868101
   2.0015942  29.7255993  65.3957462   2.3803650  30.9159923  66.2504292
  99.8154545  78.1616688  64.9862242  99.8550892  77.2194576  64.8222065
  98.8907814  78.3847189  64.8791933  35.1944958  95.9728432  45.8707762
  35.7371079  96.7324924  46.0822916  35.8220803  95.2726269  45.6916809
  97.1380806  68.5659409  45.7062578  97.2099304  69.0208912  46.5453577
  97.3313427  69.2376566  45.0522900 105.8581924  23.0505109  60.1486063
 105.4088020  23.7213182  60.6627035 106.7866611  23.1853604  60.3383160
  12.8294693  66.7197371  79.6524906  12.6607071  67.5782108  79.2642021
  11.9672333  66.4070654  79.9263954 106.0522175  83.0645752  77.8010750
 106.5270710  83.4812450  78.5201931 106.6980648  82.4915791  77.3878002
 101.2220860  45.2322721  74.4774723 100.7988453  44.3915749  74.3033123
 100.8660793  45.8219004  73.8127708  99.8348411  31.9037238   2.0884760
 100.2083763  32.6730243   1.6584928  98.8897022  31.9986431   1.9703920
 106.4558411  51.4690208  62.1496248 107.1790791  51.0613871  61.6731834
 105.9750080  50.7338810  62.5298929  94.0722561  93.0385780  51.7848873
  93.8636875  92.1290302  51.9980860  94.6999454  92.9779053  51.0647821
 107.7730274  91.2493038  72.2235775 108.1252098  92.1178818  72.4179029
 108.5145855  90.6569099  72.3476553  91.1795712  67.0470095  64.0006208
  90.8849144  66.9831371  63.0921459  90.5589008  66.5090132  64.4921112
  97.4109745  80.9065628  69.1938353  96.9055080  80.4315662  68.5342026
  96.7600155  81.4247799  69.6670532  14.8458325  60.9225368  62.8460169
  14.6054779  60.2262831  63.4573174  15.4302727  60.4984140  62.2177029
  42.3823128  87.7623775  12.3617513  42.0739136  88.6673549  12.4080236
  41.6962109  87.2531751  12.7932699 109.1599083  27.7907705  50.5985403
 109.5260715  27.2899652  49.8695993 108.5356903  27.1931124  51.0101032
  87.9328823  66.4661169  79.9796867  87.3167515  66.6776943  79.2783642
  87.8136444  67.1654415  80.6223106  56.1469635   7.3256294  24.6009882
  56.9472011   7.7331344  24.9323328  55.9900078   7.7550355  23.7600286
  94.1313839  53.4210825  79.8888969  94.3679905  53.0868578  80.7540798
  94.2585754  52.6761913  79.3013716  92.2161579  26.4204979  71.9321871
  92.2373867  26.6055512  72.8710890  92.7443886  25.6285357  71.8321562
  27.8097092  50.5530119  61.6699409  27.1567284  50.5692291  60.9702349
  28.1225621  51.4558649  61.7265606  94.8510551  53.1513643  39.2941833
  94.1960621  52.5578165  39.6614885  95.2254200  53.5953665  40.0550699
 102.7162838  75.4320145  37.7304292 102.4350166  74.6608734  38.2228303
 102.7875805  76.1234903  38.3884621  91.8378162  92.4224949  84.0024662
  91.8803024  91.4870453  83.8040733  91.0382938  92.7229118  83.5703182
  81.8112946  52.5224304  84.9661064  81.9847393  53.3106899  84.4515133
  81.6145802  51.8494606  84.3144608   9.5664250  27.0934510  72.8574038
   9.7350251  27.6388121  72.0890427   8.6567818  26.8128896  72.7570438
  24.8847424  56.0473013  29.7933650  24.3692337  55.4581642  29.2425513
  25.5667530  56.3833570  29.2118478  92.7411842  92.7806950  41.6660309
  92.1554565  93.3786869  42.1302986  92.2966766  91.9337368  41.7023277
  19.2235123  14.0667653  54.2673635  18.4173046  14.2949176  54.7301912
  19.8314034  14.7742736  54.4821405  79.4147491  16.6140985  27.1655893
  80.2287579  16.1879623  27.4339867  78.9041662  16.6847849  27.9721498
   1.2309109  79.7654200  54.8453808   1.1805855  79.0113926  55.4328728
   2.0365273  79.6275377  54.3471813  33.6046826  77.3685503  78.9314508
  34.0431439  77.4619579  79.7771740  34.2307030  77.7179575  78.2972193
 106.9289207  48.1794548  67.7832937 107.0266628  49.0366888  68.1978226
 107.6849556  48.1075525  67.2006512  60.9652408   6.2067024  15.7551439
  60.0782665   5.8548347  15.6795652  60.8469852   7.0723525  16.1461599
  84.1736126  74.3081188  63.3431625  83.3743286  73.8181210  63.5362291
  84.1524315  74.4369316  62.3949051  90.3703880  43.8315725  70.8226061
  90.4506969  44.4521332  70.0982523  89.4521618  43.8892937  71.0867500
  97.7156734  54.3596077  89.2243576  96.8297482  53.9980268  89.2494678
  97.5915909  55.2822065  89.0015221  83.4252071  92.3999500  24.4250894
  82.7621651  92.7279663  25.0325418  84.2359447  92.3974514  24.9339533
  79.0884161  54.1477680  88.8937855  79.3243122  53.9392710  89.7977257
  79.0403032  55.1035357  88.8731670  83.4267521  81.9758987  56.8291807
  84.0392303  81.2442207  56.7533493  82.7153397  81.6373920  57.3728085
   6.2334286  90.0616550  60.3841734   6.7695557  90.8475208  60.4900312
   6.1917244  89.9258804  59.4375706  78.3816719  74.3393946  63.6241293
  79.3181801  74.5028591  63.5125017  77.9637909  75.1659966  63.3826065
  97.9948425  56.4680481  84.0778351  98.4878540  56.3212204  84.8850632
  98.1468201  57.3896599  83.8686371   7.9204022  78.2591200  85.8404636
   8.6722313  77.9561949  86.3496017   7.2303711  78.3947754  86.4898396
  31.6547142  50.3184032  12.2065592  31.7512451  49.6535778  11.5247095
  31.5500485  49.8180532  13.0158329 108.6972332  60.5110645  36.2685871
 107.8398514  60.1030016  36.1477232 108.7393570  60.7071781  37.2045350
 104.9907017  58.5705423  86.6170692 104.4691181  58.4831667  87.4149132
 105.8962345  58.4705448  86.9107533  36.5014778  58.5161304  79.4518948
  35.6760632  58.0625057  79.6226120  37.1734177  57.8460455  79.5772696
  66.3337025   3.0853883   5.7311971  66.1934456   3.6335031   6.5032823
  65.5328544   2.5663272   5.6572683   6.1629521  51.3557196  54.4998026
   5.8105027  50.7318735  55.1344872   5.4309307  51.5370607  53.9103222
  98.7994385  55.3041506  67.4063301  99.5885658  55.3443623  66.8660688
  98.8586903  54.4603920  67.8544283  65.6976662 102.4231699  29.6596105
  66.2537346 101.7411735  29.2829187  66.1437855 103.2421520  29.4440324
  10.6886040  33.5265779  54.4698238  11.1148678  32.6993346  54.6938753
  10.5930458  33.9811492  55.3067589  98.4131050  91.8968391  75.5301952
  97.5023746  92.1899700  75.5007458  98.7709904  92.3058128  76.3181591
  84.6661663  45.8876801  75.0615740  84.1371346  45.8284426  75.8570862
  85.1680470  46.6958714  75.1673222  89.1400417  27.6168624  18.3642919
  89.1994747  26.8733684  18.9642198  90.0131782  28.0087606  18.3813341
  16.4471089  91.8118763  69.6050835  17.1550022  92.4557686  69.6277046
  15.7608639  92.2285938  69.0838766  12.6341378  47.3722696  47.9771185
  12.5649868  47.2800446  48.9273548  12.9250370  48.2745171  47.8445864
  34.5530567  90.2440336  33.2230718  34.7712479  91.1141684  33.5569627
  34.8247871  89.6454385  33.9188249  38.9462147   0.4409421  88.9622688
  39.4218216   1.2704671  89.0061760  38.0289898   0.6957544  88.8622665
  88.7056923  68.7359762  77.1187210  89.1555691  68.5929155  77.9514122
  89.2626476  68.3073711  76.4688492  29.7608910  91.8452957   2.4496896
  29.6417198  90.9995034   2.8817327  29.7978554  92.4777010   3.1672723
  53.1074581   9.7622026  69.7752285  53.3996735  10.6736577  69.7653437
  53.8878117   9.2579950  69.5448828  63.1069263  15.1757280   5.7880170
  63.6231788  15.2251855   6.5925462  63.5081467  15.8210365   5.2059229
  93.3973980  90.0905514  86.8188190  92.9391861  89.5133781  86.2079620
  92.7903175  90.1942062  87.5515747  42.3645958  13.4839097   0.2062185
  41.7394861  13.8198511   0.8485754  41.9681915  13.6848680  -0.6415503
  83.6412987  21.0430137   3.4326036  83.7145790  20.7921735   2.5117643
  84.4498524  20.7233564   3.8329847 106.8214798  87.5324917  77.3839235
 106.1622334  87.8321648  76.7579603 107.5581360  87.2528267  76.8404579
   7.4840962  91.7737198  38.3687925   7.1040188  90.9316730  38.1183410
   7.1909558  91.9103432  39.2697001  63.3804973  53.9755718   1.1774786
  63.7234482  53.3158294   0.5746801  64.0761837  54.0937797   1.8242223
  38.3755741  93.6368921  21.0029276  37.4715958  93.8216188  20.7481153
  38.3406506  92.7637270  21.3935621  64.1381264   7.5532961  35.0536656
  63.3760071   8.0448115  35.3599548  64.0783787   7.5891179  34.0990043
  50.3349781  33.6389685  13.5642147  50.8888674  32.9253292  13.2477427
  49.6583986  33.7324905  12.8935981  13.4924961  86.2105774  64.0913820
  13.1120468  85.3327977  64.0598536  13.8998915  86.2641334  64.9559021
 103.9734958  49.9017225  20.1680429 104.8625683  50.0533491  20.4886587
 104.0466093  49.1205862  19.6196706  56.5935898   8.3193642  21.9734645
  57.4078465   8.7006712  22.3018241  56.6106749   8.4922290  21.0321569
  75.9827805  31.0783195  57.2064543  75.0472641  31.2619662  57.2919989
  76.2592793  31.5919685  56.4475393  96.2774563  16.4210057  44.5303488
  95.6344891  15.7370925  44.7176552  97.1181107  15.9633470  44.5210218
  68.9819050  35.2473044  71.7867994  68.7505388  35.5271101  72.6724672
  68.1411743  35.1434016  71.3411427  70.6438875  34.8699498  82.7558517
  71.2710762  34.6074963  83.4296322  70.6835842  34.1687346  82.1055031
  87.7082825  33.0126619  44.4671154  88.3577824  33.2595420  45.1254749
  86.8735600  33.3060217  44.8323679  83.5463619  30.6074524  42.5037384
  83.1727028  30.3843880  41.6511822  82.8503323  30.4081059  43.1298637
  29.5668722  96.5033876  63.8353014  29.7032000  96.6439270  62.8983402
  29.5111681  97.3849266  64.2041063  26.8970228  99.6881657  69.1067410
  26.9109894  99.7778501  70.0596285  26.5949656 100.5396040  68.7904358
  87.2058392   8.4859431  62.4392748  87.2662926   8.8970107  61.5769529
  86.9525146   7.5812292  62.2561026  61.0775471   0.2079925  29.1695142
  61.4033651  -0.6746519  29.3456244  61.8214703   0.6637725  28.7757230
  87.3921394  25.5839801  63.8866711  87.2172165  25.2721143  62.9987669
  86.5376091  25.8636308  64.2149973  61.0294796  87.7985441  32.2379136
  60.1706578  88.2202493  32.2666335  61.3878800  88.0428933  31.3846374
  97.5856781  23.0139327  45.9832764  96.9017506  23.4238791  45.4537296
  98.2502747  23.6952114  46.0852671 108.3988953  43.2325315  56.2805176
 107.7472782  43.1659889  56.9785166 107.9664898  42.8586626  55.5127430
  75.5606699  24.7990632  68.7194347  75.4679346  25.0320911  67.7956772
  74.6720314  24.8545456  69.0708256  69.2011238  85.4505061  66.3689947
  68.4613205  85.8988058  65.9591675  69.0081478  85.4773854  67.3061562
  78.3817434  20.7729793  57.4895668  78.8068247  21.3634706  56.8675852
  77.5658798  20.5181718  57.0586681  81.1599232  88.4248184  66.3491917
  81.3209130  89.3419587  66.5709305  81.0296799  87.9935168  67.1937275
  25.4583050  91.8408751  76.4530039  25.6234623  90.9036802  76.3499403
  24.8591019  91.8980562  77.1972609  88.0456257   9.3345737  80.8933735
  87.6662922   8.5192770  81.2214375  87.2936726   9.8442048  80.5915928
  96.7478275  34.5263982  40.9676838  96.5322781  34.2211723  40.0864315
  97.0548916  35.4242206  40.8417654  97.7146912  21.5763164  77.7870560
  97.2553253  22.1972370  78.3524609  97.7120113  21.9907808  76.9242430
   6.1312542  83.7411001  11.1570985   6.3167915  83.5588744  10.2358968
   5.2862129  83.3215764  11.3187559  11.3960301  15.7331812  30.1281428
  11.1488282  14.9440789  30.6102633  11.0196625  15.6092572  29.2568088
  73.6029125  98.0736085  20.2530408  73.8406826  98.0183702  21.1785936
  73.8859249  97.2375380  19.8827386  28.1530190  19.4987643  50.5642748
  27.2018242  19.5961010  50.6088495  28.3204913  19.1873407  49.6747780
  59.5814085  13.0563128  66.8908262  60.0018072  13.8117194  66.4799070
  59.5334673  12.4009097  66.1948538  83.4743595  16.4024305  46.3894892
  83.8217068  16.3493288  47.2798634  83.6955166  17.2870958  46.0984850
  78.0498101 101.2174467  62.5091553  78.5270668 101.7297157  63.1618738
  77.5712563 101.8689284  61.9965219  53.6011600  29.6468592  53.2234001
  52.6685667  29.7248244  53.4244537  53.8788319  30.5410075  53.0243349
  91.6197300  10.6607521  55.0277328  90.8732319  10.2124858  55.4252577
  91.3528633  10.8126080  54.1211128 101.6328907  35.7690382  60.8448553
 102.0279026  35.5923963  59.9910450 101.4741802  36.7129874  60.8446455
  99.2937851   0.4571257  45.0682402  98.6251640   0.8534683  45.6268835
  98.8653564   0.3535415  44.2185640  71.6725779  11.8946493  84.7367096
  71.0401392  11.8458450  84.0198612  72.4726439  11.5118420  84.3767357
  85.6983280  10.2845299  43.2974720  85.5926991  11.2358832  43.2981873
  85.9297562  10.0699258  42.3937988  87.0638466  56.5021515  35.7699132
  86.6464520  57.0978308  35.1476741  87.9981995  56.6974211  35.6985378
  27.2064854  80.9564268  32.0061135  26.4264704  81.2136303  31.5145254
  27.3982884  80.0687419  31.7036939  11.7713699  26.7840555   9.5431478
  10.9964142  26.8609908   8.9866026  11.8593369  27.6452330   9.9516542
  59.3112135  27.0659113  66.6891527  58.5240984  27.6105714  66.6838360
  59.6757317  27.1631861  65.8094406  61.7467499  31.4070106  59.9540997
  62.2997999  31.9313431  60.5332708  61.6685963  30.5623460  60.3975677
  91.0953808  26.9354486  60.9735012  90.9693623  26.6639066  61.8826866
  92.0455647  26.9760537  60.8651733 100.6765366   9.6085823  45.9978056
 101.3807774   9.8924994  46.5806103 100.2439880  10.4199934  45.7318258
  93.9092350  16.6579044  78.7229490  94.4801140  16.9823372  78.0264854
  93.2559299  17.3479640  78.8380766  52.9342604  31.4848113  29.1755223
  53.3504200  32.3459697  29.2135477  53.2975626  31.0777473  28.3890486
   2.5796988  21.5328559  86.7396277   2.7654746  21.3162716  85.8259483
   3.0777552  20.8897956  87.2442523  21.0831333  97.0562547  44.5886564
  21.3206888  97.9240881  44.9152517  20.5435158  96.6784345  45.2831316
  61.8846035  30.6309581  17.3521626  61.5980005  29.8901200  17.8862512
  61.2357140  31.3138556  17.5219524  71.8441820  24.3740273  38.4397697
  71.4079046  23.9304781  37.7123404  72.3748112  25.0528431  38.0227852
  86.6513062  31.5816569  84.9560547  87.0360947  32.4306035  84.7382069
  86.8881893  31.4394045  85.8725071  25.4930626   5.2986509  57.8613424
  26.2775456   5.4172426  57.3258400  24.8066555   5.7688040  57.3880243
 104.7622299  10.5726957  28.0323982 105.3132915  10.1928210  27.3481011
 105.3437805  11.1680317  28.5052609  66.2146139  14.1702759  42.3707247
  66.2064075  14.2375445  43.3255243  66.4221954  15.0550044  42.0700598
   5.1254879  13.9707804  76.6094398   5.8336483  14.2020929  77.2104692
   4.3353497  14.3136156  77.0270300 107.6152992   1.4497231  45.5723000
 108.3309937   1.6062742  46.1883402 106.8352032   1.7703117  46.0249615
  82.2433567  26.1215639  15.6830680  82.7186775  26.5362096  16.4030480
  82.7306271  25.3168344  15.5064058  81.4850807  23.7573028  56.3800526
  80.5740547  23.5750055  56.1497402  81.7625427  22.9920483  56.8836737
  89.5919418   0.5644658  35.7415724  89.2125416   0.0895022  36.4809608
  89.5011234  -0.0342709  35.0002909  37.5922180  78.3754956  30.5242920
  38.1537796  77.8963052  29.9149847  38.1959702  78.7350165  31.1742592
  15.2018200   6.6567338  34.9518871  15.4208599   6.2506795  34.1132140
  15.8875405   6.3577753  35.5490828  48.4844185  95.4133945  48.1215811
  47.8566719  95.3207230  47.4049377  47.9780556  95.2187209  48.9102125
  72.9124212  20.2289748  88.1284142  73.4408712  20.0482035  88.9057827
  72.7705812  19.3701708  87.7302074  89.5723248  34.1605902  52.6787281
  89.2162132  35.0175524  52.9133129  90.4245186  34.1282058  53.1134129
  16.5780293  30.1169109  29.4242048  17.1033608  30.5229163  28.7346983
  16.0884987  30.8427691  29.8111463  59.6150566  84.9091803   9.6628088
  59.9244858  85.7299959  10.0458920  59.0987278  85.1789807   8.9033115
  91.0840797  23.2580018  43.0820990  90.5607605  23.5706234  43.8200998
  90.9805489  22.3066044  43.1010532   7.0511318  98.0667599  34.2353964
   7.4367071  97.4450242  34.8526525   7.0349003  98.8974049  34.7107863
 104.7453117   1.2831101  53.6558342 104.5383930   1.0625437  52.7476692
 105.6660652   1.5439038  53.6351490  62.9058625  98.1004693  72.8219938
  63.6937691  97.6427906  73.1151819  62.2463394  97.8893118  73.4828091
  96.6783619  16.8778646  69.5710897  96.7193985  17.8167760  69.7527266
  97.1272850  16.7764318  68.7317991  23.7948952  60.1663860  29.3024309
  24.2553101  59.8942968  28.5085638  22.8987656  59.8535105  29.1787298
  93.9498615  26.0610580  48.9677238  94.2508125  25.3631949  49.5496511
  93.2103443  25.6775331  48.4962797  19.9226904  35.8117580  32.9025316
  20.1788568  36.5189600  33.4945416  20.6335282  35.7653141  32.2631693
  67.8698063  24.1609573  49.7835159  66.9641113  23.8566089  49.8411655
  67.8027582  25.0457859  49.4246101  63.9619970  19.8547518  37.8088641
  64.4546318  20.6658912  37.9337573  64.6189785  19.1622150  37.8796029
  89.5421028  46.4982414  86.6463947  88.7289810  46.4959431  87.1514225
  89.3519115  45.9519768  85.8837318  97.5796127  28.1100464  62.0066690
  98.2195282  28.3220267  62.6862335  97.5246906  28.9031863  61.4736176
  99.8156166  14.4448161  69.8192453 100.6011581  14.9916649  69.8088169
  99.2052364  14.9132347  70.3886795  55.2254152  21.3309360  14.2876148
  54.6172285  21.0729885  13.5949349  54.8550129  20.9521890  15.0848508
  84.2716503  36.1226749  57.6650286  85.0923443  36.2432647  57.1873760
  83.8928413  37.0002675  57.7157021  48.3851099  32.2039199  55.2378559
  47.9951715  31.8945289  56.0554504  48.1409264  31.5423274  54.5906305
  67.4457026  12.3897851  48.2633972  67.6957083  13.1753159  47.7769136
  66.9557381  12.7202022  49.0163898  86.3113689  23.0427313  32.5146747
  86.1609173  22.8299856  31.5936208  85.4461479  22.9803324  32.9193234
  50.9546661  28.4446788  81.7628002  51.8521738  28.1472874  81.9120312
  50.5863523  27.8005791  81.1580563  55.5609655   5.8390552  78.1547928
  56.2790108   5.8823186  77.5233078  55.0619364   6.6421092  78.0054331
  44.7868515  94.1620897  54.9193764  45.6486393  94.1999178  55.3342533
  44.2332531  93.7123477  55.5577278  94.7644711  23.6288428  50.4655027
  95.1642418  22.8813577  50.0208902  95.0044537  23.5167742  51.3853312
  88.4714413   9.9684745  45.6536961  88.6284733  10.7794821  45.1701260
  88.7858963  10.1526558  46.5388107  64.0880299   2.7078888  71.5543652
  64.0124512   1.7600799  71.4440155  65.0268173   2.8627351  71.6589546
  94.0905094  13.6419106  19.5127022  94.1996765  13.4171736  18.5886848
  94.9696255  13.5647893  19.8834360  87.4102688  15.8255506  49.8160839
  87.7145100  15.9782350  50.7107115  87.5629425  16.6564655  49.3660831
 105.8611940  51.5185219   2.9205663 105.0245212  51.7047938   2.4945123
 105.6274437  51.3026790   3.8233431  61.5192413  33.4316278  39.3279815
  61.4783812  32.6275325  39.8456645  62.2794056  33.3116651  38.7587833
  66.0469103  32.4112082  46.0285902  66.1815739  31.4838648  45.8333111
  66.1934423  32.8555560  45.1935387  46.4055252  16.7776430  40.9988737
  46.9169235  17.3316860  41.5885687  46.3197231  15.9463334  41.4655590
  38.2725598  96.6432839  44.1553450  38.4859825  97.1708273  44.9250078
  39.0427328  96.0905849  44.0227365  81.3237858  42.0396185  59.9133348
  81.4069653  41.5733290  59.0815401  82.1566963  42.5004578  60.0139093
  92.9668903  11.4401448  32.4488640  92.1634007  11.0643911  32.8086519
  92.7681637  12.3700237  32.3390126   2.3203598  14.7701967  71.5034056
   2.3012577  15.2992976  70.7059622   2.5618779  13.8938177  71.2036467
  85.3751564   3.3371317  58.3384323  85.3502274   3.2963192  57.3824263
  84.7221851   2.6974994  58.6225748  58.0131292   5.3461659  79.3455791
  58.4667444   4.6954435  78.8098335  57.1896219   5.5044198  78.8840294
  31.4690186 101.2381912  54.4478321  31.8875147 100.3904962  54.2978191
  31.3758589 101.6173147  53.5738659  19.6185455  64.4689217   3.1616552
  18.9887962  64.2499009   3.8484438  20.4678211  64.4579664   3.6030729
 102.5381470  19.9204266  53.5970736 101.8056011  19.7111046  53.0175877
 102.2778893  20.7347965  54.0275383 103.2440926  97.2694479  63.0994129
 102.7265240  96.8678581  63.7973261 103.9687611  97.6979606  63.5549021
  64.1643597 100.8179364  31.5774870  64.5517803 101.3179008  30.8590341
  63.8260056 101.4830395  32.1769786  24.3515908  15.6470811  46.9524717
  25.0749718  15.9190881  46.3877058  23.7925755  16.4215338  47.0153999
  81.6785622   1.1307126   2.0079033  81.8594646   0.2334619   2.2879842
  81.4438820   1.0503246   1.0834052  89.0269470  26.0846615  15.4719985
  88.5390091  26.2630630  14.6680522  89.6325397  26.8214822  15.5531228
  78.4420586  20.8175397  84.5255947  78.7328815  21.7155361  84.3666649
  78.0230045  20.8501554  85.3855705  78.9975262   4.3489414  32.0033884
  79.6455097   4.3594629  32.7078295  78.7463331   3.4288159  31.9227409
  76.6493273   6.6070360  36.0881305  77.0646095   7.4573189  35.9439373
  76.3041496   6.6571599  36.9795179   7.7197968  16.1248338  79.8383951
   8.6387669  16.3926363  79.8368406   7.2332131  16.9376814  79.7014713
  39.6233631  77.6132714  61.5623951  39.2401959  77.6574742  62.4384451
  39.2201592  78.3401119  61.0876703  57.7740837 102.9297203  57.1339273
  58.4898926 102.6562922  57.7075863  57.4081208 102.1105108  56.8004656
  15.3462006 101.4417047  58.9209318  14.4714619 101.3942196  59.3066835
  15.7798315 102.1498530  59.3970919  41.0967661  84.4136356  81.3910866
  41.7069842  84.2109691  82.1001720  41.5270926  85.1113342  80.8968544
  86.3922405  52.1654844  66.2653494  87.1327496  51.8088341  66.7559528
  86.7941952  52.6787758  65.5644941   3.0881081  73.0782488   5.1442869
   4.0043793  72.8195360   5.2430303   2.6295338  72.2628882   4.9414880
  49.5621729  35.2112079  86.8722248  49.4362450  35.9370899  87.4833393
  49.9241066  34.5061970  87.4090576  44.9252129  18.8030243  39.1976094
  45.7146072  18.2728672  39.3072581  45.1399612  19.6402788  39.6088481
  99.6429348  18.7919819  45.8653593 100.5312824  18.4392500  45.8139658
  99.7390270  19.7169757  45.6386757  87.7217102   1.1568143  59.7638655
  87.4592113   1.3368286  58.8611364  88.6421204   1.4168687  59.8020506
  76.9460369  83.8955556  25.9975004  77.8196884  83.5256778  26.1246347
  77.0187737  84.4110953  25.1942801  53.1626034   9.6801615  15.2732241
  53.1172228  10.3697586  14.6109343  52.2874069   9.2925322  15.2757454
  78.7152100   3.6546117  80.0895977  78.8092995   4.4694656  79.5962524
  78.2906485   3.9168307  80.9064388  21.4833889  73.8238719  36.2023695
  20.8845005  74.5067075  35.9002168  21.5873108  73.9935830  37.1386583
  94.4472313  11.2169349  51.5367985  94.3895531  11.8546712  52.2482729
  95.3549480  11.2726951  51.2381744  85.9690857  59.5342779   0.5823724
  86.5051174  60.3255796   0.6347325  86.3933945  59.0016365  -0.0903022
  31.9316540  58.1798193  19.4965227  31.7842064  57.7332195  20.3302057
  31.0606728  58.4648987  19.2201955  80.1218605  39.5718265  76.2055826
  79.2633247  39.1523838  76.1488295  80.0740623  40.3000593  75.5862093
  76.7175270  92.3138916  41.5326500  76.1797501  93.0924742  41.6770267
  76.0919930  91.6336035  41.2833548  18.9684353  99.6353939  16.2250955
  19.7098122  99.9782255  15.7260378  18.2012901  99.8575905  15.6974943
  76.4576603  98.1734782  39.5345879  77.2649361  98.1437342  39.0211177
  76.1996533  97.2565072  39.6285701 105.8678627  36.7742872  56.9665194
 106.6193581  37.3542190  56.8433809 105.9643269  36.4435768  57.8595781
  90.1321888   5.3161168  30.6422067  91.0811615   5.2023715  30.5897689
  89.8496056   4.6739280  31.2933397  81.6032791   8.0582857  63.6589527
  81.0160446   7.5218886  63.1263590  82.4649906   7.6582026  63.5422325
  94.3504047  27.2175837  33.3122540  93.7678719  27.7273107  33.8753414
  95.0582027  27.8223920  33.0898452  85.7387447  26.7867756  42.5077438
  85.8545589  27.7352214  42.4505568  85.0365734  26.6693759  43.1475925
  75.5314398   2.6517576  62.0965195  76.0348034   3.4634304  62.1601343
  75.3981638   2.3807670  63.0048323  95.0702667  58.0623960  66.5539265
  95.0401592  57.6677179  65.6824017  95.0426292  59.0052176  66.3909769
  79.9742937  26.5593004  66.8562937  80.6904888  26.0113835  66.5352392
  79.3104267  26.5131140  66.1682701  43.8497591  27.9438257  31.8448734
  44.0750456  27.1863818  31.3047266  43.0479193  28.2883787  31.4517212
  26.2872349  28.4636307  39.9032736  27.1148144  28.5131788  40.3816891
  26.3480412  29.1577744  39.2469954  18.1067501   1.3868806  68.7503624
  17.3231922   1.5014273  68.2126379  17.9999195   2.0136419  69.4658995
  83.7111282  36.5032959  53.0561256  84.1315651  35.6478453  53.1437349
  84.4292831  37.1318126  53.1299829  98.4257317  38.2913971  32.3611498
  99.1666794  38.6476016  31.8708968  98.2498169  37.4457979  31.9485354
  94.1843796  19.9214995  59.2162943  93.2279396  19.8996830  59.2475891
  94.4221783  20.7083750  59.7067118   0.6429707  38.8116741  71.9375420
   1.4230477  38.5709119  72.4372911   0.9632527  39.4209361  71.2723732
   2.4396359  37.8715253  63.9152861   3.3470856  38.1696534  63.8529921
   2.4296032  37.2922754  64.6772575  85.3174973   8.2249087  48.3102942
  84.9838543   8.3920598  47.4288321  84.5328331   8.0926979  48.8423204
  27.7355229  45.3358173   5.7968169  28.5914456  45.7225132   5.6121451
  27.7551400  44.4877625   5.3533673   9.8845707   0.9337756  70.9508991
   9.2545735   0.2581272  71.2015724   9.4980561   1.7506015  71.2665462
  95.4497051  58.8818550  48.3233976  95.3283882  59.8285675  48.3958197
  96.2865162  58.7137747  48.7566614 100.6320477  35.4021764  11.6063249
 100.3724670  36.2862992  11.3471413 101.1354256  35.5265355  12.4109244
  51.3506294  99.7244932  52.7411461  51.0150696  99.4948914  53.6076975
  52.2717739  99.4653033  52.7646017   1.5811955  60.7301140  86.6365528
   0.8936535  60.7107449  85.9708595   1.1139046  60.8743525  87.4593925
   1.7246758  27.5389051  39.5507574   2.3532139  27.8739071  40.1902390
   2.2043549  26.8597364  39.0765619  95.7331371  53.6519957  28.5416389
  95.7959652  53.0517292  29.2845798  96.3344288  53.2907629  27.8903389
  37.2841297  34.4082499  70.6916952  37.4199711  34.9207306  69.8947382
  36.3427674  34.2355967  70.7078791  71.4828157  12.1027875  56.2747908
  72.1305847  11.4372456  56.0431004  71.9296885  12.6605392  56.9115353
   8.4773670   0.6984483  58.1645060   8.7716709   1.3087077  57.4883413
   7.5218903   0.7415268  58.1265688  20.7002602  70.4305902  10.6702287
  20.0053749  70.6299522  10.0428445  20.9136543  71.2748697  11.0675867
  76.8230988  99.5189532  51.0583878  77.0767380 100.3254958  50.6096268
  77.4597050  98.8689779  50.7608986  85.4592228  35.6212234  45.2892351
  84.9675941  35.7952785  44.4865942  86.3317394  35.9752965  45.1172209
  91.6597176  42.2431707  37.8077698  91.8246841  43.1449747  38.0830383
  92.3849297  42.0362139  37.2183037  13.7350594   7.0525962  71.7765379
  12.8971134   7.4792612  71.9555092  13.5792195   6.5426242  70.9816360
 102.3287392  28.0125380  44.2859077 102.3976994  28.9650273  44.2207956
 101.8142796  27.7567530  43.5203075  99.3996429  43.5797596  76.9439936
  98.5985374  43.2719183  76.5200901  99.1175842  44.3215561  77.4791670
  97.5363255  32.7674365  55.1711750  96.7520428  32.2912121  54.8985195
  97.7396965  33.3381939  54.4301510 104.8174858  35.2920508  54.7175312
 104.8900700  35.6331444  55.6089449 105.6880856  35.4195642  54.3406630
   8.2659375  12.0005822  45.8170891   7.3853718  12.1418524  46.1647558
   8.6088883  11.2653339  46.3250542 106.9267559  51.7025757  42.6728439
 106.4306736  52.3673201  42.1951008 106.2776947  51.0368824  42.9004526
  48.6099411  89.5859598  13.4485769  48.6375881  89.9020444  12.5454938
  47.6770378  89.5406114  13.6580145  81.1557770  43.7727070  76.6799212
  80.6863308  43.5018587  77.4689007  81.8947601  44.2866659  77.0054770
 105.1553631  31.0985327  56.3039017 105.9434700  30.9768009  55.7744646
 104.5161247  31.4747691  55.6988716  71.3258244  98.4409230  29.6432996
  72.1155716  98.0891042  30.0541115  70.9798313  97.7129739  29.1269612
  91.7832947  43.0869150  29.6023154  91.7358685  43.8835573  29.0737844
  92.7194214  42.9534674  29.7509360   5.9561071  44.5881775   3.2524164
   5.6918058  44.6428963   2.3340566   6.7886458  45.0589856   3.2905061
 104.2241383  30.9385967  44.6128368 103.8352489  31.7122483  45.0208330
 104.1696262  31.1106038  43.6728001  22.2539936  31.1690545  86.5284348
  22.6694428  30.4356647  86.9820595  22.5214230  31.9413471  87.0267105
   3.9402043  14.2475557  62.6377678   3.3551441  14.0991354  63.3806753
   3.8926445  15.1904821  62.4800968  17.1572625  27.3517299  59.6399689
  17.9633747  27.5097871  60.1313305  17.3581921  26.5970421  59.0865183
  91.9901180  34.7680640  42.1494484  92.5079155  35.0632548  41.4004612
  92.2385693  35.3590751  42.8602314  99.7572422  10.8786881  22.3056126
  99.4186974  10.5438602  23.1359792  99.1269684  10.5776000  21.6511440
  70.8799601   9.0699297  38.3677053  70.6089687   9.0650260  39.2857313
  70.2683640   9.6697617  37.9406404  14.0423142  19.2012310  72.8912687
  14.2217575  20.0663304  73.2595539  13.9198815  19.3600643  71.9553137
  42.6823864  79.2038157  18.4129865  42.2371445  79.6968081  17.7238233
  42.7328930  78.3101681  18.0737550  98.7754726   2.1310958  75.2568054
  98.7390137   2.9701284  75.7160711  98.3661652   2.3041295  74.4090080
  60.8257653  94.1383587  22.9022932  60.9823109  95.0819128  22.9401088
  61.4252259  93.8230287  22.2259450 103.8740826  19.3603981  30.4666567
 104.8099709  19.2227077  30.6129146 103.7445927  19.1605318  29.5395541
  26.4139973   3.4465066  59.7391224  26.2931858   4.0735191  59.0260363
  25.7994782   2.7393287  59.5429230  60.6845570  23.2985115  38.8281989
  60.0305510  23.8362908  39.2746329  61.2209225  23.9263582  38.3441019
  47.9700661   4.7883183  76.8771744  48.7953806   4.5247412  76.4702177
  48.2060909   5.0041991  77.7793503  78.9252710   0.1917228  45.3855181
  79.0821743   1.1346633  45.4352903  78.0220652   0.1151116  45.0779819
  85.5929852   4.7489855  47.3250055  84.7860622   5.1327097  46.9817066
  86.2932110   5.2520090  46.9092035  82.1599388  50.0115061  51.7872238
  82.2265530  50.6310844  52.5138044  82.3350239  49.1579580  52.1834898
  26.8748509  38.0535650   4.3395603  26.5866219  38.9663315   4.3431637
  27.3696362  37.9618454   3.5253045  23.7786328  11.8355072  42.2516203
  23.4943901  12.3349786  41.4861393  23.1328331  11.1336946  42.3330021
  28.2378231   1.2747751  53.8494158  28.3816468   0.3353706  53.9637280
  28.5239350   1.6632293  54.6761417  68.0396414  14.0887392  52.2482920
  68.1683826  13.2464743  51.8121147  68.8395119  14.2194664  52.7575588
 103.3454895  71.4978313  38.2582784 103.2833195  71.7305899  37.3318934
 103.8459110  70.6819057  38.2671738  99.1690254  37.0999432  83.7505817
  99.8605061  37.6492786  83.3813858  99.0464115  37.4341249  84.6391392
 101.4120102  42.0769262  76.6532421 101.0089302  41.4908981  76.0126734
 100.7231808  42.7053404  76.8696785  65.3447676  11.9147456  52.2776794
  66.1128187  11.3467598  52.3386717  65.5088472  12.6088083  52.9161072
 104.8817730  23.3460402  53.0492783 105.3862381  22.8496838  53.6937761
 105.4202366  24.1156125  52.8647709  81.9567871  18.2697475  49.6959019
  82.4493027  18.0111802  48.9169264  82.6112175  18.6623728  50.2736568
  17.3908482  64.5363286   7.5554521  17.5401363  64.1004756   6.7164190
  16.6861687  64.0338626   7.9643304  80.4041862  22.1033835  44.4970512
  79.7567987  21.4182591  44.6635580  81.1031342  21.6605902  44.0157652
  78.0760860  20.7327271  44.0870094  78.0533600  19.8045588  43.8541555
  77.2710466  20.8744955  44.5850468 108.3294964  14.2455161  54.8059130
 108.8745880  13.6064005  54.3469524 108.6360073  15.0944805  54.4872522
 102.5781536   2.0408747  61.3603878 103.5171890   1.9749309  61.5338802
 102.4357700   1.4813237  60.5969334   4.1745125   0.8233412  60.8707762
   3.4244000   0.2570090  60.6895781   4.2685925   0.7988776  61.8230295
  91.1752987  22.2855616  65.5553961  91.3370037  23.1233430  65.9892225
  91.1363792  21.6495442  66.2696791   7.2840248  49.2864323  80.7366467
   7.7465760  49.6150398  81.5075493   7.5725209  48.3775330  80.6535721
  91.0994816   0.7411762   7.8760493  90.8320999  -0.1759563   7.9361206
  90.3372955   1.2333397   8.1811553  19.8348643  96.3183575  50.4460621
  19.9056126  97.2491484  50.2342701  18.9015175  96.1236917  50.3612328
  11.3740193  58.0165577  84.7344780  11.5475308  57.6952028  85.6192684
  12.1235310  57.7174187  84.2197323  94.0088272  13.2785213  53.1500053
  94.7481632  13.8219857  53.4225130  93.4887218  13.1653202  53.9455605
  89.3359852  34.0757370  60.1919413  89.3688202  33.1294131  60.3320217
  88.8293076  34.4099832  60.9320688  83.3120991  88.2496630  61.4362526
  82.5386597  88.2297765  61.9998312  83.5316635  87.3282599  61.2982607
  82.2845459  22.5459528  53.1544876  82.7403164  23.0204964  52.4592781
  82.0306969  23.2239723  53.7806511  94.6629143  34.3574452  49.3852663
  93.9441204  34.2219257  50.0026751  94.3011761  34.1018820  48.5366964
  94.0548611  23.5496473  16.5510774  94.1070652  24.3089485  17.1315682
  93.2298183  23.1249213  16.7858922  66.8962551  95.3836828  42.8616905
  66.5273358  95.2429943  41.9897175  67.5387074  94.6818244  42.9660416
   7.1431099  32.0538688  32.9903531   7.4070774  31.4120507  32.3310924
   6.9848858  32.8564906  32.4933696  94.2419434  12.6965797  41.4661789
  95.0374699  13.2277346  41.5014219  94.0626240  12.4729335  42.3794460
  88.2479668   3.4951463  55.5781460  88.5796356   3.5037035  54.6802855
  87.6430321   4.2359334  55.6170893 107.2033119   8.7563115  78.1593800
 106.3802338   9.1798592  78.4030914 107.2320175   8.8201118  77.2047424
  61.4624214  23.9172816  36.0312247  62.2647619  23.6713195  35.5708075
  60.7566071  23.5831189  35.4776955  22.3400475  96.2058382  17.2966242
  22.3210551  96.0490649  18.2407081  21.4690233  96.5464412  17.0928216
   4.8504483  25.6374002  13.9112711   4.1366803  25.8078408  13.2966816
   4.4115578  25.4044127  14.7293961   5.0308453  50.5890894  59.7117329
   4.4477879  50.9946585  59.0700340   5.0855957  51.2275553  60.4227829
  81.3435936   0.8804758  40.6988764  80.9710026   1.2461324  41.5011883
  81.5145206   1.6423948  40.1452541  31.6722546  78.4526065   3.1266363
  31.3218460  79.3094042   2.8830392  31.7171822  77.9689052   2.3018701
  91.5060329  64.7740889  51.7725849  91.7476463  65.5758286  52.2363377
  91.6472054  64.9800920  50.8485365  98.5831451  77.8266859  69.2055941
  98.9046288  78.4903240  68.5952950  98.5904980  78.2617331  70.0581884
  51.3018109  91.2728130  52.1680832  51.9215561  90.7922076  51.6192913
  51.8092705  92.0054614  52.5172853   5.7864128  19.5041406  49.4031668
   5.9028946  18.7143946  49.9313354   5.2106320  19.2316842  48.6886883
 104.4324303  14.1493392  63.3518076 105.2896118  13.7406790  63.2315302
 103.8121796  13.4214377  63.3107424  85.5749035  16.0920966  66.4220810
  85.0759602  16.9088423  66.4368153  85.0025177  15.4540491  66.8481112
  10.6780850  13.7139797  31.7453480  10.3874718  13.0226052  31.1505556
  10.6925522  13.2979643  32.6072955  31.5417038  11.5261900  72.5080776
  31.0965287  11.5882635  73.3531809  32.1854340  12.2344267  72.5238752
 104.2314720   5.7023144  21.0815787 104.3912315   5.9210891  21.9996452
 103.2925987   5.8447325  20.9612966  86.4408302  27.4924207   9.1316646
  85.7360840  26.9580293   8.7656015  87.2239399  27.2138906   8.6569226
  15.1839577   4.1574311  51.5770197  15.6221520   3.4701061  52.0788193
  14.6482407   4.6199441  52.2214699   4.8780285  29.6361136  65.1028490
   4.0725266  29.1190100  65.1051331   4.8236309  30.1606703  64.3040323
  58.0385351  75.0418472  44.3755245  58.1798983  75.6822586  45.0727463
  57.1430111  75.2042723  44.0790796 107.5782013  55.6164074  20.6123471
 106.6641617  55.8994675  20.6376290 107.6590824  55.1415348  19.7851920
  91.6448307  27.0723772  50.4913759  90.9836006  26.8907595  49.8235273
  92.4748230  27.0660329  50.0146151  84.4716930  30.9190726  57.2921467
  83.5725880  31.2426734  57.2363949  85.0091648  31.6523314  56.9926548
  96.6054630  29.1943741  38.2205939  95.6748867  29.2439532  38.0019307
  96.7866802  28.2567120  38.2852268  90.0228485   7.5131551   7.7385385
  90.4246792   7.2182123   6.9213636  89.4808658   8.2596532   7.4831445
  96.9353485  38.9395690  63.1869841  96.7438412  39.0856624  62.2605848
  97.5370216  39.6461272  63.4215069  71.5148211  25.2013302  55.4557753
  71.7686272  24.9510360  56.3441277  71.2566710  26.1200428  55.5303049
  41.5799929  80.3004681  78.7019300  42.1728779  81.0242902  78.4999275
  41.7355038  80.1147925  79.6279812 100.7609558  28.9333892  40.5705452
 100.5040359  28.3650160  39.8444748 101.4238167  28.4313893  41.0447168
   9.1122948  21.8780780  25.3090119   9.6879231  22.6401782  25.2451134
   9.2696225  21.3906193  24.5003939  98.5048294  22.5665331  62.3792744
  98.6835670  23.2313514  63.0443335  99.3702698  22.2613597  62.1070290
  28.0871712  34.9415517  74.7656775  27.8933560  34.0065384  74.8321533
  27.5295006  35.3494382  75.4281473  79.8016930  18.5795689  76.2010384
  80.1350594  18.9277732  75.3740835  79.0183830  18.0873811  75.9552574
  94.5746231  14.8102462  28.4120226  94.8291206  14.6648693  29.3232465
  95.4009438  14.8055387  27.9288936  81.7582417  30.5427170  47.1893835
  82.3886871  30.9496689  47.7836609  81.0772705  30.1941395  47.7647114
  75.8720875   2.9141262  56.3708210  76.0964298   2.1928149  55.7829332
  76.5683031   2.9131126  57.0277214  88.2231522  15.3858328  55.1103783
  88.5636902  14.7810328  54.4512224  87.4389362  14.9540591  55.4492092
  18.1388031  14.7429633  85.1713848  18.0684315  15.6237936  85.5393696
  18.5413395  14.8735392  84.3128109  51.7081619  84.4643687  20.4651141
  52.4382187  84.2933702  21.0601068  51.0842682  83.7605678  20.6430387
  23.9094483  19.3049359  67.1377087  23.0621659  18.8840771  66.9920015
  24.0639054  19.2132258  68.0779028  11.8193280  32.9521227  49.9577713
  11.6812931  32.5805569  49.0864992  10.9861504  32.8188396  50.4097414
 107.0066261  39.1379595  49.9798918 107.9505348  39.0687227  50.1229763
 106.8490982  40.0757599  49.8705912  82.7405167   4.1585854  16.6642570
  82.4371529   3.6083114  17.3863375  82.5100708   3.6674392  15.8756518
 107.4437141  19.2567766  68.6186409 107.4465084  20.1581383  68.9407778
 107.3977184  19.3428802  67.6664305   3.5564839   9.5419985  62.2490835
   4.2215477   9.0957159  61.7249155   2.7595269   9.4874644  61.7217112
  84.7764874   4.3253458  63.2092285  84.9280930   4.1962102  64.1454840
  85.0534916   5.2265334  63.0438042   7.6857411  46.6553211  52.1571302
   6.8055950  46.3142538  52.3160601   8.0595337  46.7700386  53.0308294
   9.2458283  45.5789661  56.2110662   9.1373860  44.6633291  56.4681339
   9.2253434  46.0634708  57.0363331   7.3222004   2.5471744  75.6950474
   7.7344738   3.1614104  75.0876141   6.8359886   1.9441713  75.1327181
  99.2791153  91.8184756  59.0085459 100.2235008  91.9682693  58.9645720
  99.1391922  91.0204815  58.4987831  22.1676804  95.9067159  42.1357250
  22.6580120  95.4163151  42.7955055  21.5901829  96.4780020  42.6420450
  23.8104702  97.8152298  50.5658197  23.2013966  98.1821885  51.2066031
  24.5043064  98.4705271  50.4922676 101.0421276   8.5674101  49.0897655
 100.4460621   8.0758679  49.6548605 101.1981106   7.9876280  48.3442783
  57.2522045  96.0688423  54.1977549  58.0714203  96.4265292  53.8554621
  57.5199200  95.3080385  54.7132492  95.1836491  20.4362011  36.7558551
  95.4694748  20.3571010  37.6659513  94.3658733  20.9313631  36.8038154
  85.6586075  30.8108282  76.7033482  86.2317562  30.2143288  77.1849346
  86.2469578  31.2882257  76.1183977  86.9650173  23.7017298  48.4788895
  86.6549587  23.3584976  49.3169117  86.5139484  24.5403957  48.3819151
  95.7196903  20.9527254  49.0203619  96.5900421  20.6223726  48.7976646
  95.1232719  20.2506161  48.7604332  59.7877384  84.2895149  38.7764430
  60.6165577  84.4902967  39.2111635  59.8854138  83.3843373  38.4809041
 101.4605331  50.4393721  87.3154354 101.1016560  50.4041147  86.4287567
 102.3613739  50.1296282  87.2217083  80.6643486  17.1145177  33.7969255
  81.1109161  16.3308930  34.1174650  81.2613869  17.4803448  33.1442714
  85.6991959   7.1449482  64.5371389  85.0766468   7.3574024  63.8417768
  85.4181385   7.6775277  65.2811813  83.1931877  18.9249599  60.3928900
  83.6996460  18.4642541  61.0618305  83.1084347  18.2929254  59.6790409
  56.5327431  91.5531897  67.3583317  56.7901589  90.9063875  66.7013550
  57.1124817  91.3840353  68.1009769  47.8226471  20.5331635  38.2502937
  47.7780056  19.5795166  38.3195639  48.3971071  20.7988358  38.9683771
  10.7664238   4.3549922  72.6665640  11.5027367   4.4835040  73.2645369
  10.8087956   3.4284228  72.4301243 105.1040077  21.8835735  81.1709309
 105.0001240  22.8344917  81.2054443 105.1517963  21.6816163  80.2365017
  84.9258614  12.8743160  57.7285719  85.3787804  12.1087360  58.0821085
  84.9951077  13.5336018  58.4190655 108.1414890  35.7211828  78.3723402
 107.6269722  36.1599064  77.6948214 109.0509701  35.9159136  78.1461525
  79.9710226  26.7574430  61.9421101  79.1762257  26.9062948  61.4298820
  80.5845070  26.3619804  61.3228559 102.9908276   9.9904847  47.2638416
 103.3931065   9.9501926  48.1314707 103.4561634  10.6974089  46.8166780
  92.2239780   9.2794502  44.9824286  92.2225285   8.3936316  44.6197224
  92.4230862   9.1578233  45.9107590  97.3830700  37.1806622  40.1303625
  96.6602516  37.7743983  39.9272704  97.9322910  37.6720881  40.7411718
 104.8418808  11.3796854  65.3980160 104.1119194  11.8573296  65.0039959
 104.8624802  11.6805911  66.3064575  21.8788563  10.0317514  70.2139282
  22.6689278   9.6442980  69.8372364  21.9575535  10.9669542  70.0256872
 100.2159786  35.3866768  23.4287429  99.5168877  36.0019279  23.6500359
 100.8694363  35.5088377  24.1174436  87.9353596 101.8802281  63.3561993
  88.2768131 102.4874138  62.6997185  87.1408249 102.3025132  63.6827374
  83.9352417  13.5599303  82.9882145  84.2009640  12.6765740  83.2437611
  82.9792500  13.5230279  82.9575825 103.3586407  20.0840735  77.3532963
 103.5188293  20.9641933  77.0127678 103.0664635  20.2251840  78.2538223
 108.0283833  26.1030245  78.8146162 108.1897736  25.2394247  78.4346437
 107.9188156  26.6804433  78.0590963   9.6067463  39.8210311  51.3954353
  10.0671803  40.6442165  51.2323380   9.3415772  39.5187402  50.5267906
  85.2576615  84.0654241  82.4396896  84.8832489  83.3729767  81.8951130
  86.1741425  84.1147160  82.1679020 102.9495335  18.1171787  39.4592834
 103.2536221  18.1579649  40.3659773 103.6821556  18.4569609  38.9454341
  78.4038353   8.0943429  74.7174263  79.2114115   8.3019197  74.2473650
  78.1722021   8.9074421  75.1662588  83.6037540  22.0405793  68.2970715
  83.4912300  21.5535545  69.1133928  84.5456123  22.2023511  68.2425690
  31.1764942  17.3490989  56.3971281  31.2953793  18.1516075  55.8891153
  30.6793724  16.7708290  55.8185863  73.3900906  98.9406987  83.8259315
  72.5095536  99.2646699  83.6363697  73.8542629  99.0063315  82.9913902
  77.1625328  19.3907309  70.3513432  76.5239906  19.9956775  70.7288837
  77.5121021  19.8552954  69.5909405  18.0284573  95.6207108  62.5279713
  17.2320772  95.0924765  62.4734592  17.9065205  96.3063412  61.8712568
  71.2050533  19.1496575  39.1180515  70.6176758  18.6944556  39.7213840
  72.0802307  18.8499963  39.3640089  81.6139221  28.7255526  33.9952159
  82.1013069  29.4413471  33.5873890  81.8006420  28.8108039  34.9301481
  41.2745835  89.8067056  66.6552973  42.1903158  89.5284366  66.6703558
  40.8609415  89.3074869  67.3595095  60.7132959   6.4334399  79.8929596
  59.8985243   5.9476763  79.7648430  61.3135052   5.7964444  80.2805424
  83.0788040   9.2499745  60.7276773  82.4323940   9.9528962  60.7931519
  83.8599396   9.6751267  60.3736925   1.0824620  15.6252277  69.1033602
   0.4592167  14.8997390  69.0650225   0.5691658  16.3650298  69.4280910
  79.9571896   4.7109973  37.0322633  79.0347862   4.5247927  36.8569756
  80.4067612   4.4805133  36.2192488 102.9413795   1.3939108  87.2004890
 102.1435070   1.3351527  86.6749573 102.6316929   1.5875548  88.0852604
 108.8764668  26.7163897  66.8191051 108.8645458  26.9383430  65.8880663
 108.0901527  27.1308994  67.1742344   3.1441246  12.9531622  45.6261063
   2.5271450  12.3592901  46.0537672   3.7468182  12.3756814  45.1575899
  85.3118610  21.1139774  87.1704769  85.0415039  21.4267063  86.3071442
  85.7318878  20.2710915  86.9991684 101.9160938  22.5152230  53.7245226
 102.5815582  22.8552341  53.1263781 101.1003685  22.5599790  53.2257032
 101.0552025  46.1469316  54.4674540 100.4143047  46.6692209  54.9498367
 101.7537308  46.7646837  54.2513990  39.0858151 100.5492624  64.3908882
  38.8465382 101.2509530  63.7854052  38.4945561 100.6629988  65.1349974
  78.3921671   4.3081015  25.9226060  77.7935171   4.6596807  25.2636337
  79.1450214   4.8988703  25.9017706  78.2771397  27.1483016  59.8465586
  78.4402370  27.8461909  59.2120647  78.3441734  26.3408136  59.3369484
  63.5813856  12.5074899  18.2790804  62.9931641  12.7171159  19.0045321
  64.3755627  13.0095756  18.4619200  20.9841000  20.0599146   3.5883498
  20.7757984  20.9929538   3.6361179  21.5318619  19.8971736   4.3562716
  73.3976364  25.8177638  31.9279742  73.0639076  24.9304867  31.7953086
  73.7199116  26.0837007  31.0667849   9.2778431  17.2603273  48.5917282
   8.8857685  18.0063605  49.0455389   9.8101460  17.6534760  47.9001236
   4.7325360   6.6837168  42.6635695   5.5607735   7.0099366  42.3116636
   4.3559491   6.1679113  41.9505739  77.5348663  31.9128084  42.9802990
  77.9494619  31.4852953  43.7296820  77.2070646  32.7418971  43.3287048
 101.1622238   8.3179754  24.6005893 101.4052010   8.1430924  25.5097699
 100.2074718   8.3844644  24.6163654  25.2638851  17.6992369  64.7060299
  24.8712097  17.6007128  63.8386583  25.2032696  18.6363709  64.8913383
  25.1036202  39.2056203  55.5185461  24.2312466  39.3708944  55.8761501
  25.1503502  38.2535362  55.4314566  58.5781742 100.5849027  46.0652208
  57.9985882 101.3269197  46.2376261  58.6715962 100.1517620  46.9136858
  98.6883736  16.1688316  79.0825939  98.7636185  17.0993888  79.2938566
  98.2208729  15.7911253  79.8275852  72.5047159  97.8225803  80.0619793
  71.8891335  97.4191761  80.6739807  72.2249651  98.7364197  80.0083447
  75.4362345  21.3730431  80.8443069  74.5302105  21.4363933  81.1465359
  75.4429531  21.8390083  80.0082111  32.1287762   5.2178621  51.8545485
  31.6502606   6.0200059  51.6452074  32.9235112   5.2675194  51.3233614
 108.2001209  47.9008436  50.9935808 108.0907536  47.9990149  51.9394302
 109.1422081  47.9918861  50.8506823  89.1790676  21.3247204  31.3870049
  89.7718334  21.6063309  30.6901860  88.6529922  22.1002746  31.5819240
  11.2211071  35.2873111  35.0423026  11.3526284  34.6316624  34.3574238
  10.2914940  35.5085826  34.9866986  11.9870697  12.8391695  21.3409138
  12.7343499  13.4346902  21.3970876  11.5933930  12.8659356  22.2129965
  40.7740723  13.5027170  53.7634897  41.2117993  13.1492436  52.9890966
  40.9832131  12.8817022  54.4612217  94.0197659  54.3508005  35.5915332
  93.7901306  54.4941330  36.5096593  93.7656021  55.1620388  35.1516151
  96.6147137  29.3637562  48.3819485  95.7548141  29.7552133  48.2284403
  97.1468449  30.0815916  48.7251425 108.8944530  67.0446873  70.9228325
 109.5743465  66.3739634  70.8587551 109.1636944  67.7190065  70.2991056
  99.4520569  55.6923008  27.4018025  99.1641140  54.8253584  27.6876807
  99.7988892  55.5510712  26.5208960  16.7218338  57.2764969  37.9349065
  16.0065972  57.1291018  38.5537219  17.2307431  57.9886675  38.3222699
 100.4418087  32.9426312   8.6327016 100.5768871  32.1683502   8.0863744
 100.1658630  33.6235213   8.0191249  16.6204869  23.5285926  64.5377588
  16.4518296  22.6759481  64.1367769  17.0694195  23.3230352  65.3577805
  79.7908449  14.0927482  63.6126041  80.0186825  13.1710660  63.7343550
  78.8488245  14.0862107  63.4429264   3.5052525  27.7664304  16.6079295
   3.7596737  26.8827868  16.3420844   4.1856800  28.3317733  16.2423778
  99.0567780  26.4733934  47.0600939  98.9631271  27.3955321  46.8210983
  99.2465401  26.4871788  47.9981947  16.1483799  39.4287682  79.2263222
  15.9842526  38.5000420  79.0627480  15.4029881  39.8776174  78.8273859
  72.4372053   5.3065521  74.0898705  71.8689919   5.9120280  73.6136723
  73.0861378   5.8692151  74.5124006  85.3422832  62.0311594  65.7672977
  85.0880146  62.8601265  66.1727476  84.7031593  61.3983488  66.0948658
   7.5754105  64.8766899  45.4537630   7.7982651  65.0861931  44.5467472
   6.7628895  64.3745995  45.3909206 101.9862080   9.4810826  63.8118362
 101.5196514   9.1190767  64.5651674 102.0233917   8.7596375  63.1838512
  17.3395382  50.8416080  55.5008698  18.1164872  51.3595581  55.7113886
  17.3805844  50.0946856  56.0980749   0.4969559  54.9476561  11.0675867
   0.4717836  55.6987572  10.4747636  -0.4197826  54.6915442  11.1687524
  21.7488991  20.8023119  44.3124723  22.5804936  21.2502718  44.1575241
  21.1445175  21.1945176  43.6822939 106.6060448  21.9035172  39.3457603
 105.9481716  21.7374372  40.0209332 106.1210442  22.3279047  38.6380196
 103.2453133  92.3680245  51.5768671 103.9452339  91.7558002  51.3498783
 103.6220719  92.9187821  52.2631264  92.5386906  15.6254125  38.2754469
  92.7987766  14.7989345  38.6822915  93.2087135  15.7866383  37.6111341
   7.1898876  66.7888737  26.1846566   7.3294483  67.1663046  25.3161526
   6.7150818  67.4660206  26.6665983 102.0628738  24.2469335  82.0440769
 102.4875069  23.7085652  82.7119732 101.3587475  23.6950731  81.7036533
  12.7891861  29.9623132  68.1379318  13.5866963  29.4346285  68.1799269
  12.6867901  30.1680803  67.2087383  90.8788872  34.5271873  16.8583941
  91.1726379  34.5534182  17.7690268  90.7288742  33.5984612  16.6817772
  60.4889466 101.7707698  47.9444695  60.3969456 101.5307822  47.0224190
  59.7706581 102.3826076  48.1055355  22.9232727  20.9563708  51.5249968
  23.3900868  20.4551625  52.1936512  23.4469639  20.8433318  50.7317781
   9.2806469  49.5796871  70.4359722   9.6154248  49.7786331  71.3103724
   8.6751686  48.8508034  70.5714369  87.3252655  97.2544341  32.0886588
  87.6124932  96.5275740  32.6412892  86.6143776  97.6638853  32.5818324
  77.8378582  26.7636061  54.7862291  77.5681686  27.3618865  55.4830503
  77.4593496  25.9202886  55.0347900  94.6483040  40.6107521  42.1936607
  93.8815975  40.8605385  42.7094269  95.3939629  40.8206844  42.7559328
  82.4444103  58.7195444   8.5236549  81.5549564  58.6773539   8.8748318
  82.5075245  57.9636145   7.9398590   9.4244610  37.5741100  64.1765213
   8.9885365  36.8140960  63.7910700  10.1674401  37.2067618  64.6553564
  91.5363598  17.4462473  22.1403837  92.2452736  16.8076324  22.0639420
  91.6845036  18.0562043  21.4177251  91.4305305  20.2197003  63.3268833
  91.2646294  20.9066772  63.9724636  92.0405483  19.6242106  63.7621975
  94.6703720  28.5177827  43.7187004  94.6532345  28.0018425  44.5247698
  95.6010914  28.6528802  43.5405350  97.2241306  40.7187891  47.9044533
  97.7582455  41.4344549  48.2490969  96.5421677  40.5899525  48.5636616
 103.2316685  44.8369360  81.0095215 104.1501141  45.0839949  80.9016228
 102.7491093  45.4715443  80.4797554  94.9519253  37.0879889  49.5555305
  94.8805046  36.1344290  49.5985937  95.8106136  37.2463918  49.1633558
  93.0277729  57.2449732  61.3010597  92.8397942  56.7747259  60.4888010
  92.1671295  57.4157047  61.6836452  91.6315746  30.0902915  49.2169428
  91.7772770  30.3297687  50.1321793  90.7277107  29.7762012  49.1925240
  27.3274266  13.5704517  66.2076426  27.2184788  12.6201153  66.1726904
  26.4641033  13.9015687  66.4551353   0.4803692  42.4140453  61.9695854
   1.2006890  42.8448820  62.4297476  -0.1569141  42.2148466  62.6554537
  95.2443409  17.0688307  83.1068420  94.4638634  17.5986528  83.2692623
  95.8698750  17.6778829  82.7144241  28.8823544  65.0295448  47.3370695
  27.9836022  65.1784897  47.6308346  29.2242371  65.9055805  47.1584558
  86.2983418  31.8369484  63.4590578  85.8756351  31.7250824  64.3105507
  86.3330460  30.9540009  63.0910444  60.2633247  85.0109961   2.6583059
  60.0296364  84.5746091   3.4775694  60.0725803  85.9355572   2.8165395
  92.6481152  29.7312188  45.1247644  92.4239922  30.6113505  44.8224831
  93.2516193  29.3965840  44.4614172  15.4745518  21.0128880  63.7643576
  15.1610409  21.2368584  64.6405888  14.7095333  21.1255836  63.2001925
  95.6515884  60.9182882  24.9029207  95.7098103  60.0446701  24.5160985
  94.7754097  61.2254286  24.6700644 106.4632130  38.3928442  62.7052259
 106.9210243  38.0309629  61.9464922 105.5810547  38.0254006  62.6503611
 100.2386951  56.5887403  34.7130394 100.9456348  55.9435892  34.6972013
 100.5336952  57.2520304  35.3369427  47.4086437  92.9851320   0.5212934
  47.8442726  93.7434557   0.1321943  46.7689190  93.3606937   1.1262281
  25.8198201  30.1160836  24.4920158  25.6975590  29.9989557  25.4341221
  25.7805477  31.0635114  24.3613601 106.6741562  49.7412109  49.6359873
 105.7481003  49.5895576  49.4471645 107.0191097  48.8753033  49.8538160
  84.1765594  33.6801243  52.2763872  84.7882462  33.1351733  52.7714682
  84.2998219  33.4119511  51.3658285  95.3220367  34.3082070  43.1743336
  94.6854782  35.0221157  43.2112312  95.8448792  34.4935822  42.3942709
  11.9489800  71.1133480  36.5862989  11.4449631  71.7085457  36.0313845
  12.2178017  71.6505814  37.3315167   2.1043335  58.7394428  20.2630424
   2.1941410  59.2113400  21.0909796   1.2207447  58.3724070  20.2911687
  36.8534314  32.3538733  48.7246990  36.2099873  31.6484618  48.7925386
  37.1643864  32.4814296  49.6209526  91.9900703  56.6117668  58.3816767
  92.2128963  57.0440817  57.5572491  91.3565540  55.9378815  58.1351662
  94.0812874  40.0407219  52.3435926  93.4913826  40.1329899  53.0917454
  93.9288712  39.1504264  52.0267725   6.0399662  74.3760920  63.6374807
   6.2344490  75.1414299  64.1784620   5.3977715  73.8805246  64.1456509
   4.3189370  14.4110656  80.2738762   4.5296036  15.3365171  80.1498127
   3.5680329  14.2573988  79.7004938  86.9159698  59.7360420  35.9660316
  86.7807674  60.0261784  35.0639391  87.5748730  60.3365564  36.3145614
 103.3970356  48.7332439  40.4049110 103.6261940  48.9833307  39.5098305
 103.7476635  47.8480482  40.5034924  10.4945790  37.2887588   9.9302244
  11.2828766  37.2893977  10.4731953  10.8173786  37.4231339   9.0391737
   3.7309014  41.1159515  18.1001186   3.4839474  41.9886875  17.7942097
   3.1379925  40.5234718  17.6378834 105.8212852  23.3197498  37.2984433
 106.0243893  24.2420983  37.1426988 105.6934452  22.9517055  36.4241242
  81.4020443  23.7024498  27.6745677  81.5830612  24.6249652  27.4944878
  82.0434189  23.2253075  27.1480632   2.4037587  51.8630981  58.8127565
   1.6042744  51.3423300  58.7362576   2.5258290  51.9774866  59.7552204
  88.0064011  36.8514395  65.4406881  88.4730434  36.2070704  65.9729099
  87.5018787  36.3277459  64.8182440  98.4951687  39.5935464  24.7246242
  98.0111885  40.0958443  25.3801298  99.2467880  40.1449680  24.5072889
  88.5804367  60.9805250  56.4389658  88.9924812  60.1523352  56.6850471
  88.1591225  60.7981634  55.5990458  58.1209828 101.6003475  79.9184608
  58.2473351 102.0060561  80.7761669  58.8231064 101.9611189  79.3770790
  29.0429913  41.1764097  16.7087519  28.7701641  40.5840492  16.0081100
  29.7461926  41.6976833  16.3214254 100.0350380  46.2155914  51.5121460
 100.6244183  46.1158228  50.7645416 100.4802799  45.7652569  52.2299099
 106.9040585  42.2819185  54.0377951 106.1450481  41.7102242  53.9224434
 106.7099380  43.0492640  53.4995317   3.6941849  54.1805887  74.2265177
   3.1334626  54.9097729  73.9617348   4.1869198  53.9582348  73.4365749
 101.7332745  45.6326962  35.2788234 101.9007206  46.1263132  36.0816526
 102.5948334  45.5356979  34.8732018  14.1430508  31.5398836  40.6939268
  14.0595852  32.3627281  41.1757898  15.0307976  31.5605927  40.3365612
  97.2799873  10.3958690  37.9565120  97.2929192  11.2342334  38.4182572
  97.4480438   9.7446716  38.6376357  81.0230446  11.3926506  63.2234335
  80.4928017  10.6141162  63.3935881  81.2175941  11.3499975  62.2871828
  98.9356327  33.2089591  22.5948095  99.1558552  34.0620375  22.9689670
  99.7789478  32.7683496  22.4903083  15.7942734  95.4357651  15.6935842
  15.2929554  96.0832670  15.1979597  15.6409893  94.6106460  15.2332456
  17.9809605  43.3341551  62.3605919  17.6626240  42.4450111  62.5165606
  18.6303746  43.4801579  63.0484724  94.9249077  73.8726473  59.2769051
  95.7089901  74.2602777  59.6657276  94.5535278  74.5719433  58.7390471
   0.4309784  53.7198400  60.1953888   1.1034905  53.4584427  60.8243752
   0.9199940  53.9647961  59.4098377   4.9726139  69.0822268  76.0992241
   4.2213188  69.1131210  76.6915369   4.7660576  68.3759975  75.4870129
  93.5968090  94.1347151  76.4441347  92.8263546  94.5649277  76.0732555
  93.4222389  94.0999996  77.3846436   0.5850540  58.7693357  39.7748256
   0.4727398  58.7933779  40.7251072   0.2648674  59.6198320  39.4742084
  61.5582142  72.6604870  17.3281820  60.9756813  73.4172180  17.3933275
  61.4712296  72.3686817  16.4207037  78.1377172  33.1684399  57.0802307
  78.2060528  32.6351905  57.8721952  78.8057184  32.8131700  56.4938927
 101.6189480  50.9720945  54.0428305 100.9041595  50.3391027  54.1108561
 101.2601662  51.7790937  54.4119644  24.8149525  39.8382354  62.0232487
  24.7531735  40.7269096  62.3734903  25.4029499  39.9171782  61.2720823
  20.2205216  43.3450317  39.2833233  20.0651394  43.4896898  38.3499622
  19.6737515  42.5907230  39.5030737  26.6579018  94.0967443   3.4952123
  25.8742771  94.5678213   3.2119329  26.5089855  93.1937340   3.2147939
  91.1034679  12.3092735  69.3895054  91.9659519  11.9444203  69.5876026
  91.1775208  13.2361281  69.6168518  86.4358902  68.3759451  40.7701588
  86.1659718  68.3345795  41.6875839  87.3919582  68.4088135  40.8030272
   2.8053986  45.5168104  70.8043194   2.5103222  46.4160299  70.6609392
   2.0581757  44.9759054  70.5487537  56.7354345  15.1491416  48.2885170
  55.9480524  15.2168179  47.7484417  56.8915987  16.0416508  48.5971785
  12.4088990  51.3067436  60.0324297  13.2667767  51.5242767  59.6677971
  12.6045452  50.7785749  60.8063793  43.0195366  11.0590470  20.7532668
  43.9152085  11.3904059  20.8181787  43.1211506  10.1130509  20.6483889
  62.5992966  43.6982775  11.6781902  63.4750605  43.4883404  12.0025349
  62.5675964  44.6549463  11.6761637  10.0126492  44.0046501  64.9731731
   9.7746121  43.3036995  65.5800009  10.4968010  43.5631943  64.2753553
  98.9094925  34.1864944  86.3119698  99.3032265  34.4044256  85.4671478
  98.4096146  34.9668145  86.5516567   3.6540638  58.7805223  60.3108454
   3.4707581  59.3867159  61.0285950   2.9397618  58.1443262  60.3463173
  91.0178661  27.3214507   9.5698845  90.5205536  27.5778627  10.3465271
  91.7574120  26.8203497   9.9136835  90.7882881  51.8035507  70.4451704
  90.2392864  52.5803614  70.3384209  90.4902172  51.4104795  71.2654638
 101.2521076  24.0548968  60.3158140 100.5599880  24.7094464  60.4094601
 101.2183762  23.8009238  59.3935394 102.7044964  56.1640310  59.2674875
 103.1866074  55.3632975  59.4739532 102.0619965  56.2452459  59.9723482
  14.9459873  35.0472784  24.6622634  14.1635834  35.4345965  24.2697620
  14.6329151  34.6428657  25.4713774   5.2042519  63.3288431  44.7922230
   5.3771912  62.4829674  45.2055311   5.5533539  63.2380247  43.9055872
  15.7181774   4.0277433  48.2305241  15.4429280   3.2366598  48.6938381
  16.2851559   4.4842947  48.8520718 103.8975811  32.6361299  50.4607296
 103.4453869  33.4064198  50.8048344 103.4108257  32.4063516  49.6692085
  14.5657193  46.7703629  45.9595251  14.2060505  47.0703077  46.7943335
  13.9127289  46.1559772  45.6243086 106.0183907  66.2111616  58.2481480
 106.7036343  65.9860706  57.6188517 106.4010906  66.9093800  58.7794352
  87.4263859  50.6614494  58.0497503  88.1080627  50.7761145  57.3876333
  87.0099449  51.5207577  58.1160688  79.8047718  26.3507120   9.4432886
  79.7466644  26.7263070   8.5647733  80.3401264  26.9734279   9.9350698
   9.1345249  79.0932941  42.8136921   8.7604462  79.7603703  43.3892822
   8.8445412  78.2623053  43.1899929  87.1384621  57.0208836  61.5310764
  86.8839645  57.6094437  62.2417498  86.5222645  56.2909651  61.5923119
   1.7184769  32.1868777  54.0233421   2.2380768  31.3987803  54.1819382
   0.8920609  32.0244527  54.4781876  17.6138531  30.3834724  62.6307821
  18.1232582  29.7285628  63.1080914  18.1523930  30.5971146  61.8688345
 108.4624958  26.9353843  40.5720854 109.3499279  27.0788527  40.2432680
 108.4694195  27.3116922  41.4521885  68.7297608  92.9260313  37.3855591
  68.7888218  93.7853139  36.9679761  67.8558899  92.9089319  37.7758050
  84.3353081  32.8269386  69.3784523  83.5366535  32.5617671  69.8345900
  84.0809059  33.6053896  68.8829470  90.7444191  15.7463968   9.6288395
  90.9619331  14.9651003  10.1372647  90.6907558  15.4365683   8.7247610
  92.5063419  19.9145830  26.6045833  93.3459759  20.3741884  26.6074562
  92.3318481  19.7287762  27.5272202  60.4796387  77.9786121  85.6799412
  60.9754158  78.1686961  84.8835087  59.7834851  78.6354767  85.6912231
  78.1406736  17.6306009  32.2432327  77.4386072  17.2088623  32.7386785
  78.9297152  17.4679410  32.7601385  99.6849537  49.2494535  16.6619885
  99.9491501  49.7670031  15.9013462 100.4758263  48.7725353  16.9135904
  84.5977879  23.3490944  57.2842789  83.8264084  23.8662481  57.5161409
  85.3351021  23.8476300  57.6365042   0.2284943  18.8900149  56.0571957
   0.8462464  18.2183266  55.7683325  -0.3541721  18.4342182  56.6646338
   9.6311795  25.5750108  47.5741100   8.7067734  25.4519033  47.7898502
   9.6992527  25.3158116  46.6551876  21.1711251  44.9008417  16.9866097
  21.5337406  45.6788254  16.5629482  20.6026684  45.2460098  17.6750481
  52.8012539  92.7527594  70.4312992  52.6834275  93.4522169  71.0740376
  53.7064053  92.8494286  70.1353312  13.5638272   1.6873074  29.5967555
  12.7379929   1.2040611  29.5700574  13.3475910   2.5066525  30.0418949
  -0.2122272  51.1253071  66.7040777   0.7446610  51.1485624  66.7116785
  -0.4727138  51.7704535  67.3614693  26.7155777  43.3614397  33.7413788
  26.6535603  42.4448729  33.4725022  25.8292614  43.5891676  34.0221429
 106.6504097  23.0428839  49.6042204 105.8119869  23.3299088  49.2424202
 107.0051765  23.8214493  50.0334167  81.4571667  39.6554971  27.0187020
  81.5065289  39.1710091  27.8427577  80.5618382  39.5141816  26.7110395
  97.8938103  29.8657894  51.9119215  98.5042191  30.3928375  52.4275398
  98.4332275  29.1656780  51.5443468 100.9764385  24.8400021  20.8608317
 100.5114269  24.6124172  20.0557208 100.8019257  24.1085935  21.4531326
  97.4923588  89.8918163  41.8356276  96.6298939  89.8157858  41.4274454
  97.4589325  89.2907857  42.5798559  87.4036407  58.2467127  29.8399997
  88.1319141  57.6955986  30.1265597  86.8253803  58.2944107  30.6012964
 102.0609760  19.7341204  24.8075056 102.7959919  19.8436427  24.2041898
 101.8389130  18.8049197  24.7482872   0.7456433   6.8943131  34.8627853
   1.0813366   7.6892525  35.2770495   0.8237873   6.2208098  35.5384469
  60.1213121   8.8757724  44.5528412  61.0750389   8.8334966  44.6224880
  59.8515797   7.9694098  44.4045782  86.3294315  28.0432510  26.8545318
  86.9695663  27.9346848  27.5578570  85.8492184  27.2153950  26.8378520
  94.7224331  72.2310925  44.8599100  94.5625114  71.3208866  44.6105433
  94.1199112  72.7379560  44.3155861  96.1001110  27.7312517  52.4237871
  96.6395950  28.5071397  52.2715330  96.0711956  27.2893572  51.5751839
  10.7396637   6.6119546  46.7047501  10.3547512   6.4777702  45.8386850
  10.8478676   5.7289970  47.0581770 109.0603828  35.4985285  37.7732277
 108.8352489  34.8423409  37.1137142 108.7414265  35.1295519  38.5968494
 101.4841439  98.8764822  51.8304157 101.6780926  98.3898540  51.0292864
 101.3921620  98.2024132  52.5037670 101.1017704  17.8314471  35.9190893
 101.6175365  17.0401025  36.0739827 101.7290688  18.4600961  35.5619645
  72.4115562  11.3108099  36.8013048  73.2881880  11.2339830  36.4246750
  71.9207859  10.5850494  36.4157581  41.4297822  70.3709682  88.1896383
  41.5766385  69.7717568  87.4577831  42.1114304  70.1468488  88.8231746
  98.3963966  20.7418489  18.4132886  98.5538197  21.6835403  18.4816146
  99.2461967  20.3427935  18.5999322  43.4819056  92.4413072  64.2019987
  42.9774929  92.8505420  64.9050808  42.8339268  91.9501089  63.6969471
  17.1136032  33.8904524  18.8642204  16.3456856  33.7695932  19.4227314
  17.6217686  33.0873990  18.9786601  67.5245358  65.3673135  19.9281549
  67.6485611  65.6271612  19.0152872  68.1824566  65.8674776  20.4110622
  89.9165344  22.2320271  24.0149903  90.6060696  21.5683389  23.9981508
  89.2518139  21.8719554  24.6021295   7.1924435   4.8332447  32.6321316
   7.6815354   5.6180829  32.3850465   7.8543412   4.1433567  32.6788235
  78.1550598   8.4732443  24.3829894  77.4694395   9.0994656  24.1506004
  78.3599949   8.0266750  23.5615206  59.5611836  93.8211196  12.2608519
  60.4998852  93.7836515  12.0773435  59.4631554  94.5634632  12.8571296
  83.8453102  39.2191792  24.3342352  83.8833046  38.6955166  25.1345897
  83.0238533  38.9596701  23.9169908  90.7769775  52.4174547  48.9744091
  91.2083149  53.2650232  48.8657570  91.3724804  51.9152021  49.5305920
  92.9454041  28.5041857  35.3154397  92.6602840  29.3516660  34.9738026
  92.3784733  28.3473325  36.0705638  74.3842459  11.6066432  62.8593016
  73.7709188  11.8710756  63.5449696  74.2655134  12.2576284  62.1676731
  98.0351067  61.4629936  26.0510492  98.3256149  60.6421137  25.6535673
  97.2362423  61.6900110  25.5751204  98.9683628  33.7771368  65.2127457
  98.1902409  33.5668564  65.7290077  98.9058208  34.7197270  65.0583267
  98.0513000  24.2442775  58.1660700  98.9221096  24.4288588  57.8141451
  97.5599575  25.0537753  58.0263186  16.9615208  42.4947882  14.3642306
  17.7458130  43.0181551  14.1993248  17.2468411  41.8249607  14.9856424
 102.4996948  24.5211244  37.5455546 101.9573975  24.0154505  38.1508946
 103.1443977  24.9535084  38.1055832  62.6860523   8.6141604  58.2292843
  62.6923609   9.3102497  58.8862848  62.8519535   9.0648222  57.4012661
 100.2798271  62.7554941  52.4338436 100.6385899  62.1624041  53.0939722
  99.3494892  62.8195286  52.6496935  95.2445793  56.2920761  29.4340158
  95.6090832  56.3835287  30.3143644  95.4535866  55.3930426  29.1804600
  89.5755291  11.0104966  71.0702944  90.2215099  11.3464439  70.4489374
  88.8034534  11.5594947  70.9334230 104.3669319  40.9630394  39.2269850
 104.5074272  41.0140705  38.2815289 103.5152245  41.3774061  39.3652725
  79.3934536  35.0597954  23.2769847  78.9508724  35.6109047  23.9224577
  79.2311049  34.1646862  23.5747361  25.8196675  28.1776118  53.6667967
  25.4829823  28.9219880  53.1680202  25.0424801  27.7835155  54.0629101
  14.1021572  47.9322004  56.0165691  15.0069176  47.7006531  56.2264013
  13.9467655  47.5375223  55.1584816 105.6319141  25.9523439  35.9476686
 104.8252010  25.5612445  35.6122851 105.3504086  26.7737389  36.3505244
  16.6405331   3.4993157  22.3495507  17.0951210   2.6647964  22.2348356
  16.8395459   3.9918992  21.5533185  87.9856777  30.3382421  28.5454822
  87.3153496  30.3710175  29.2279816  87.4972057  30.4165411  27.7260375
  12.6743161  30.2416158  31.0568094  12.1645581  31.0082436  30.7947683
  13.5776936  30.4675102  30.8352280  74.0325117  10.5040371  56.0757971
  74.5594931  11.2588930  55.8136654  74.6517563   9.7743583  56.0940742
  13.0111538  29.0413332  21.6850924  12.3096501  29.5478034  21.2756872
  13.7000595  29.0064025  21.0214472  86.2034798   7.4869460  37.9110479
  86.7619610   6.9895554  37.3136115  86.6807365   7.4871272  38.7407804
  77.3931503  21.3278341  46.9933796  77.5816584  21.6500950  47.8747702
  78.0891275  20.6951451  46.8157434  58.5194111   0.2812572  17.8845704
  58.8596582   0.3938611  16.9969976  58.6497641   1.1332455  18.3009303
  98.7935162  36.6341591  64.4388103  98.9895725  36.7166376  65.3720808
  98.3726597  37.4624157  64.2083693  84.0710999 101.2231725  65.3759432
  83.8321091 100.9253310  64.4982195  83.2814862 101.0849670  65.8990431
  22.3465000  41.6592169  42.1366787  22.6161324  41.7049599  43.0539751
  21.4286743  41.9308710  42.1429920  54.2812252  10.6661952  48.7009954
  54.1423750  11.0129619  49.5823050  55.2314663  10.6770539  48.5862970
 100.5299568   4.6363780  32.6205921  99.9983788   4.2846429  33.3346891
 100.6947517   3.8843495  32.0517945 107.5574017  23.4232879  18.6423433
 107.3882008  22.6779795  18.0660474 107.3445034  23.1017947  19.5184433
  99.9182796  11.5709126  44.3147516 100.4853916  11.4160466  43.5593462
  99.0358257  11.3850856  43.9938450  73.7432861   4.4949219  57.0802164
  74.4774103   3.9797425  56.7457247  73.0005360   4.2355162  56.5349960
   3.1198155  15.5782461  52.9581881   2.1671521  15.5294573  52.8789377
   3.2706963  16.2483525  53.6248398  97.2275925  17.0728290  27.2078300
  96.4714050  17.4264240  26.7394567  97.7631378  16.6668713  26.5261984
  47.8754593 102.4673781  68.2120514  46.9658066 102.7013517  68.0275869
  48.3405091 102.6522637  67.3961020  95.3685570  33.5838246  38.9091516
  95.7380104  33.2260585  38.1018472  94.4912434  33.2043791  38.9597988
  91.1332130  32.8992724  48.8751936  91.3952541  32.3378062  49.6047974
  90.4308033  32.4153423  48.4408331  46.1247517  87.8889238  46.4436102
  46.3655831  87.8402232  47.3687363  45.1959110  88.1201219  46.4497566
  16.8721138  33.8177514  36.6459370  17.1097313  32.9696655  36.2710786
  17.6328408  34.3745351  36.4800763  14.1267430  15.5941844  46.5701294
  14.9963700  15.6549895  46.9654560  13.5239922  15.6111801  47.3135185
 103.9986420  43.7998629  21.0104394 104.8207569  44.1125727  21.3880253
 104.0323544  42.8492260  21.1171603  49.9300266  88.8116287  43.6051130
  49.3039776  88.5798298  44.2910957  49.9375607  89.7687911  43.6012173
   9.3219982  32.1633625  27.3079634   9.8844754  31.4092135  27.1315956
   8.4802281  31.9312382  26.9158125  22.8397118  17.7210665  46.9773245
  22.1615731  17.9099536  46.3287354  23.4779202  18.4261644  46.8688583
  98.8757515   9.0488607  71.7460442  98.3961105   9.8612612  71.5842390
  98.8983440   8.6105716  70.8953810  20.2161824  14.6074069  37.8722954
  19.6210800  15.1382673  38.4017038  21.0622155  15.0487244  37.9477358
   6.7956005  63.4945297  53.8282204   5.9620987  63.8747597  53.5508490
   7.4533497  63.9502525  53.3029413  13.7233578  54.1515446  37.4088693
  13.1408726  54.7020721  36.8855429  14.1326557  54.7563696  38.0276489
  10.8806740  34.1177654  88.1800365   9.9370610  34.0649486  88.0282497
  11.2709938  33.7164259  87.4036217   3.1055008  31.2502813  51.4465714
   3.2999741  30.9200573  52.3237038   2.2091042  30.9615636  51.2752485
  15.4104649  38.1350207  46.3885498  14.6912514  38.2033849  47.0164776
  16.1607109  37.8555226  46.9131804  94.6608925  23.8030553  53.2533169
  94.9473381  23.5759592  54.1379690  93.7715435  24.1379070  53.3680964
  16.3348805  25.7873702  20.5990791  16.8983399  25.0445437  20.3823948
  15.4597699  25.4082966  20.6810308  25.9970509  23.5888457  30.0452352
  25.5071389  24.1554689  29.4492865  25.3595482  23.3349061  30.7125664
 102.9154110  31.7316246  48.0617476 102.9586983  32.2400546  47.2518969
 102.3483944  30.9903288  47.8491402  95.8972263  10.8570218  33.5306954
  96.3172054  10.0665939  33.1914687  95.0513649  10.8894217  33.0838203
   7.2216862  41.5140247  83.8333607   7.9742467  40.9359121  83.9585400
   7.5910079  42.3073769  83.4455109  17.9291403  22.0267725  84.8511505
  17.5420952  22.3130107  84.0238094  17.4168265  21.2581062  85.1019859
  36.3524341  99.9949625  20.4009969  36.9242650  99.2901781  20.0968225
  35.6946704 100.0842169  19.7113569  19.6716166  58.4609365  74.2828035
  20.3314853  58.0695724  74.8551989  18.8402176  58.1072760  74.5989227
 101.0585639   2.1996728   1.6467912 101.5834758   2.9721443   1.4370687
 100.9584472   2.2292415   2.5982816  45.1195912  80.2061751  19.7116525
  45.6648593  79.4236949  19.6301515  44.2946957  79.9684408  19.2882593
  61.8910537  20.3728000  36.1809404  61.8503640  19.7718088  35.4370363
  62.7578220  20.2265827  36.5598352  39.3285632  64.2238951  80.4741001
  38.5395384  63.7900925  80.7988834  39.9849272  63.5283470  80.4337502
  16.4228666  18.4337926  51.0727072  17.1311295  19.0776801  51.0748386
  16.2864971  18.2308018  50.1472712 100.9286331  96.6873672  39.0614278
 101.8253158  96.5499046  38.7559850 101.0241340  97.2124174  39.8560579
  11.0362542  85.8112431  82.9901791  10.7412696  84.9022865  83.0451965
  10.7562816  86.1017895  82.1221828  71.6130470  68.3791724  18.9696844
  72.4489044  68.8423016  19.0252454  71.8526481  67.4524668  18.9633901
  38.3921846  12.7637140  37.6707895  38.9434751  12.0128719  37.4504621
  37.5538238  12.3786298  37.9259260  33.1175399  47.4205112  61.6093493
  32.3309898  47.1517563  61.1346436  32.9632854  47.1346331  62.5097418
  18.0256319  67.5675344  85.1081276  17.1120274  67.2823811  85.0924683
  18.4188330  67.0722961  85.8267117  26.0153270  26.5285659  70.1190472
  25.3100586  25.9828854  70.4669857  25.6126666  27.0070577  69.3943787
  95.6806315  45.2660036  84.5440292  95.5528022  44.3248081  84.4255066
  95.4450000  45.4265213  85.4577732  97.8736064   3.5144130  16.2490041
  96.9938991   3.7098447  15.9262712  97.8969858   2.5599662  16.3176782
   4.3909296  64.6897602  89.1619205   3.7484223  65.1362228  88.6104870
   3.9471260  63.8915491  89.4485092  98.8411520  16.2133781  29.2610510
  98.4537718  16.7449991  28.5656698  99.3014357  16.8431608  29.8157938
  41.9244843  87.7046421  23.1665380  42.5268822  86.9706705  23.2875211
  41.6209548  87.9135015  24.0499838  55.9757423  37.8601813  77.5167274
  56.5872240  37.1246099  77.5521517  56.5348959  38.6370468  77.5243092
  87.3040603  97.1949556  25.2490575  87.7861189  97.8316095  25.7768114
  87.4975036  96.3506630  25.6564672 100.4290054   6.1658803  46.4092691
 100.1814315   7.0902387  46.3869436  99.7233126   5.7175914  45.9431512
  26.9759878   1.3232271   2.4665220  27.4998363   1.8964664   1.9068678
  27.5516304   0.5823270   2.6560934  91.7929531  71.7612696  87.2631264
  92.1598674  72.6276875  87.0872784  90.9883894  71.9364405  87.7512074
   2.2668513  -0.0043686  29.4080217   2.0709165   0.4379407  28.5820730
   1.4418730  -0.4200753  29.6586855 101.1890290  13.6427966  13.8368280
 100.6498358  14.3783847  13.5462911 100.6166337  13.1406585  14.4168718
  85.6387590  97.0016983  59.3311365  85.9334253  96.5586307  60.1268060
  85.5454229  96.2999990  58.6868246  64.2927455  94.2673996  19.6316011
  63.8430904  93.5562685  20.0880392  64.9241470  94.5999983  20.2695234
  82.0087551  65.1353851  29.2673834  82.3000215  64.2623833  29.0041978
  81.4353346  65.4210880  28.5561903 103.5570358  85.6713441  73.0986650
 104.4997619  85.6747630  72.9328401 103.2664083  86.5479520  72.8470285
  37.9696345  80.8452988  80.5172539  37.2213435  80.3246784  80.8092308
  38.0030346  81.5807438  81.1289978  70.9567546  97.8529718  12.3312242
  70.2207779  98.4467152  12.1827657  71.5796613  98.0651644  11.6361005
  79.4330143  93.3060768  22.3888261  79.6739887  92.5429991  21.8635900
  79.8269199  94.0474346  21.9289739  40.2406852  74.1856959  43.9237936
  40.9531223  74.4844892  43.3586462  39.9660404  74.9704292  44.3981226
  43.5479578  14.4392911  28.8774164  44.2080387  14.9045364  28.3635385
  43.7773022  13.5149566  28.7812860 102.7859328  17.0377962  31.9300039
 101.9617460  17.1546499  32.4025495 102.8582118  17.8166667  31.3783033
  82.1313134  52.3963157  18.0836733  82.9135869  52.5778571  18.6045606
  82.3700652  51.6392223  17.5488336  20.0633415   2.0528404  40.5963476
  20.0188717   1.1161081  40.4045446  20.8606323   2.1532432  41.1164243
  66.4104389  96.7772367  34.6166380  66.6905116  97.4375751  35.2504690
  66.7679476  97.0797327  33.7818201  73.3086446  24.0849773  16.1390360
  72.8274340  24.8623506  16.4225156  73.8429744  23.8447801  16.8960245
   0.2258524  44.2795936  22.3898370   0.1583561  43.9490787  23.2856329
   1.1113938  44.0435497  22.1135481  24.3265756  11.4223997  25.4093797
  23.7226423  12.1438543  25.5854662  24.8193678  11.3184730  26.2233694
 103.3642553  93.0202940   7.2973688 103.8433908  93.5701874   7.9172666
 103.4228538  93.4901312   6.4654691  94.0546153  35.6784908  40.4518659
  94.4578288  35.0600139  39.8426588  94.3516681  36.5377609  40.1524503
  83.5312532  99.5916536  25.0173338  84.0502332  99.0324190  25.5953939
  84.1716741  99.9794462  24.4209249  41.1858511  17.0049465  77.5740910
  41.3688612  17.9444408  77.5646210  41.9494629  16.6079497  77.1551323
  25.2932342   0.8540050  31.7810877  25.9857401   0.5106250  32.3456724
  25.3743824   1.8049756  31.8538625  98.3694813   4.5933572   5.1761778
  99.0822861   5.0052492   4.6878297  97.5862048   4.7776119   4.6577604
  82.9815315  80.4729679  43.5783727  83.0344032  81.0987761  44.3007333
  82.5203108  80.9454921  42.8853853 106.3881440  35.8980274  59.8871613
 106.6968651  36.7891359  59.7233152 106.7451024  35.3839231  59.1629314
  48.3446455  48.6890793  73.9338779  48.9565992  47.9782534  74.1248322
  48.0991936  48.5544014  73.0185366  12.3411417  23.7159014  48.5573053
  11.5996385  23.3939052  49.0698719  12.8184402  24.2869425  49.1592455
  61.5336918  94.9614551  33.6114366  62.0955848  95.5712345  33.1332357
  61.9200610  94.1011217  33.4478052   7.0324882  13.3518354   5.5846269
   7.2469267  12.5933877   6.1277731   7.4736484  14.0854923   6.0128362
  72.5584053  79.2805841  37.7566393  72.3592471  79.0740493  38.6698301
  73.3973383  78.8503864  37.5912531  60.2984666  96.2404039  35.6265600
  60.2418946  95.5475119  36.2845380  60.8082436  95.8536413  34.9146707
  88.7649438   2.0888320  39.3137415  88.0872247   2.6470319  38.9325006
  89.4679437   2.0879547  38.6641081  95.4480598  16.6248266  17.4822767
  96.1237929  17.3018781  17.4474008  95.0742409  16.7045108  18.3598478
  73.9037083  89.8674968  32.4790914  74.2683195  90.1504543  31.6405065
  74.0492033  90.6094506  33.0660970  13.3179282  97.2865847  20.8553465
  13.0646776  97.4698522  19.9506338  12.5327777  97.4797323  21.3676603
 107.3715351   9.6005527  30.2136858 107.2597072  10.1949445  30.9555872
 108.3174155   9.5726625  30.0695856   3.6556324  18.8820402  43.8965662
   2.7536281  18.6067430  43.7327535   4.1900905  18.2488243  43.4173734
   8.4969032 102.4406910  88.6234570   8.1336910 102.6334000  87.7590656
   8.8467598 101.5532780  88.5438347  39.0151076 100.0394609  32.5423868
  39.4219105 100.5744436  33.2239587  38.7083273 100.6719187  31.8926866
  65.3329705  92.2356108  58.7348611  64.8402952  92.9207209  58.2830675
  65.5974268  91.6328504  58.0398996  95.2475140  23.1704275  20.2601011
  94.8118517  23.5471145  19.4955499  95.7334421  23.9008609  20.6429441
  14.6041282   3.0447046  56.8566663  15.2221521   3.4206811  57.4834974
  13.7597784   3.4286157  57.0931394   3.4528049  16.1564485  32.7849920
   4.0504297  15.6573526  33.3417471   2.5962051  16.0522024  33.1992395
 100.9794519  11.7054168   4.3297823 100.1375697  11.6034166   4.7736890
 101.1280653  10.8623926   3.9014585  91.1237690   3.9947597   7.5475652
  91.7816303   3.3575241   7.2693880  91.6250298   4.7861186   7.7443464
   7.9353889   0.9035341   8.8620432   7.8910478   0.0051633   9.1894586
   7.4321636   0.8868686   8.0479677   1.6325578  17.6684133  13.6090047
   0.8649596  17.4657670  13.0742509   2.3533138  17.2102729  13.1767423
  52.5390624  93.4233883  18.2069833  51.6931878  93.0551269  18.4621484
  52.5582682  94.2872265  18.6188657  74.0310191 100.1975515   5.6912954
  74.2887782 101.0852888   5.4428632  74.8503803  99.7721365   5.9440763
  36.8759209 102.2105911  39.0355642  36.1598132 102.6471355  38.5742052
  37.4664572 102.9205063  39.2876012  30.7918589  85.3023532  15.4332502
  29.8742728  85.4679683  15.2168234  31.0032140  84.4893577  14.9743421
  72.0937656  61.7285171   1.2548883  71.9859766  61.1683324   2.0235307
  72.6583098  62.4408904   1.5549619  92.3181698  10.8161107  36.0735662
  91.7550657  10.9629575  35.3135736  92.5051329   9.8775236  36.0553415
  50.6340324 102.1025160  33.3860834  51.3639461 101.6393927  32.9750116
  50.0389467 101.4083126  33.6692484  56.8588136  90.8997157  23.9885004
  57.2957205  90.2103618  24.4886358  56.2646292  91.3110760  24.6161611
  92.3408375  13.1250707  13.7087782  92.4226449  12.1830980  13.8578565
  92.7633724  13.5254136  14.4686563   0.2748879  11.1142389  32.4269350
   1.1173996  10.6953040  32.2511633  -0.3010312  10.3947536  32.6855619
  84.4695244  19.2067949  39.0593584  84.4626031  18.7705556  38.2073743
  83.8995895  19.9670879  38.9437921 106.3343809   8.0325214  32.8809221
 105.5397961   7.5784770  33.1614645 106.0559008   8.9373104  32.7393396
   5.0422224   8.7618963   2.0163591   5.3854927   9.4608108   2.5730569
   5.4498276   8.9129535   1.1635549 101.4142654  12.5046913  25.6774767
 101.9380758  11.7179195  25.5263193 101.4517567  12.6391021  26.6244562
 108.9761565  40.4838554  25.1999529 109.3921874  40.6266109  24.3497903
 109.2234800  39.5910636  25.4407365   1.5654144 102.6279810  46.9827612
   1.1332665 103.4741810  47.0986421   1.5932140 102.2508314  47.8620870
  48.8495874  35.8618546  63.5381842  47.9433823  36.0347176  63.7934208
  49.3520737  36.5668201  63.9465523  10.3671583   8.0575076  36.2923296
  10.3104862   8.0727331  35.3369291  11.2429651   7.7171317  36.4749200
  79.7234749  99.9104813  29.7252805  80.3389238 100.5861500  30.0097520
  79.6083997  99.3522289  30.4942663  82.6272241   4.9950210  49.2602308
  82.7565322   5.9407798  49.1891534  82.5516329   4.6948758  48.3544500
  60.7757686 100.4370573  24.3276365  60.5217098  99.5142916  24.3139990
  60.0252341 100.8864048  24.7162492  58.7462972  87.0877960  21.7347582
  58.0137347  87.0580724  21.1193712  58.4072016  86.6783407  22.5307424
  24.4691213   9.9013511  14.4685419  23.5806688  10.2412025  14.5752103
  24.3509134   8.9620057  14.3275030  73.7401819  29.5538417  16.6021688
  72.8678354  29.7836105  16.9222505  74.3298963  30.1475040  17.0669706
  78.3354496  99.7244862  32.3047311  79.0211080  99.6140602  32.9634435
  77.6171230  99.1712835  32.6116617  18.1538471  14.1152803   3.0930860
  18.2575592  13.2888738   2.6213606  18.2372173  13.8762418   4.0162046
  86.2852882  96.6680935  15.4729612  86.3997053  96.0413053  16.1873014
  86.1086534  96.1256388  14.7043474  91.6101242  89.5560837  83.5630894
  91.0914220  89.1343880  82.8779888  91.1577262  89.3340874  84.3768978
   5.7473421  85.2630997  85.5975533   6.4389342  85.0549698  84.9693680
   5.4048926  86.1079121  85.3055859  87.2640405  17.8071920  29.5637663
  88.1424687  17.5287525  29.3047865  86.8932793  18.1971685  28.7721307
 103.7209461   2.9032413  39.1949995 104.4581649   3.1795970  39.7394045
 103.9873168   2.0532171  38.8446577  99.7196362  14.2602340  31.0190160
  99.2157385  13.4891836  30.7586248  99.4339249  14.9475328  30.4171713
  31.5620279  21.6836619  82.0320034  30.8346844  21.9365406  81.4634418
  31.1497664  21.4773798  82.8708839 107.6498363   8.2468788  19.0413149
 107.2848723   8.9913503  19.5196493 106.9579241   7.5858060  19.0629823
 106.1526988   7.8743163  14.6749838 106.3987753   7.6042644  15.5597170
 105.6619451   7.1305791  14.3253381   4.0865896  53.0949298  33.9906557
   5.0269220  53.2542507  33.9092882   3.9958570  52.1461669  33.9020116
  76.2599898  15.3118030  48.6501749  75.6764177  15.7726041  49.2529543
  75.8879948  15.4765598  47.7837427  56.7413090  97.6788595   9.2242010
  56.0948716  97.0240047   9.4878633  56.3068639  98.1799009   8.5339506
  94.9625537   5.0759593  31.4797552  95.5003426   4.6752492  30.7967813
  94.9235461   6.0021631  31.2413080  38.9770198  32.2206974  83.4816837
  38.0917668  31.9365764  83.2540131  39.5433569  31.5172172  83.1645012
  46.7126535  75.6499079  19.8750360  46.7270147  76.5498927  20.2006872
  47.4765168  75.2371648  20.2780111  73.9266442  95.8921745  18.5823305
  72.9959582  95.8055809  18.7886198  73.9447616  96.3711241  17.7537687
  31.2982878  12.7029840  69.0954645  31.5648350  12.0126907  69.7026594
  31.6533979  12.4285356  68.2500036  96.2360166  80.3470233  24.0666254
  95.9802269  79.6866300  23.4226663  96.4689325  79.8434046  24.8465974
  61.4279101  34.8673145  14.2444856  62.3804483  34.9558154  14.2772253
  61.1015139  35.7645313  14.3130453  63.2580589  66.9360855  25.8239133
  63.5201906  66.3581922  25.1072843  63.6472892  66.5415636  26.6043527
  95.5325148  11.9117347  68.3481176  95.2757118  12.8194276  68.1857164
  96.0753558  11.6780225  67.5951631  57.6381587  97.3578194   4.3016489
  58.0198478  97.2309378   5.1702364  57.6636671  96.4894989   3.8996561
  10.5000651  10.7893658  83.6203098  10.7565582  11.6771102  83.3706093
   9.5536846  10.7647789  83.4789276  11.9293197   1.6365997   4.0132864
  12.1063026   1.3274900   3.1248243  12.7941116   1.8235818   4.3785436
  69.6309899  78.6900571  38.1788690  69.1750191  79.1788295  38.8640077
  70.5583452  78.8706711  38.3325632  89.2837701   1.5654746  51.1611135
  89.4017646   1.4260761  50.2214964  89.1737614   0.6856862  51.5218122
  64.8109459 103.0866268  52.1881349  65.7643245 103.1703785  52.1712930
  64.6505092 102.2709635  52.6626642  61.9338322  28.5379028  73.1078959
  62.5167847  28.6941886  73.8508463  62.1837473  27.6720262  72.7853632
  68.2497000  89.3886140  15.4557283  68.4756778  88.4708789  15.3042944
  68.9232467  89.8815897  14.9871690  53.4597921  29.2291498  59.5470333
  53.6071014  29.2835379  58.6028004  52.6876450  29.7735763  59.7007275
  33.9741882  36.2621967  11.1316164  33.2351383  36.8696300  11.0990675
  34.1212114  36.1137000  12.0657213  26.9571623   1.7779390  11.0948618
  26.0865244   1.9463722  10.7345159  27.0215257   2.3635236  11.8493040
   6.9783485  63.7335014  88.3860970   7.3861390  63.9138556  89.2331028
   6.0918862  64.0853882  88.4672832  49.5470713 101.9033220  56.5151365
  50.2663826 102.5197962  56.3781030  49.6573459 101.6033342  57.4174078
  81.9901100  33.2826320  34.5901830  81.2836359  32.7131740  34.8949011
  81.5415893  34.0308563  34.1962106  77.1823952   4.0637008  36.9076307
  76.6653225   4.3720666  37.6518018  76.9353963   4.6439115  36.1875112
  64.7738742  84.0065864  36.4196165  65.4579829  83.4381845  36.0658605
  64.6845864  84.7056225  35.7718427  29.6101745  39.6394721   9.6230180
  29.3251594  40.2222911  10.3268106  30.5253681  39.8758689   9.4721372
  95.2321647  99.8708036  20.6611974  95.6102585 100.7340649  20.4937036
  95.9760641  99.3314627  20.9294565  75.5210403  29.5833675   1.4553316
  75.7916090  30.4148761   1.0659654  75.6439034  29.7083084   2.3963506
   3.9592060  21.2534038  36.3338525   3.6739334  21.4843599  37.2178800
   4.2388328  20.3405897  36.4032228  95.3546236  35.0522987  25.9006841
  95.9399531  34.9578563  26.6521509  95.1733468  35.9910575  25.8547742
  91.4496685  50.3310394  82.4215603  92.2654678  50.1624346  82.8930283
  90.7803072  49.8727036  82.9296112  94.5423625  46.1092273   3.6412580
  93.6664579  46.2156764   3.2701833  95.0710723  45.7769958   2.9157789
  24.4362760  81.8671036  73.7830353  23.7766242  82.4633217  73.4286118
  24.5663476  82.1622276  74.6842670  27.0644792   7.6312963  19.2732484
  27.9266819   7.4522773  19.6484716  27.2250065   8.3092204  18.6168344
  99.3699214  20.1079503  11.9353540 100.0496409  19.6196214  11.4708669
  99.5619581  19.9634258  12.8618868  82.5708339  21.1809293   8.8624914
  83.3443675  21.7396346   8.7868269  82.2727886  21.0611144   7.9608019
   0.7807335   7.2004739  11.2185915  -0.1413218   7.2127477  10.9618909
   0.8027467   6.6576187  12.0066602  19.9899563   2.9825059  55.2330549
  19.4178327   3.7475721  55.1731928  20.8760818   3.3438627  55.2121790
  81.8909811  79.7693136  24.1297109  81.0275911  80.1696279  24.2323644
  82.1096681  79.9046925  23.2077177   7.6808423  66.5702581  86.7738533
   7.1166015  67.2739124  86.4533329   7.1414649  65.7821989  86.7085648
 108.5612415  86.6648987  32.4138029 108.6727403  85.9382751  33.0268438
 109.3662285  87.1757605  32.4989374  95.6819675  26.7774192  16.4510782
  95.5743573  25.9661094  16.9474943  95.9722326  27.4185029  17.0999200
  16.9896972  98.5102272  82.5524426  16.2324989  99.0905666  82.6304340
  16.8136704  97.9909611  81.7678356  84.5291553  11.7216388   2.2582395
  84.2915509  11.6134921   1.3373239  84.3911896  12.6524965   2.4334676
  99.8045394   6.3994209   9.8945577  99.4609163   5.5118028   9.7931345
 100.2566931   6.5769092   9.0697630  10.6581911  12.7523795  23.8791425
  10.1086410  11.9687406  23.8906152  10.0392565  13.4777633  23.7956388
  21.0076698  50.8004276  26.5359743  20.6855329  50.3491870  27.3162611
  21.3470634  50.1008598  25.9777124  28.0507827 100.2710629  65.4516077
  27.4829817  99.9060059  64.7729635  28.3851671  99.5067024  65.9208345
  49.3116688  91.1092689  37.2979410  48.7233542  90.4424169  37.6520975
  49.0921592  91.1524418  36.3672502  11.3127455  33.7748233  32.8073557
  10.7789358  33.6124221  32.0295961  12.1902927  33.4826366  32.5608404
  10.4020667  52.1423292  79.7295427  10.0008130  51.4274216  79.2354393
   9.6930909  52.4846649  80.2739620  80.7494489  13.5834876   3.5426195
  80.2687166  13.2072011   4.2798765  81.5665302  13.9014236   3.9267213
  18.9753591 101.4355257  54.3442495  19.4820606 101.1144426  55.0901659
  18.6793255 102.3053959  54.6124323  17.7564081  10.3153983  39.9686964
  17.2994360  10.5249730  40.7832487  17.8720268  11.1606494  39.5346315
  35.8794332  46.3094521  75.5804443  36.2121487  46.1303186  74.7009850
  35.3600025  45.5365849  75.8020353  31.1742640 102.9864120  69.9433565
  31.5383911 102.2305775  69.4825363  30.3328538 103.1452179  69.5155287
  95.7451055  16.2827197  22.9205663  95.5029390  16.5389148  22.0306451
  94.9160454  16.0436050  23.3349474  83.6509082  33.9549819  11.6323145
  83.7198124  33.1648532  11.0964258  84.1664169  33.7594119  12.4147661
  45.2422667  46.4617109  75.7372999  46.0079002  45.9870243  75.4137039
  44.5636320  45.7920551  75.8224392 105.4114174 101.3008621  15.4744871
 105.7377266 101.3528803  16.3728387 104.5351242 101.6838339  15.5153997
  17.9114994  15.5740682  39.7285516  18.2927831  16.2030879  40.3410871
  17.3816999  14.9960748  40.2776106   8.4836636 100.1981905  42.7781255
   9.3189583 100.6654289  42.7921159   8.4696159  99.7580603  41.9282301
  31.1599668  19.5174400  54.5526559  30.6086572  19.5128671  53.7701852
  31.2934860  20.4453222  54.7461565  96.7797515  32.2566978   9.5399721
  97.3979185  32.4267284  10.2507360  97.2616074  31.6952602   8.9326437
  30.2569279  23.7782518  21.3056142  29.3608412  24.1070787  21.3772638
  30.2068266  22.8758232  21.6208036  82.1635460 100.4916790  63.1176622
  81.9695352  99.6991804  63.6181982  81.7520212 100.3439167  62.2661646
  81.5829060  31.9985858  18.4171732  82.4570242  32.1436969  18.7792452
  81.3331518  32.8454772  18.0475385  13.2691225   7.2663490   6.9762666
  12.9889187   6.3671771   7.1471555  12.5975880   7.6196948   6.3928087
  50.9028552  35.3735057   1.4816721  50.5831621  36.0393421   0.8728273
  51.8478320  35.5203811   1.5226514 109.2972062  10.9108678  36.8455942
 108.9322732  11.6579954  36.3713987 108.6126897  10.2431003  36.8037374
 108.1791184  51.3966075   6.4380510 107.3766038  50.9448425   6.1770780
 107.9244707  51.9157783   7.2008474  19.7984632  15.1244537  23.3585031
  20.4124435  15.7996551  23.6472280  19.7427019  14.5193569  24.0980775
  61.8498898  75.5932713  83.6348343  61.0117054  76.0192728  83.4553814
  61.9519758  75.6560087  84.5845127 108.0020497   3.6967794  41.6751249
 108.1947420   2.9055635  41.1720522 107.0593808   3.6547510  41.8358667
  21.7550024  11.8074886  12.5799806  21.2806495  12.6383249  12.5494154
  22.5487312  11.9659225  12.0689829  62.4594042  44.1546813  21.3981397
  61.9406137  44.9493400  21.5230711  62.6277576  43.8366500  22.2851236
  30.9386333  39.7732726  18.2228048  30.2908453  39.4537345  18.8508947
  30.4582294  40.3989784  17.6806505   6.2596387  79.4209146  80.1155567
   5.5115139  78.8358593  80.2349281   7.0090139  78.9203739  80.4382420
  76.6997026  95.5777338  18.7044199  75.7565712  95.6478002  18.8521536
  77.0538877  96.4094046  19.0192182  94.1892359   3.5151664  26.7631014
  94.2347834   2.6108686  27.0735796  94.6605489   3.5064069  25.9300287
  35.2367719  26.7235891   0.9980257  34.7008880  27.3209993   0.4763277
  35.1665005  27.0577041   1.8922575  18.1719812  24.7194187  16.0581358
  17.3163685  24.9893466  16.3917501  18.7966284  25.2774135  16.5214880
  33.4081244  60.1784801  80.1597691  33.5318780  60.1302814  81.1077118
  34.2882109  60.3178263  79.8101139  24.5350012  10.8093635  19.0056760
  24.3449816   9.8806230  19.1382368  25.2675947  10.9903757  19.5945509
  24.0657436  94.1586378  40.2424772  24.7616278  93.9275387  40.8577593
  24.2008160  93.5733011  39.4972475  23.3895048   5.2449600  10.0427778
  23.0479320   5.3275529   9.1524274  23.5364136   6.1469213  10.3275831
  92.2457049  55.1106159  24.8741014  92.5087068  55.7922164  24.2556532
  92.8789971  54.4059745  24.7375257  97.0510552  35.6088630  46.3851984
  96.2930200  35.0799171  46.6338785  97.4666426  35.1145450  45.6786783
 104.0340445  35.1160709  18.3152540 104.5812962  35.8440772  18.0207307
 104.3827126  34.8876563  19.1769273  40.1139472   8.8083784   1.8415506
  39.3957469   9.4120399   1.6517885  40.1941249   8.2753364   1.0505636
  13.4147676  44.1606418  29.0753420  13.9657434  43.4511749  28.7447221
  12.5252994  43.9086810  28.8271577 105.6287358  26.6973678  26.5418966
 105.3262756  25.8495847  26.2163026 106.1743209  26.4825717  27.2984846
  30.3894600  25.3139345  13.1270177  30.1553806  25.2317277  12.2025259
  31.3336166  25.1581184  13.1498010  14.9830374  51.8562595  36.4771898
  15.8158764  52.2074977  36.1621626  14.4802221  52.6283637  36.7365320
  68.3197855  90.4760793  41.5537317  68.6124181  90.4304483  42.4639661
  68.7272238  91.2714317  41.2107427  86.8182788  83.2205573  34.2513425
  87.1724389  83.3003131  35.1370390  86.1004672  83.8531295  34.2225607
  86.1752830   3.3934442  49.4577367  87.1319375   3.4204523  49.4754751
  85.9334097   3.9557067  48.7218053  81.5062097  31.1762325   5.5972822
  81.8420217  31.3829509   6.4694841  81.4150397  30.2233879   5.5953653
 107.3204920  32.3410884  52.6517351 107.0611522  31.7960826  53.3946664
 106.6957376  33.0662624  52.6570375  32.0466026   0.1698152   6.5484388
  31.4241108   0.3563539   5.8456285  31.9309887   0.8900539   7.1682127
 100.2978251  44.4604198  48.7727125 100.9865711  44.0297023  48.2664068
 100.5071781  45.3927986  48.7171419   5.4861355  65.4151106  77.4500656
   4.6808785  65.3395462  76.9381237   5.2092111  65.8150244  78.2744551
 101.3007090   1.6368858  46.6479070 100.7670949   0.9448043  46.2573774
 100.8528183   1.8517963  47.4660928  28.8021168  -0.1819857  18.1025179
  29.0469250   0.1508037  18.9659746  28.5109123   0.5924026  17.6211031
  17.9634317  13.0525628  56.8773897  18.4507450  13.8751308  56.9236620
  18.5982355  12.4163000  56.5481146  26.5999063   3.7211124  26.3484724
  26.0061725   4.0033046  25.6527193  26.2800249   2.8545705  26.5994985
  84.9753355  91.4311746  44.1396577  85.0171970  92.3869970  44.1099603
  85.3820585  91.1480620  43.3207185  31.1150202  42.2018234   3.3991487
  31.2103828  42.2391597   2.4474390  31.9236120  42.5875846   3.7361963
 105.8921454   9.5838443  23.8450487 106.0915420   8.8904468  24.4740732
 106.7203877   9.7415296  23.3918626   0.3973516  33.6208240  42.3149164
   0.3717979  34.0672294  43.1612642   1.2624892  33.8273708  41.9612177
   1.7502936  22.8208105   9.8671396   1.6724452  22.5387565  10.7785185
   1.7093095  22.0094243   9.3609769  14.0194687  30.6340019  47.2047289
  14.9012646  30.9991638  47.1317823  13.7410387  30.4976169  46.2991293
   0.4565224   7.0505611  30.6193025   0.9835371   6.7252675  31.3491495
   0.5442056   8.0025808  30.6661852  79.7558569  99.7291210  17.7185495
  80.5699037  99.7635487  17.2161825  79.6503328  98.8040140  17.9405267
   5.5184063   7.7187673  31.4587553   4.6971592   8.0396787  31.0861929
   5.3904566   6.7738382  31.5422399   7.2587999   7.7908937  29.1871507
   7.1880039   7.8202573  30.1412733   8.1887516   7.9342834  29.0114553
 101.7186735  30.4480163  38.4110983 101.5006993  31.3453094  38.1589277
 101.2628791  30.3153793  39.2422922  53.3989429  94.7359371  56.1510420
  53.7101841  94.4773769  57.0185089  52.9496717  93.9597130  55.8165836
  53.6286508  98.3054617  13.4861429  53.0574642  97.6612833  13.9044912
  54.1367744  98.6785868  14.2064340  16.4820751   4.9483959   4.8920591
  17.0931467   5.5525819   4.4704206  17.0306810   4.4162074   5.4682882
 105.2578113   5.7727710  34.5677908 104.4237659   6.0738651  34.2073209
 105.2564309   6.0890952  35.4712160   1.8377241  18.8537828   4.3759020
   2.0153173  19.7943298   4.3680246   1.8079146  18.6079208   3.4512956
 101.5103505   5.9843770  35.9832437 101.5844939   5.2715150  36.6177232
 100.5692194   6.1429492  35.9100492 105.1588366  28.5981838  53.9426382
 104.6927497  29.4134323  53.7572439 104.5369170  28.0768482  54.4502409
  57.0471430  87.1611500  63.8137388  57.6878738  86.4507961  63.8466597
  56.2428093  86.7440891  63.5049629  53.5332918  88.0267239  87.2419167
  53.7893152  88.0896854  86.3217449  53.3753967  88.9322090  87.5090981
  79.3369148   7.8167859  29.4942720  78.4045020   7.8269378  29.7104604
  79.5269696   8.7112895  29.2114885  91.4233921  29.9206916  18.5920293
  91.2070487  29.7833816  19.5142992  91.0216532  30.7618228  18.3744390
  18.8023889  92.9398251  84.3201447  19.4581521  93.5471249  84.6627712
  18.9594007  92.9254341  83.3760166  82.5452731   6.6786996  26.5038259
  81.6333745   6.9246570  26.3483293  82.9527817   6.7102329  25.6382806
  91.6864681  66.1961174  85.0255775  91.5313053  66.6382885  85.8602238
  91.3293552  66.7932177  84.3681812  12.6684173  20.4451457  30.2805288
  13.2273897  19.8149673  30.7351263  12.0049652  20.6866971  30.9268434
  18.9536938  22.7225248  36.3038976  18.7940630  22.8809921  37.2342928
  19.7088083  22.1345130  36.2871893   0.3739818  29.8074714   7.0430524
   0.5402478  30.7481471   6.9819982   0.9891447  29.4981758   7.7079923
  66.1522936  88.9578345  17.0950658  65.9198474  89.7680858  17.5486047
  66.8880962  89.2005804  16.5330084 101.5403674   5.0134508  21.9443281
 101.9811747   5.2831260  22.7500589 100.6468151   4.8063032  22.2179754
  93.2496593   8.7553445   3.5616834  94.1606114   9.0185110   3.6926038
  93.3011887   7.8361026   3.2998045  39.9079084  42.5558329  76.5458536
  38.9903784  42.8249884  76.5019894  40.2992105  43.1433439  77.1923399
  17.1012529  15.3296224   7.1863992  17.1910318  15.2198211   8.1330354
  17.6428875  14.6347276   6.8122442  96.8413804   1.5481941   6.7049177
  96.4311025   2.3499433   7.0291097  96.1657856   1.1334363   6.1684663
  20.0225029  95.5623653  23.2951410  19.4132576  96.2904003  23.1725652
  19.5126686  94.8991564  23.7603910  84.6054266  28.3785240   2.6847036
  85.5496202  28.3150283   2.8285749  84.2188368  28.1641523   3.5337217
  87.4625072  60.6458560  23.3364828  86.5885422  60.2848426  23.1878622
  87.7408574  60.9610454  22.4766023  69.6050619  91.1099914  10.3506048
  70.1400160  91.4476874   9.6322591  69.1205810  90.3797057   9.9656446
  86.4026568  23.8426582   7.2577150  86.4208386  23.4218017   6.3981969
  87.3130319  23.8239900   7.5528486   0.8389720  27.3939029  20.8576830
   0.9977516  28.2507936  21.2536008   1.2225517  26.7703477  21.4743478
  54.3396711  80.3058910  85.4787350  53.8716602  79.8656702  86.1882401
  54.8639822  79.6154261  85.0730515  92.3764071  26.4865390   6.5176733
  93.0237267  25.9899894   7.0183237  91.5579960  26.0056774   6.6409929
  72.5181268 102.1751860  29.7278841  71.7107486 102.2852495  29.2256220
  72.2270321 102.1059921  30.6371172   0.1016293  97.0213392  37.6483019
   0.8156262  96.8575170  37.0321901  -0.5628385  97.4750164  37.1297605
  66.6373085  94.4135120   3.7493951  65.8694648  94.5228508   4.3103750
  67.3826836  94.5461109   4.3351133  84.5927594  17.5219814  21.4256628
  84.5130847  17.8444377  20.5279405  85.5252645  17.3330537  21.5304144
  21.5754350  24.2429534  24.4268091  22.2290977  24.3655483  25.1152284
  21.8679174  24.8118774  23.7147577   0.9855398   0.4682628  35.9230669
   0.0668820   0.7367555  35.9376104   1.4419779   1.1987344  35.5055578
  62.3539518  82.1469000  39.4612939  61.5345668  81.6664174  39.3430669
  62.5615548  82.0415476  40.3897531  75.0156485  22.1270362  40.7777078
  74.1136841  21.9807760  40.4925783  74.9680755  22.1241657  41.7337282
  91.3547430  30.9679405  23.1687505  91.5315936  31.1930076  24.0821512
  92.0498738  31.4038173  22.6757581  62.4277567  95.2885559  40.5381448
  61.9218205  96.0805204  40.7199533  63.3367633  95.5868652  40.5072839
 101.5282915  14.9184600  16.6669901 102.2077343  15.5460779  16.4206369
 100.7078598  15.4003421  16.5625055  85.2844260   8.8924686   5.2461202
  84.6190963   9.3023721   5.7988889  85.6609020   9.6173040   4.7470148
   8.7577375  16.4822809   0.5423124   8.7923893  17.1193162  -0.1712839
   7.8234514  16.3219301   0.6750734  90.6077265  98.0375984  11.0396059
  91.5190290  98.0222538  10.7471616  90.5866073  97.4424246  11.7889841
   2.5479778  36.5910808  38.8034971   3.0202373  37.2214691  39.3473776
   1.6619715  36.9474212  38.7382848  24.5831951  12.1281330  32.2077997
  24.2472633  11.2397090  32.0890958  23.8073429  12.6863996  32.1565492
  81.2106023  10.3450385  18.4463365  81.1317811  11.0821144  17.8407438
  82.1101305  10.3957979  18.7696035   5.3532658  95.6069639  47.0140607
   5.0892077  96.3480213  47.5593526   6.2171278  95.8503035  46.6812570
  57.3326873 101.8550327   0.8650930  56.8775724 101.8438223   0.0230844
  56.8930243 102.5421646   1.3658674  86.3540742  50.0110999   6.5409906
  86.5455875  49.1317073   6.8669088  85.4330847  50.1524536   6.7601450
  29.4380316  50.0982562  30.6039102  29.6989902  51.0072032  30.7520826
  29.8260387  49.6156398  31.3338144   6.8367132   0.0129548  36.1648424
   6.3972696   0.2266637  35.3417738   7.7496275   0.2620212  36.0206373
  70.5505060  92.2957352  40.3084047  70.9013985  93.1458023  40.5739172
  70.2467250  92.4317530  39.4109399 107.3512766  32.6804534  28.8940389
 106.5023611  32.4510757  29.2721422 107.8958962  31.9072048  29.0413721
   1.7219695  13.7909404   2.4846513   1.3292893  12.9443637   2.6975782
   2.5639662  13.7857000   2.9398878  87.2643160  86.4880016  14.8809774
  87.8658746  87.1869066  14.6242864  87.8183817  85.8462599  15.3252847
 104.5913837  16.7879812  34.1989858 105.3387187  16.6000406  33.6311872
 103.8648126  16.9425289  33.5953004  76.0951780  98.5099819  33.5148580
  76.1658262  98.7910965  34.4271143  75.7278084  97.6274517  33.5639532
  98.8188717  10.7687131   1.5422113  99.4544528  11.2601224   2.0625837
  98.2072065  11.4319173   1.2224348  28.3927902  16.3441936   6.3809641
  28.9825519  17.0723716   6.5763338  27.9870447  16.5816776   5.5471761
   1.2217935  11.7399303  14.8354299   1.1174115  10.8042327  15.0080640
   0.3762158  12.1224967  15.0696809  97.0952532   3.6814395  40.7529123
  96.2920902   3.5217945  41.2485654  97.6406405   4.2027227  41.3420160
  70.9546350  73.1408289   3.2317121  71.2139438  74.0553477   3.1192644
  70.6253718  73.0938652   4.1292722  62.4594330  85.8892420  34.4337709
  62.4974345  86.8037155  34.7139986  63.3257173  85.7153562  34.0656145
   7.1088944  94.9933031  22.0178850   7.6680622  95.0556591  22.7922685
   6.2609110  94.7069195  22.3572023   8.2046446   6.8902580   1.4618356
   8.0429968   5.9521810   1.5624101   7.6185020   7.1598474   0.7547338
 103.8296435  66.7325012  20.8875806 103.6622236  66.0172931  21.5013273
 103.2564471  67.4401657  21.1823423  26.4878345 100.0185490  85.2857208
  26.9528294  99.4346714  84.6864700  26.1517692 100.7183170  84.7257137
 109.2997192  92.8351047  38.7056787 108.6982130  93.4553793  39.1176088
 108.8905596  91.9801071  38.8391073   7.7713331   9.7603170   7.3494299
   6.9278940   9.5893422   7.7684934   8.3340200   9.0435354   7.6424177
  -0.0511447  15.4396240   1.1164243   0.0953182  16.3767330   1.2452943
   0.7296118  15.0228111   1.4810140  76.4112543  85.8050588  52.4155100
  77.3200296  86.0971501  52.4864824  76.4558100  85.0109342  51.8829591
  58.0268906  94.0167597  18.0259378  58.3674406  93.6187199  18.8270719
  57.1268390  93.6970117  17.9634912  71.3237333  81.0307693  88.9657688
  71.0762548  81.7729092  89.5173264  70.6981134  81.0514164  88.2416153
  56.4598545   3.3265582  64.1770799  55.7082924   2.8857890  64.5734556
  56.4426216   3.0516855  63.2603605   3.7319422  82.0910358  81.2576962
   3.2561433  81.4972115  81.8383980   3.8987732  82.8668690  81.7929363
  98.5399125  34.9754325  38.3652647  97.9202054  35.5484191  38.8167913
  99.3128488  35.5222122  38.2244642  90.8137081  28.9595214  21.3027914
  91.0915873  28.0892078  21.5883882  90.7072709  29.4553653  22.1146066
 106.6756341  21.1311618  46.5380247 107.3634264  21.7932693  46.6072233
 106.0474322  21.5022317  45.9184320  99.4654692  89.8699188  71.5203714
  99.8661442  90.4094601  72.2019768  99.6701569  88.9704037  71.7757368
  64.6671437  81.3629940  17.8474291  64.8812650  80.5420282  17.4042566
  65.3799413  81.9561985  17.6102407  11.1585844  77.4395943  78.0015182
  11.3295531  77.2996426  77.0701694  12.0235205  77.5862360  78.3844233
  82.4803232  99.9220875   1.9331606  83.3554434 100.1138094   1.5960558
  81.8899940 100.4073980   1.3567789  94.3260214   8.4401361  52.6085527
  95.1499007   8.1683484  52.2040994  94.1244099   9.2816011  52.1992548
  96.4755557  86.6673747   5.4281385  96.0707424  86.9801322   4.6190984
  95.8664653  86.9305889   6.1180360 100.2949617   5.4913894  26.2800081
 100.7841609   5.4179374  25.4605444 100.6403587   6.2817088  26.6951330
  69.8986570  33.3043567  31.5395219  69.2703727  33.9344970  31.1867864
  70.2686015  33.7393943  32.3077066   0.3396519  23.9404765  34.7942979
   1.2137064  24.3305961  34.8026903  -0.1163021  24.3896810  34.0825708
  69.9737905 103.1703833  19.6871240  69.5248865 103.0485275  18.8505418
  70.7086920 102.5578573  19.6560438  76.1674689  91.1534217  12.9230268
  76.2307237  90.7040503  13.7658174  75.2479624  91.4111879  12.8574522
  11.4317068   8.8878242   9.8701246  11.2457498   9.5347587  10.5506570
  12.3848518   8.8991825   9.7828825  40.9526443  91.5023136  76.9492483
  41.8246222  91.5482616  76.5571070  41.0067844  90.7748795  77.5690413
 105.3215431  87.3990324   0.4317529 105.7343458  88.1313160  -0.0260489
 105.8123611  87.3206880   1.2497957   4.8316845   3.0535642  12.2023637
   4.1236528   2.4216071  12.0776327   4.7370371   3.3432905  13.1097372
  96.4978955  39.4943324  34.0654237  96.1517379  39.0044299  34.8113401
  97.0755599  38.8749973  33.6193712   5.4031690  19.8166362  17.8088148
   5.1219353  19.5721332  18.6904962   5.1188978  20.7253019  17.7100999
  33.9685273  52.8661966  87.0872307  34.0153146  53.5870934  87.7152061
  34.8713851  52.5581741  87.0084858  81.3723151  17.8819791  25.2997835
  81.2321059  18.5119764  24.5929105  81.1339579  17.0370380  24.9183424
  30.1254162  35.2429191  30.3185995  30.6904730  35.3092758  31.0883672
  30.7170852  34.9963752  29.6077020   3.6776003  20.7452861   6.5333612
   3.0494841  20.8056585   7.2531278   3.9524015  19.8283807   6.5315588
  66.4592408 101.1600187  62.0686205  65.9918236 100.3423336  62.2393377
  66.2505125 101.7163875  62.8190286  20.2381643  29.8274795  19.3894823
  20.2949365  28.9183227  19.6835001  20.8550295  30.2991573  19.9491556
  50.9534502  85.3424168  85.5089760  50.8946180  84.7323132  84.7737598
  50.6108952  84.8513031  86.2557602  99.9904321  19.3409265  77.5812960
  99.2831444  19.6044363  78.1699705 100.5501961  20.1148046  77.5179815
  50.8309650  92.6489735  82.2798824  50.5818367  93.1572723  81.5079975
  50.0044584  92.4792862  82.7319145 105.3125618  24.1415302  15.4360159
 105.8011816  24.6750776  16.0627611 105.8679197  24.1186515  14.6567304
 103.3876178  27.9672901  25.3833826 103.9628241  28.0128471  24.6196420
 103.9786193  27.8072254  26.1191232   7.3846468  27.0656196  15.1177747
   6.4491781  27.2070066  14.9723776   7.6276192  27.7225820  15.7701547
 109.0317749  95.0391510  34.6863325 108.7141250  94.2150476  35.0553568
 109.8062824  95.2519586  35.2069910  29.0351280  35.8067218   3.5026128
  28.7996372  36.3160507   2.7271326  28.6979708  36.3193408   4.2373140
  30.6761011  17.4391929   8.2580812  30.3272756  18.0817977   8.8758333
  30.6175026  17.8702728   7.4054487 101.8481443  30.0748245  16.9589574
 101.2859294  29.6068756  16.3415678 102.4439499  29.4053451  17.2951658
  63.9689684  75.2001429  77.3038197  64.5868158  75.4095745  76.6033602
  63.2537317  75.8255005  77.1872139  10.2587398  47.8941146   3.3578737
   9.6719440  48.1752483   4.0599210  11.0942682  47.7303592   3.7952573
  21.5870746   3.7292329  20.6699426  22.3703274   4.0909997  20.2553709
  21.2508186   4.4436304  21.2110479 106.0923169  17.5148431  24.8123510
 105.5346081  17.4505369  24.0370805 106.2037632  18.4555332  24.9498708
  13.0733284  34.5522682  10.4638822  12.6367554  34.0884010   9.7494180
  13.0752786  35.4689685  10.1884039 106.7824959   8.7070192  86.9552231
 106.0604643   8.2664693  87.4033356 106.5813326   9.6393407  87.0360661
  22.4305614   2.3411504  31.8917902  23.0429682   3.0220214  32.1703870
  22.7737268   2.0400087  31.0504968  39.6559414  19.3812124  10.4457910
  39.2725595  18.9821760  11.2268312  39.8292717  20.2875081  10.7003648
  27.8756317  39.5040695  14.7278078  27.0145162  39.9219600  14.7364481
  27.9575476  39.1425029  13.8453157  14.1856750  14.6147577  20.5505998
  14.4717344  15.3872482  20.0631006  14.5837101  13.8779870  20.0869520
  10.2500486  55.4184151  72.8487110   9.4766170  55.3813696  73.4114408
   9.9584919  55.0469065  72.0161200  37.3930373  97.7252510  40.3491266
  37.3913694  97.9394176  39.4161947  37.0906918  96.8178537  40.3871019
 108.5796211  18.0758277  36.0808046 109.0137956  18.7131206  36.6478784
 108.9879057  18.2002965  35.2240427  15.8892235  67.1859161  43.4413297
  15.1986059  66.7874519  43.9709528  15.7919439  68.1265918  43.5893209
  23.5942968  25.5617515  52.0487363  23.3959850  24.8133079  51.4859445
  24.4764646  25.3875677  52.3768766  36.1047205  31.8059627   6.3091524
  36.7204603  31.7200366   7.0369680  35.5513414  32.5489131   6.5500314
  13.2594808  57.1370593   0.7204111  12.4852356  56.9192878   0.2014215
  13.7345108  56.3099185   0.8005579  38.0443796   0.6448070  25.0402219
  38.6341127   0.4326145  25.7637079  37.3946747  -0.0580939  25.0467737
 102.5085971  36.5550987  27.7055986 102.5589631  35.8856288  27.0233114
 102.7689025  36.1005966  28.5067899  61.3400719   2.3526517  35.8411272
  61.7136083   2.7508108  35.0548895  60.8197997   3.0506650  36.2390287
 102.6334833  89.4609287  11.8936308 102.7578853  90.2805903  12.3720701
 102.1570991  89.7149113  11.1031969  20.7281145  58.8437168  45.3885515
  21.6522869  58.7592975  45.1539953  20.2564319  58.4871189  44.6358259
   1.4301881  22.5746480  30.0263746   1.7111524  22.6366321  29.1134412
   1.5981850  23.4447233  30.3882749  14.1165146  26.4785520   6.7912157
  14.4527992  26.3094226   7.6712949  13.1659159  26.5078107   6.8995626
  88.6648664   6.9321672  22.0803793  87.8885970   6.4639608  22.3876531
  88.9926693   6.4017192  21.3541467  28.5684705  99.6884632  78.4028006
  28.4486461  99.5560074  79.3431902  29.5121074  99.6025562  78.2671452
  51.0070499  20.4476587   5.5818994  50.8003601  21.3819639   5.5577238
  50.2783378  20.0292150   5.1235063   3.8781198  34.0884200  50.8890207
   3.9173635  33.2871143  51.4111288   2.9691347  34.1371719  50.5930479
  17.7170026 102.6738262  80.7153130  17.1783149 103.4146404  80.4373837
  17.1342492 101.9170666  80.6525707   2.2680577  30.5418197  18.7340505
   2.8467354  30.8538810  18.0383642   1.6267117  29.9922649  18.2836015
  93.4847305   6.8429891  16.5225179  94.1870401   7.1431104  15.9455259
  93.7071035   5.9325067  16.7169531  95.3361557  46.3351814  39.9835165
  94.7794673  46.5235988  40.7390459  96.0278437  45.7716457  40.3302629
  94.3476366  88.5478952  13.5171182  94.3265365  89.2752984  12.8952940
  95.2413629  88.5516384  13.8598688  20.8754476  59.8372642   7.7479608
  20.0662264  59.3783466   7.9733141  20.6293806  60.4166213   7.0268304
  52.8277159 102.0309353  52.8639030  53.3934593 101.2614346  52.9273844
  51.9466639 101.6723251  52.7572823   7.4667772  74.1124622  36.8202455
   7.2369322  75.0412361  36.7921026   6.8672355  73.6984435  36.1994703
   1.6008147   6.3019172  17.1607645   0.9116992   6.3659421  16.4995058
   1.8005070   5.3670160  17.2088392  22.5078853   9.6504823   2.8553445
  22.0056471   9.7595970   2.0478304  23.2992061  10.1710788   2.7174337
  60.3142214  78.7149334  82.8288269  61.1144495  78.5313606  82.3367214
  59.6258783  78.7444782  82.1643353  35.9925159  43.0403987  14.7565515
  36.9057068  42.7557174  14.7921426  35.8846458  43.3890907  13.8716753
  35.6143284  80.3468132  56.0989141  35.1830721  80.5139160  56.9369650
  34.9617577  80.5879402  55.4414606   7.7165684  13.9502183  32.5107248
   7.6611694  14.8145048  32.9183729   8.5741838  13.9403907  32.0857103
 102.1664808  47.1563236  37.4525983 101.2862704  47.4201671  37.7206380
 102.7060721  47.9319755  37.6057298  34.4395050  19.5578519  35.2032335
  34.1190418  20.1487104  34.5217474  34.9409803  18.8947193  34.7288854
  61.9840479  89.0706921  80.5203247  62.2123861  89.1566086  81.4459038
  62.8186178  89.1539001  80.0590229  30.5567678  18.7377254  29.1487081
  30.3936848  19.0023509  30.0540311  30.3154215  17.8118173  29.1226442
   3.8251718  31.2617580  10.2011449   3.1383928  31.8882553   9.9729593
   3.9696964  31.3954345  11.1378820  99.7866272  13.2315076  88.3807182
  99.7620176  13.9204610  87.7166653 100.1558088  13.6575426  89.1543007
  38.5727763  84.4864082  79.0560722  37.6576686  84.7046852  78.8795424
  38.5655785  84.1215801  79.9409914 101.1652968  30.7137195   4.3808038
 100.3236506  30.2800170   4.5214231 101.6554592  30.1101104   3.8225706
  14.7801089  59.1531754  83.9325905  14.9771178  59.5907259  84.7608280
  14.0255988  59.6281958  83.5843086  78.1976441  36.9596855  25.0228269
  78.6984227  37.1677581  25.8116014  78.1647507  37.7830974  24.5358522
  67.4537644  19.6467058  42.9547651  67.1217767  20.5360881  42.8322084
  68.1559307  19.5621530  42.3097475  73.6110401 102.2999954  50.9224319
  73.2755947 102.1552753  51.8071747  73.9547968 101.4478588  50.6542540
  33.3597168   8.1309787  25.3534658  34.0832027   8.5072938  25.8546407
  33.5430082   8.3769313  24.4467504 104.3692944  31.3597289   7.1338232
 104.3158815  32.2505084   7.4800832 104.1002414  30.8023826   7.8640325
  23.6864647  74.7899619   6.2240083  23.9961704  74.8077861   5.3184660
  23.9657911  75.6294910   6.5892370   9.7585949  29.4088737   1.0236700
   9.5917305  28.4726087   1.1323030   9.4024547  29.8092452   1.8168314
  11.9411978  32.7169982  29.7864587  11.4686188  33.5431472  29.8883684
  12.0936998  32.6429454  28.8443906   3.0970606  37.8232471  12.5322683
   3.0367097  37.4001399  11.6757734   2.5882467  38.6285106  12.4379976
  97.9387162  43.5210124   9.7155626  98.6188004  43.9581767   9.2031152
  97.3734996  43.1095115   9.0617902  20.3751636  84.8875332  71.0214901
  20.4438996  84.0812969  70.5101395  20.7641530  85.5598450  70.4620981
  15.3516468  21.5609352  54.1538675  15.7798227  21.9394676  53.3860166
  14.4221958  21.7523471  54.0285165 102.7905653  15.5804435   1.6851003
 102.0813320  14.9382488   1.7134435 103.5891292  15.0591461   1.7674406
  60.9645653  46.9018030  83.4916115  60.1535940  47.4085331  83.4494209
  61.6549253  47.5605249  83.5672379  19.1452011  14.4382182  30.0155409
  18.7460073  15.2991859  29.8905904  18.6080774  14.0206043  30.6888349
  85.6199977   7.8643934  19.5757158  85.1192341   7.3063079  20.1706941
  85.9594343   7.2634927  18.9124353  21.4098390  20.3870050  19.1797121
  22.1323999  21.0126535  19.1277464  21.6706261  19.7766820  19.8694475
  89.8023008  86.5908888  36.9726045  90.6948684  86.5690520  36.6275365
  89.7741627  87.3795560  37.5143106   5.4392322  29.6878806  16.1382826
   6.2754711  29.7594539  16.5985067   4.9310430  30.4380504  16.4468534
  29.3763527  11.4636842  32.7987440  28.5456404  11.9179193  32.9395254
  29.3349394  10.7034341  33.3788641   4.9813255  43.7773601  39.5266397
   5.9140047  43.5684482  39.5786054   4.9385771  44.7215454  39.6780069
  87.2721348  20.0385038   3.3427961  88.0185566  19.4400302   3.3125169
  87.2856996  20.4814235   2.4943502  84.5063400  82.7382469  64.4871902
  85.1346684  82.7675533  65.2087021  84.0311432  81.9174767  64.6166039
  11.8301678  77.1378851  84.6943378  11.9679070  77.8797913  85.2832699
  11.0038185  77.3330688  84.2524338 106.0682247  25.9969703   0.5725725
 105.4001114  25.3514568   0.8031519 105.5834005  26.8151275   0.4639490
 107.9660938  14.6742956  22.4965913 107.8464124  14.6894542  23.4461649
 108.1698892  15.5807725  22.2663744  46.8776308  12.9895605  71.0393715
  46.0352598  12.7158655  70.6764174  47.4701213  12.2638238  70.8431816
   8.5621532  65.9673206  16.8635709   8.7082704  66.2922279  15.9751375
   8.8453564  66.6846649  17.4305399  64.8279587  64.4541828   6.3221986
  64.9423656  63.5759250   6.6852434  64.1631643  64.3473808   5.6418474
   8.0925783  29.4411937  18.0457266   8.8711008  29.0777770  18.4676988
   7.4061807  29.3720905  18.7092931 104.7140954  20.3541032  10.7861002
 103.9818571  20.9121744  11.0480459 105.0011060  19.9382821  11.5990884
 100.7352995 100.9028175  43.3449037 100.5394529 101.8206909  43.5330064
 100.7245754 100.4752615  44.2012365 107.2968123  52.1856109  26.2590273
 106.6116593  52.2657005  25.5954225 108.0343220  52.6810352  25.9028490
  75.0385805  39.3900672  18.6045416  75.6140379  38.6510650  18.4071787
  75.3122120  40.0760070  17.9955633  48.3599361  33.4937278  45.7996137
  49.2336925  33.7029544  46.1297853  48.1369671  34.2293159  45.2291544
  26.4666438  75.6225348  86.7011070  26.8404412  75.5818224  85.8208561
  26.0932112  74.7527170  86.8432045   8.2070574  13.4556905  13.3680208
   7.2728428  13.3794490  13.5620840   8.2902750  14.2961017  12.9174478
  30.1412996  63.9242450   8.9600046  30.6565651  63.1517879   9.1924532
  29.4218859  63.5815708   8.4296758  93.5021493  28.1642190  15.1443727
  94.3054650  27.7893869  15.5055006  93.6720130  28.2348720  14.2050130
  12.2288688  53.7745563  18.4392984  13.1296238  53.9514724  18.7105425
  11.6981729  54.0174858  19.1979654 101.1292408  24.9911157  25.7621343
 101.9627306  24.8672763  25.3080614 100.8570454  24.1071216  26.0084970
  59.4663286  53.3720493  86.9450474  60.2988338  53.7552357  86.6687584
  59.3297338  53.7089682  87.8305149  95.5523345  22.9937402  28.8504274
  95.7788012  22.3017351  29.4717748  94.9056218  23.5276882  29.3118341
  26.6455015  16.8318406   8.9340360  26.0638412  17.5456373   8.6725004
  27.2367224  16.7196981   8.1896455  50.3994131  58.7908363  83.6580944
  50.5980492  57.9042101  83.3569813  50.8477736  59.3617535  83.0341911
 101.9646142   3.5303441  37.0666654 101.5625236   2.6621381  37.0389898
 102.6993082   3.4348337  37.6727445  95.4645132  95.0329569  16.1268957
  95.7476925  94.1849592  16.4688738  95.6049894  95.6424263  16.8514974
  20.8739408  14.6521131  15.7727296  20.4483827  13.8062898  15.6322916
  20.9482607  14.7278253  16.7240293   5.5878242  34.6450130   2.4155672
   5.8543094  35.5532447   2.5581892   5.1425251  34.6562950   1.5683229
 101.3599608  54.8451511   6.5501554 100.8824728  54.4666950   7.2883947
 101.0260770  55.7396594   6.4822252  88.7922214  97.7798298  14.9300058
  87.9492735  97.3659923  15.1155050  89.0186285  98.2359579  15.7405145
  40.4256185   3.4109537   2.8251989  39.8724159   3.6932889   2.0968492
  41.1023887   2.8711931   2.4167020  54.2000580  97.2534370  82.6828003
  53.6356306  97.3498058  81.9157505  54.4057941  98.1512928  82.9430962
  39.1094232  93.4049606  82.2533798  39.7014046  94.0307140  81.8359852
  39.5986009  92.5822639  82.2630596  31.2292465  34.7689430  36.3536413
  31.1326059  35.5372135  35.7909162  31.6217932  34.1048519  35.7869680
  73.5364531  83.8300636  15.0954301  74.0112661  83.6064365  14.2949445
  72.6413106  84.0015629  14.8029668  88.7312483   3.1465162  81.3169003
  89.0563987   3.7752927  80.6725883  88.2409309   3.6780656  81.9440174
   6.7519125  29.0493480  23.8384397   7.1138700  28.8591758  22.9729707
   6.6625055  28.1918851  24.2543657  52.0273685  25.5491424  68.5190630
  51.2830400  25.2923989  69.0633869  52.7452183  25.6761312  69.1393900
  17.5829347   5.0859681  30.2312715  18.4941276   5.3762809  30.1903112
  17.3965868   4.7570602  29.3518789  22.0395311  48.8051978   8.6471136
  21.5265068  48.1234065   8.2133062  22.1663317  48.4791366   9.5380933
   6.9327984  13.9372171  81.2506676   5.9968767  14.0302289  81.0728168
   7.3327503  14.7007192  80.8343315  90.1994715  43.6584369  13.6480863
  89.9067256  44.5100871  13.3237226  91.0941789  43.5715095  13.3191927
 100.3859495  11.3430227  80.9325027 101.2580894  11.0675920  81.2149048
 100.5486797  11.9527734  80.2128124  81.2617397 101.9815636  81.7630196
  80.3916645 101.5830898  81.7834854  81.8633175 101.2506485  81.9048214
  23.2217726  55.0900451  22.1004923  22.3545631  55.4917327  22.1536024
  23.0465301  54.1552535  21.9924028  23.8592752  71.8935768  17.3623808
  23.0882343  72.4469367  17.4869592  23.7411531  71.5103427  16.4932401
  13.2066521  67.2688667  34.8100526  13.8898882  66.5994731  34.7737272
  12.6642450  67.0995418  34.0397604  87.2519182  21.8256677  81.5715313
  87.2618984  20.8739103  81.6729069  86.3455986  22.0327772  81.3436604
  79.2742227  32.0594610  83.4851170  80.0969814  31.6173948  83.6945724
  78.6674093  31.7719091  84.1672611  85.9180010  14.0440416  86.3660717
  85.3002824  14.7298193  86.1123753  85.3946484  13.4279656  86.8787003
  49.1434002  27.6355147  57.4046469  49.6007919  28.1599975  56.7474222
  48.2566357  27.9954004  57.4235392  48.2198381  10.6260085  54.2511177
  47.2992992  10.3772223  54.3344307  48.1995630  11.5700829  54.0944481
  18.9183104  35.0093246  62.8307486  19.5287704  34.2779779  62.7374792
  19.4690192  35.7502079  63.0838156  24.1273832  46.7517567  87.3834991
  23.4587812  46.3404560  87.9312515  24.4793963  46.0346603  86.8561554
  47.3600864  35.8811307  81.3781738  47.8160667  35.6174159  82.1774006
  46.6642809  35.2320790  81.2741375  56.5731977  78.1775239  23.7165792
  56.6299700  77.7169516  22.8793962  57.4336170  78.5824063  23.8260324
  24.2482613  59.8407450  14.4621141  23.7353550  60.5415025  14.0595014
  24.0915011  59.0785703  13.9046629  62.5587629  52.4096948   9.3540723
  62.8028034  51.5421958   9.6767576  62.4909424  52.9481742  10.1425417
  77.2581028  81.3706925   4.2886217  77.7932523  80.6921866   3.8769491
  77.1706985  82.0471242   3.6170252  71.1124347  65.4064825  29.7541578
  72.0070766  65.7104483  29.6010168  70.6107806  66.2068274  29.9091585
   1.2420340  25.6036687  63.1533957   1.0878383  24.7689533  63.5957813
   2.0048936  25.9731078  63.5981321  93.6267612  21.9297973  13.7852152
  92.7504609  21.8103353  14.1513593  93.6055729  22.8027812  13.3931883
  13.3631492  30.6427431  76.2748384  13.7886012  30.6275439  77.1321535
  14.0296316  30.9914422  75.6828547  25.9498237  45.2985510  25.0486143
  26.3684891  46.1509022  24.9284132  26.1646854  45.0508573  25.9479005
   6.2646517  21.6898481   2.7496488   5.4963764  22.2231189   2.5456770
   6.6416868  22.1007053   3.5276468  70.8180045  81.9375637   1.5129335
  71.3589333  82.1863296   0.7634409  69.9405741  82.2472527   1.2883432
  54.5359133  84.5212343  10.6527956  53.7936209  84.2380383  11.1866815
  54.6085953  85.4604414  10.8226354  78.8357614  84.2133263  35.0546510
  78.6223243  84.9476412  35.6303747  79.5889114  84.5172217  34.5480402
  20.0678515   7.7171320  81.5984631  20.6977081   8.4266382  81.4715385
  20.3600526   7.0278943  81.0019779  23.5134053  29.7229385  63.1075764
  24.1073513  30.4147983  62.8163958  22.7098083  29.8717093  62.6092482
  70.2709507  64.0530601  37.1965368  70.1528310  64.9598995  37.4792440
  69.8474382  63.5323348  37.8789671  93.5070059  14.8721973  15.9219129
  94.0587280  15.3709022  16.5245111  94.0335319  14.7908727  15.1266916
  63.2569836  63.8444581   4.2150552  62.3815345  63.4883979   4.3668516
  63.1820368  64.3198648   3.3876474  65.2505254  47.4956471   4.7174413
  64.8938679  48.1638852   5.3026636  65.8261226  47.9789078   4.1246755
  45.9875202  19.1507220  73.1333590  46.6197395  18.6663353  73.6643028
  45.7591295  18.5491610  72.4247074  75.8364524  23.2203674  78.4880924
  75.2768673  22.9234290  77.7705097  75.3252162  23.9020610  78.9241648
   0.5591973   1.3550464  20.6869276   0.0300988   1.9041196  21.2655504
   0.1949676   0.4760782  20.7917364  93.1263182   5.6589977   8.0177457
  93.7369487   5.1383535   8.5395677  93.6779139   6.0958949   7.3688371
   5.0957525  45.8587074  61.1935806   4.6015823  45.1094198  60.8610153
   4.8356563  45.9285355  62.1121120  50.0976967  85.9236553  10.1922472
  49.1497051  86.0444000  10.1378019  50.3504466  85.6167176   9.3215425
  71.3214303  25.4718105   8.2224996  70.7521093  24.8790447   8.7131460
  71.2905463  25.1442138   7.3236330  55.7655452  85.5115369  29.1285570
  56.0011481  86.3714602  28.7803419  55.3487073  85.6996468  29.9694498
  22.3609781  33.3671832  72.4445009  23.2570148  33.2948518  72.7733135
  22.4334097  33.1797290  71.5086365  18.8808473   3.6089221  12.8232439
  19.4595846   3.8265888  13.5539396  19.4349226   3.6888925  12.0468195
  21.5063024  25.0588560  57.3877525  21.1072493  25.3692198  56.5749407
  20.7659554  24.9058652  57.9748726  72.5626491  62.3079303  50.2021749
  73.1240247  62.7907982  50.8087499  72.9898475  61.4567116  50.1064737
 103.4450163  17.3095071  86.8991375 104.0704067  16.6506934  87.2009373
 102.6461859  16.8151188  86.7156124  21.8370461  21.0160398  69.1474676
  22.5063205  20.3797483  69.3993330  21.0122442  20.6202435  69.4290257
  85.9941075   5.9135572  32.2965009  86.4198945   5.7003728  31.4661462
  86.1021707   5.1262895  32.8301389  41.6548370  69.9961987  10.0615366
  41.4711939  69.0725544  10.2329691  41.3749157  70.1320544   9.1563184
  86.6257881  72.5632098  37.2491415  86.8043112  71.7564180  37.7323015
  86.3745617  73.1951788  37.9227407  79.0403769   7.0083562   2.4052675
  79.0406410   7.7372352   3.0257185  78.5328791   7.3287479   1.6595895
  45.4595845  73.4600332  22.4206979  45.7240562  72.5448182  22.3276003
  46.0819190  73.9454606  21.8791349  28.0391097  33.2358837  88.5372639
  28.0083847  32.4786496  87.9525566  28.9404821  33.2537270  88.8588905
  67.7826999  28.6670783  22.4214990  67.2894238  29.0225294  23.1607969
  68.6594318  28.5098102  22.7719839 105.1320110  34.2039013  42.0603085
 104.5800872  34.7763991  41.5275240 105.2321942  34.6716261  42.8894186
   1.4363042  36.6056824  77.9522657   1.7038637  35.9081888  77.3538113
   1.2458029  37.3505354  77.3820591  20.6756926  32.2417998  51.8641996
  20.2651715  31.4739513  52.2618341  21.0896397  32.6983523  52.5966167
  12.0421076  15.4791152  88.0062962  11.2456679  15.7961535  88.4322071
  12.6976597  16.1509264  88.1937885  96.2029765   4.1108076   7.7310522
  96.1124251   4.0151588   8.6791380  96.7747543   4.8704616   7.6204832
  72.7473687  81.5728524  31.2838609  72.9482077  80.9405401  31.9738443
  71.9319366  81.2541655  30.8968980   9.0717310  18.1590605  84.9894524
   9.4387317  18.3712363  84.1312408   8.6948389  17.2860694  84.8795891
  54.1411875  94.2527798  33.6424406  54.1627489  95.2048424  33.7391241
  54.2220544  93.9193943  34.5360525  34.9755907  22.1860313  79.6926069
  34.7267032  21.3801289  79.2400455  35.7431030  21.9427729  80.2102757
  39.0783358  34.4482231  75.7787895  39.3581104  34.9598789  76.5378475
  38.2403803  34.8350048  75.5248928  72.7078181  13.1100789  15.9160097
  72.6240864  13.8488428  15.3131445  71.8142430  12.7828876  16.0194547
  18.4946561  38.2190585  52.5834322  17.6132059  38.5151863  52.8105545
  18.3553600  37.4196863  52.0756626  18.8930448  23.1746332  38.9022596
  19.2572388  23.7114993  39.6060808  18.5140022  22.4181072  39.3497236
  47.3727499  82.8041437   6.0297544  47.3043333  82.3261669   5.2032621
  46.8933057  83.6182287   5.8760317  63.9717380  24.4385902  34.7459276
  63.3198658  25.0011150  34.3277700  64.7652493  24.5636503  34.2254217
   2.4367744   2.9913607  67.4715805   2.3193799   2.1642420  67.9388332
   2.5908235   3.6365318  68.1616926  17.3479589   5.2792684   1.2526472
  17.6827558   5.9501401   0.6576021  17.5224670   5.6263820   2.1274622
 100.7321109  64.3682194  83.5444832 100.2092094  65.1696157  83.5684109
 100.3082730  63.8254452  82.8796577  23.6715865  28.9794946  74.4727659
  23.7580085  29.3002725  73.5750675  24.2883325  28.2494593  74.5266628
  10.3607631  66.7621660  86.0845375   9.4238698  66.5676069  86.1092758
  10.7315755  66.0832071  85.5208492  90.4655824   3.0684415  41.0522993
  89.9093781   2.5597993  40.4622514  90.4874942   3.9437858  40.6656129
  52.7121687  29.6378946  76.5130663  53.5442400  29.8909831  76.1132669
  52.4851561  28.8098812  76.0898781  21.5936255  29.4044042  84.2363358
  21.7016506  29.5498919  85.1762295  22.3943305  29.7548938  83.8461304
  84.4836830  96.4393309  33.4512766  84.4892191  96.3121536  34.3999727
  83.6148809  96.1471489  33.1755216 108.1667923  57.8910208  81.0864353
 107.7413641  57.2035313  80.5739880 108.1702526  58.6535883  80.5078888
  53.7113963  64.1674760  18.1106813  54.6552383  64.0865281  17.9734190
  53.4088241  63.2673862  18.2311876  93.7798927   6.9910041   1.4419897
  94.0887043   7.3810951   0.6242426  94.5797465   6.7752210   1.9214685
  33.5805917  21.5443921  86.1768818  33.5564733  22.0804024  85.3841972
  33.0794024  20.7606816  85.9514046  62.7820954  22.3711435  31.1548669
  63.5045508  21.9194929  30.7186372  63.0691884  23.2824651  31.2123449
  24.2222548  17.6203394  74.0686321  23.3845234  17.4918771  73.6237335
  24.8395872  17.0775008  73.5782671 108.7101123   7.4193756  38.4006460
 108.2107065   7.9910127  37.8175028 109.2926953   8.0119363  38.8757284
  45.9720372  94.4461468   2.2061880  46.0549401  95.2049616   2.7837331
  45.4638325  93.8133219   2.7136285  66.1225080   3.9366445  61.9810104
  66.6736937   4.6893772  62.1950674  65.6544209   3.7438124  62.7933788
  56.3692808  26.8112516  75.3076935  55.8013153  26.1477017  74.9161005
  57.2331905  26.6380095  74.9336863  92.3336004  98.7894705   0.0167520
  92.3857235  99.6965053  -0.2845900  91.4459823  98.7032535   0.3644998
   4.5999339  45.5068779  72.9579830   3.8260439  45.5253363  72.3949671
   4.2932829  45.8485651  73.7978888  72.3676537  91.4918855  17.7105768
  73.0586003  91.9065884  18.2271536  72.8086399  90.7779744  17.2500475
  55.4845058  59.3912282  13.4790380  54.9088215  58.7061068  13.8187845
  56.3035201  59.2766878  13.9610441   3.9881027  19.8648059  63.0340958
   4.5063582  19.9969530  62.2402573   4.5624518  20.1489568  63.7451601
  54.3646644  63.6439112  23.4284265  53.4287714  63.5938766  23.6229284
  54.4875633  63.0496123  22.6882036  98.2896922  32.4961559   5.9950693
  98.8951824  31.8161575   6.2903841  97.8233240  32.0986740   5.2597101
  33.4641480  19.5466030  74.9538755  33.6569309  19.8952281  74.0835142
  34.2584419  19.0747273  75.2042055  72.1075009  87.5384429  40.6881006
  72.0206307  88.4910181  40.6522234  72.6389025  87.3755863  41.4674146
  19.3722914  83.5110667   7.4198778  19.4453286  84.0250447   8.2240636
  19.2075180  82.6174858   7.7208669  97.5180290  35.1073448   5.9726484
  97.9293344  34.2430583   5.9645803  97.3702476  35.2936260   6.8998392
  59.5174742  33.3389306  81.2612820  59.6832180  33.0681205  82.1642876
  60.1594496  32.8528333  80.7437801  18.6177063  12.4312305  63.3541203
  18.7936532  11.5705156  63.7341785  18.6769950  13.0362058  64.0935278
   0.1555735  16.2303925  81.2776279   0.7240671  15.6786609  81.8148804
  -0.1454125  16.9162118  81.8736935   7.0094365   3.5712969  60.9088373
   6.9615817   2.6727083  60.5825233   7.2673100   3.4796116  61.8260765
  72.0505103  14.5660297  10.6274564  72.6849433  14.4415990   9.9215944
  72.0567373  15.5090228  10.7916219  73.5652578  16.6730729  19.1984422
  73.2559057  16.4183513  20.0677259  74.2608029  17.3083440  19.3683870
   9.7549566   7.4094764  22.2686441   8.8665994   7.3296253  22.6160391
   9.9891552   6.5201513  22.0031698  70.7680248  95.1119211   0.9065778
  71.6237305  95.5207041   0.7765920  70.9300374  94.4136551   1.5409429
  41.5178882  44.3345478  30.5424078  40.6536518  44.1232976  30.8955343
  41.7578595  45.1557246  30.9717233  41.1368759  86.5775445  26.6961057
  41.2081768  85.6532839  26.9346292  40.1950099  86.7461636  26.6698702
  26.3791656  67.5597286  63.7009764  26.8964338  67.9996681  64.3756008
  25.4749274  67.8089714  63.8919306  37.2719955  45.0073290  63.4768867
  37.1660233  44.3237543  64.1384983  37.0911050  45.8229446  63.9440870
  46.2201862  83.9588859   1.4441641  46.7620348  84.5001843   0.8700330
  46.0301201  83.1765154   0.9264715  41.7474787 101.5669229  25.6978758
  42.3736017 102.0324114  25.1433332  40.9462934 101.5296724  25.1754339
  20.2775192  21.1019421  66.5916538  19.8536849  20.6281209  65.8760500
  20.9134197  20.4807973  66.9466782  96.6418145  37.3154727   3.6279352
  97.0594237  36.8491737   2.9037817  97.0852516  36.9886009   4.4107206
  15.5010140  64.9683905  69.7537851  14.9718404  65.7659197  69.7411394
  16.1787593  65.1409864  70.4073191  94.6739004  48.8798801   3.9346082
  94.7828267  47.9895965   3.6002977  94.3893693  48.7622444   4.8409326
  29.6133279  98.6226395  12.3507936  28.7583678  98.2381704  12.1572454
  29.7750788  99.2248514  11.6245611  94.8207878  83.6351183  11.1439664
  95.2274059  83.8582518  11.9812925  94.6037220  84.4802192  10.7503755
 106.1657913  55.1322508  85.5782795 105.4930649  55.7865286  85.3896236
 106.8911422  55.6346464  85.9493542  96.0309385  95.3137091  20.4107435
  96.9495939  95.1972416  20.6531007  96.0603737  95.8011415  19.5874746
   6.8334335  60.1047325  83.4010410   7.6572973  59.7015476  83.6747646
   7.0972341  60.9092331  82.9544735  43.7751675  31.5652418  71.6655636
  44.4498777  32.1387672  71.3021517  44.2139339  31.1010766  72.3784924
  89.6685098  81.9420102   6.0565241  89.5798992  81.7599967   5.1209791
  88.7697052  81.9472912   6.3856943  71.1550709  15.2915183   0.4095132
  70.6861348  14.6451417   0.9372671  72.0508739  15.2712146   0.7461984
  25.2838182  18.0248916  60.6495333  24.7163057  18.3469653  61.3498402
  25.0717664  17.0941937  60.5783510  22.2921991  39.1444111  37.6248884
  21.8728137  39.5910215  38.3603382  22.0962739  38.2178736  37.7640820
  47.9942821  90.7334354  33.5195024  48.1830786  90.1084664  32.8194959
  47.5613950  90.2121976  34.1956289  72.9261540  61.4352479  17.5281198
  73.3421539  60.7875910  16.9591577  71.9933699  61.2239066  17.4896295
  70.3209828  94.8081854   7.6230009  71.0332702  95.4037550   7.8557546
  70.1778744  94.9595144   6.6887338  45.7475470  80.9810331   7.9317243
  46.5749274  80.5474070   8.1406267  45.8751779  81.3278869   7.0487554
  76.5628936  79.5007168  65.3811216  75.6780415  79.2493497  65.6458521
  77.1241730  78.8119017  65.7371140  70.5087971  72.9734948   5.9478433
  69.5586323  73.0100658   6.0577448  70.8198975  72.4891546   6.7126043
   2.9561672  50.0053288  12.9744966   2.1857510  50.5122949  12.7182157
   3.2338104  49.5681031  12.1695192  35.3296669  67.7803710  12.7749784
  34.8139088  68.5830536  12.8519399  34.7656212  67.0975175  13.1380136
  27.0104241  57.8487396  49.4012690  27.2570848  56.9248152  49.3593645
  27.7550888  58.3130217  49.0189791  44.0632486  47.1608400  83.5253906
  43.4547138  47.8922510  83.4207058  43.5031414  46.4090109  83.7184429
  90.0218271  81.2988832  23.2568987  89.9956774  80.4323080  22.8511961
  90.9025882  81.6241053  23.0705412 104.1343607  49.0372610  49.4061947
 103.5117431  48.8566017  50.1104259 103.8968904  48.4216309  48.7127638
  33.3420444  15.9305799  73.6414146  33.0302453  15.2636051  73.0297327
  34.1972327  16.1894131  73.2980680 108.8462758  11.0025775  73.6162090
 108.9761313  10.9001160  74.5590067 109.1321564  10.1687586  73.2430458
  26.7768049  14.9211586  88.0965137  26.7716265  15.0022650  87.1427727
  26.6488433  15.8151960  88.4136200  35.8812022  22.1684623  73.8753271
  36.4760756  21.4223599  73.7998867  35.5433011  22.1159339  74.7693586
  52.4094604  87.2527864   7.8157861  52.4412464  87.9137447   8.5074194
  52.3657523  87.7577236   7.0037706  46.9351326  88.3000901   0.9567983
  47.3346852  88.0776003   1.7976816  47.4298738  87.7913049   0.3144510
  70.8319044  21.1632657  72.2390079  71.1665726  22.0599866  72.2281790
  70.7711649  20.9191179  71.3154602  31.3170409  16.5804827  84.0940475
  31.8646145  15.7953751  84.0928173  31.2681174  16.8398201  83.1739521
  82.8539834   9.5271484   3.3507784  83.7786613   9.4155494   3.5715730
  82.6050708  10.3503839   3.7709673  16.4020836  22.0130348  88.0114937
  15.4671443  21.8525529  87.8835583  16.8219578  21.1870980  87.7711487
 107.9048226  12.2821561   4.9474676 108.7243721  12.1432010   5.4220827
 107.2555134  11.7782680   5.4381044  17.3334488   6.8320171  14.6670301
  17.6741775   7.6134673  15.1023252  16.3823732   6.9350091  14.6999128
  37.5613737  79.1041994  75.1916838  38.0583310  78.7439775  74.4571733
  36.9791913  79.7508621  74.7927809 108.4347341   4.2735711   7.7816064
 109.3013976   4.5083610   7.4499471 108.1318567   5.0589219   8.2373674
  38.0209231  51.3499928  84.4168282  37.3343444  51.4891338  83.7645435
  38.8321137  51.5793133  83.9633846  60.5370592 102.0692614  28.9528711
  60.5719064 102.4776199  29.8178918  61.3506149 102.3398998  28.5272939
  20.0076509  41.5919113  54.8985815  20.0446296  40.8485270  54.2967176
  19.4412673  42.2269964  54.4602823   1.3451322  10.8134071  21.6130502
   1.5661296  11.1834566  20.7583864   2.1913561  10.6532232  22.0307596
  59.5623636  23.5034800  70.2285337  59.2175722  23.0767059  69.4441795
  59.8059082  24.3817115  69.9359131  30.7557368  46.1838150  86.2052727
  31.2071657  46.0697269  85.3689575  30.9047151  45.3614998  86.6720009
  65.5302715  47.7621460  89.0936089  66.0436201  48.2347250  88.4383488
  64.8041344  47.3811579  88.5998440  49.5787907  24.3157363  51.3315296
  50.4253864  24.6977019  51.5630579  49.4764566  24.5073962  50.3993130
   8.3190912  64.5168447  66.5675259   7.5015533  64.9974537  66.4376116
   8.7020612  64.4547367  65.6924772  47.4632978  62.3235512  87.0645809
  47.0364571  61.5179968  86.7728329  48.2669640  62.3698807  86.5466976
  52.2537804  21.0131741  78.8980770  51.9215965  20.7358456  79.7518778
  52.9183722  21.6712165  79.1018724  65.1500248  91.6366985  17.9355772
  65.9917854  92.0918301  17.9126318  64.5526623  92.2587231  18.3508737
  20.8865476  22.1878147  87.4112415  21.0679936  21.3734221  86.9421196
  21.2410069  22.0429564  88.2885075  81.7631077  95.4637077  16.5908010
  81.6998838  96.3001516  17.0518835  80.8602594  95.1500252  16.5388258
  77.2082685  98.0463150  19.9779375  77.9522060  98.3680990  20.4871042
  76.4615129  98.1199625  20.5722196  11.0275873  17.7543489  15.5617387
  10.4488834  18.2115213  16.1719186  10.8231100  16.8275968  15.6864412
  31.3864541  41.0806704  88.0890560  30.9974575  41.9403744  87.9283810
  30.9426856  40.7599401  88.8741875  86.9809279  12.6427165  10.7740362
  87.2949646  12.1281997  11.5175970  87.3004744  12.1714107  10.0046213
 101.5623714  69.2839289  65.4477644 101.2960936  68.5608816  64.8798466
 101.3114430  69.0023947  66.3275433 101.3081310   0.6655637  11.9551046
 100.4500864   0.3811828  12.2699316 101.2731740   1.6212932  11.9949110
  21.9025612  37.7207470  82.8604031  22.3521781  38.2519436  82.2032070
  21.2809587  37.1938944  82.3581409  44.5014906  38.7529397  71.2776136
  44.1734886  39.5987844  71.5828943  43.9066792  38.1111884  71.6656685
  90.6925939 102.3676231   1.7062624  90.1374792 102.9944160   2.1701677
  90.2190803 102.1827867   0.8951814  64.7254180  70.4457608  27.5384767
  64.2511653  69.6484402  27.3026903  64.3116497  70.7393732  28.3501585
  19.1353464  19.5353019  64.4416189  18.6258495  20.0168824  63.7899113
  19.8182797  19.0959644  63.9348459   1.1288389   3.2709304   3.4644659
   1.8684110   2.7220193   3.2037599   1.5163692   4.1291515   3.6362417
   6.9626411  16.1725418   7.4419077   6.2345203  16.7302457   7.7158411
   7.0725139  15.5513088   8.1617887  65.2471684 100.5658272  13.1543501
  65.5347942 101.3337400  12.6605852  65.9268497  99.9107483  12.9957922
  49.5135498  42.9869986  75.9196091  49.3074608  42.2830057  76.5345478
  50.0505447  42.5679970  75.2470732  88.9605138  26.5503446   8.1362207
  88.6901472  26.0695402   8.9185007  89.6914241  27.0941297   8.4299905
  17.4489197   2.4744502  25.0879724  17.1244224   3.1704131  24.5165117
  18.3390650   2.3062269  24.7788198  27.4428892  19.8296714  76.6418123
  26.9503522  19.7493637  77.4586344  27.9394293  19.0136468  76.5803194
  84.2483399  13.6112396  18.8491304  83.5644863  13.7409202  18.1920488
  85.0411890  13.9600078  18.4417207 107.1691010  21.0227291  32.7811487
 107.8313563  21.1692134  33.4565694 107.6260827  20.5280725  32.1009119
  18.2283401  43.2726669  81.1652470  17.6544869  42.5274038  81.3427544
  18.4006155  43.6528111  82.0266724   7.0913706  80.5074218  19.5433672
   6.8176804  80.0435117  20.3346403   8.0455360  80.4314258  19.5391042
  11.6420448  74.6098566  80.0065231  11.8941760  75.5226040  79.8666954
  10.8874440  74.4791555  79.4323063  61.4742445  94.3986586  19.0002973
  61.1516880  94.1019800  18.1493147  62.0163988  93.6758163  19.3162115
  96.6499732  17.5978128  47.2687395  97.4306104  17.0780889  47.4603613
  96.3119957  17.2302047  46.4521177  83.2038473  87.4638393   1.4255674
  83.5893844  88.3008578   1.6843946  82.5735258  87.6915958   0.7421548
  25.2445722  27.3755932  80.1546288  25.2464008  26.7994165  79.3902683
  24.8297787  26.8573213  80.8442497  71.6399621  77.4235227  29.1692407
  70.8067249  76.9826916  29.3354280  72.0479082  77.4977544  30.0319727
  80.0763963  96.9571426  13.4199293  79.5944093  97.1903065  14.2133672
  80.8280252  96.4551762  13.7350805  23.1550297  13.4926168   4.5779474
  22.7673467  13.6678020   3.7204797  24.0245613  13.1442539   4.3810041
  98.7053845  19.2989007   7.7224214  98.7737844  19.8551647   6.9464548
  98.2101820  18.5350219   7.4266203  71.8594908  94.6626738  27.5135477
  72.3783301  95.4091289  27.2138078  72.5051640  94.0434769  27.8540380
  93.3689663   7.9728834  35.1966436  93.7579534   7.1686832  34.8528726
  94.1107724   8.5660974  35.3151853 104.6192918  53.4832144  62.2960567
 104.1102959  53.3634949  61.4942932 105.2755956  52.7869511  62.2693157
   9.8827705  73.3602741  15.3418024  10.8192024  73.3510402  15.1437051
   9.6506558  72.4373844  15.4449232  34.2794791  75.0975469  15.8519228
  34.8772301  74.5326045  15.3622587  33.6006193  75.3331592  15.2195699
  27.7656029  96.6800859  38.7584264  28.7019866  96.4820364  38.7445314
  27.3397635  95.8339622  38.6206968  43.3946848  44.0175009  70.8195543
  42.7955723  44.2854977  70.1227951  44.1562366  44.5875216  70.7130194
 105.2137358  17.8043270  69.0140533 105.6285183  16.9416988  69.0063429
 105.9395779  18.4200156  68.9125013  66.4618825  98.3880165   7.4535043
  66.7004751  99.1589144   7.9682977  66.5884804  97.6517847   8.0519731
 106.9973301  90.1011660  41.5307768 107.8553032  90.4220059  41.8085916
 106.4077305  90.8421328  41.6706712  82.4720416  18.2064525   0.9084757
  83.2245705  18.6770097   1.2669618  82.7706352  17.3002712   0.8316190
  94.7764086  76.2381771  12.7819402  95.3224920  76.9995263  12.5860555
  94.5386289  75.8868387  11.9238908  89.2898414  54.0678398  23.4188039
  88.8653419  54.8941985  23.6493833  89.5783076  53.7049190  24.2562444
   6.9032558  23.8399927  13.9813573   6.4406427  23.1505910  14.4577463
   6.2144884  24.4459621  13.7081773  52.3615860  90.9213069  10.9390314
  51.8228923  90.1372078  10.8330782  52.5085114  91.2334135  10.0461538
  75.7969021  82.0838502   9.0304620  75.9385942  81.4459351   8.3310278
  76.4429306  82.7700832   8.8632448  43.6332512  24.9183798  69.4566107
  43.7553740  25.5810165  70.1364851  42.7441311  25.0666714  69.1345739
  36.6643125  81.1590531  16.3909204  37.3984988  81.4159444  15.8330591
  36.6741381  81.7939570  17.1071870  35.7499137  94.5440891  22.9039343
  36.4696956  95.1746967  22.8821046  34.9589254  95.0830534  22.8947599
  98.2406877  95.3473547  15.0094755  97.2988962  95.4200819  15.1642854
  98.3146070  94.7703865  14.2492921  29.5927835  91.3891029  76.8732214
  29.1404581  90.8691311  76.2089491  30.4246521  90.9349823  77.0073795
  13.3534511  10.9227315   7.0101030  12.8735718  10.3221313   6.4398153
  13.5857471  10.3940145   7.7734621  51.6578411  89.0924147   3.0082948
  51.2610744  88.2499197   3.2296808  50.9140788  89.6813205   2.8808649
  79.9313281  10.8934871  41.4941080  80.8664612  11.0891191  41.5531595
  79.8591331  10.2898590  40.7547529  69.5581869   0.7292072   4.0482385
  70.2184338   1.0579482   4.6583517  69.3952576   1.4617626   3.4540708
 102.6436994  24.0385000   7.2056348 102.9646251  23.5273496   6.4626939
 103.4362791  24.3599693   7.6354082  45.6307697  63.9694786  88.1227303
  44.7556162  63.5817957  88.1288624  46.1900091  63.2923937  87.7418995
  59.5628260  95.6107548  14.0667398  60.4949950  95.5727318  14.2808588
  59.3014549  96.5034893  14.2924459  37.7197289   5.6867790  72.6061726
  37.3221660   6.5258968  72.3736668  38.3021474   5.8921432  73.3375025
  48.9128113  17.1857989  57.8672838  49.7614241  17.0048463  57.4631262
  48.5798073  17.9482341  57.3939657  67.8352985  17.3654643  44.2751367
  67.7696351  18.2285968  43.8665826  67.3838428  17.4623863  45.1135976
  60.9644340  87.5023749  28.9444883  61.2891434  88.2749012  28.4818895
  60.6717919  86.9125655  28.2497175  34.2007399  38.1308794  81.2146378
  34.8947525  38.5442781  80.7011414  33.3904433  38.4990668  80.8623791
  51.6296577  30.6203079  63.7982845  51.8048954  30.4039788  62.8824615
  51.4061308  29.7825313  64.2037392  64.1015338  98.8805702  10.2214964
  63.3004116  98.5629442   9.8049028  64.8086141  98.5254124   9.6828611
  37.5648832  54.1420937  87.0976162  37.1272278  53.3293819  86.8442535
  38.0628920  54.3980312  86.3212681  21.3202214  70.2461290  82.8735352
  21.5279174  70.2783489  83.8073826  21.1624265  69.3190384  82.6951218
   4.5508149  52.3892355  68.8487673   4.6213341  53.1947327  68.3364773
   5.1291001  51.7703867  68.4028482  16.3645792  50.9698868  64.9882698
  15.9476125  50.1209593  65.1355600  16.1812079  51.1707830  64.0705299
  35.0662327  57.7357101  83.7710094  35.8570838  57.7613592  83.2323742
  35.3793907  57.5042152  84.6454144  84.1702961  94.2899683  17.2615678
  84.0916418  93.6408737  16.5624864  83.4155630  94.8659399  17.1396501
  48.9827824  51.9097281  87.7082539  48.7241650  52.8118324  87.5196838
  49.7351694  51.9937181  88.2939911  81.5345691  96.4838150  57.2875078
  82.1516441  97.0841387  56.8691023  80.7754968  97.0280722  57.4968488
  89.0438675  98.9864567   5.1395376  89.7544073  99.4507482   4.6970518
  89.4518064  98.1882170   5.4751451  86.2349724 100.4479053  31.6690405
  86.0202717 101.2974718  32.0542295  86.1188530  99.8238638  32.3854978
  45.6022167  47.3127508  86.9206047  45.9057903  46.6613054  86.2883949
  46.2023735  48.0503893  86.8113422  32.9545808  36.8606114  72.3779917
  33.2376313  35.9614301  72.2118998  33.2013273  37.3394060  71.5867233
   7.9814419  16.0375015  12.6615961   7.5845608  15.9511081  13.5283430
   7.4662861  16.7185108  12.2290762  77.6949619  94.7900370  24.6761758
  78.0780624  94.9818113  25.5321462  77.8324913  93.8502529  24.5573385
  97.1618832  29.2432046  72.4511623  96.2268914  29.4481874  72.4491549
  97.2345449  28.4615636  72.9988766  77.4896787  65.8086410  15.6707056
  76.6648697  65.4886654  16.0361345  77.3311208  65.8572116  14.7279794
  28.8490471   1.5059511   7.4054487  29.1728100   2.2742406   7.8757150
  28.4608492   1.8606893   6.6056402   4.1346868  12.6449195  69.5787676
   4.6445497  13.4036485  69.2948682   4.4097885  11.9389955  68.9937742
  24.8308309  18.8226262   7.5945528  24.5813021  18.4748975   6.7383630
  24.9899515  19.7534171   7.4379213  16.2757385  24.3686318  86.9059181
  17.1095443  24.4951153  86.4531517  16.3212347  23.4752202  87.2464752
  23.1000423  42.8233337  74.3703127  22.7083659  42.0326328  73.9993572
  23.9974213  42.8250217  74.0372372  45.8922606  94.6452930  30.6260450
  46.2203847  94.1172007  31.3538320  45.5533897  94.0056827  29.9997099
  46.3865404  97.3774841   0.8228643  46.1456983  96.4727428   0.6236894
  46.1850660  97.8608969   0.0216444  90.0327847  41.7873660  26.3573225
  90.5129335  41.5759078  25.5567129  90.5163405  42.5192634  26.7403753
  41.0390425  56.5505552  87.7186871  40.9701681  56.2399721  86.8158913
  40.8047867  55.7908869  88.2518482  62.3685168  85.6313589  18.1045206
  61.9124554  86.4014461  17.7650983  63.2516764  85.9435156  18.3015497
  36.0590577  24.5200419  67.8009033  35.9367657  23.6081815  67.5367308
  35.8653998  25.0260472  67.0117998  16.9312344  97.9676845   2.9309709
  17.0264778  97.7909401   1.9950731  17.8294621  98.0416658   3.2533796
  46.4417373  86.3816693   7.8604086  46.4199482  86.0773876   8.7676962
  47.1080362  87.0688656   7.8541906 106.2016675   0.3895084  13.8380106
 106.4946625  -0.3269967  14.4010408 105.7759712  -0.0452384  13.0990942
  39.1409625  56.7533603  24.9500234  39.6563874  57.5155088  25.2140291
  39.4077887  56.0621702  25.5560739  12.0166743  43.5309649  88.2637978
  12.7930808  43.2320642  87.7904224  12.1596754  44.4689131  88.3904076
  37.1919799  41.1260843  71.9278431  37.8131127  41.4791489  72.5648499
  36.7126465  41.8916512  71.6110134  98.4176729  10.5664245  26.1100729
  97.6108024  11.0813419  26.1171873  98.9493153  10.9445850  26.8104894
  88.2656406  76.9350245   4.1303499  87.7423834  77.2939279   4.8470171
  89.1568493  77.2335389   4.3116434  43.6066198  57.7604961  85.3144646
  43.4487057  58.5861349  85.7723045  42.9672098  57.7555132  84.6021748
  76.1231064 101.8819263   5.2137907  75.6421779 101.8268946   4.3880136
  76.4006375 102.7963522   5.2688558  16.8821216  41.0290384  81.3060665
  16.3083792  40.8388901  82.0482922  16.5958595  40.4247904  80.6211090
  63.6456846  92.6603964  11.6979368  62.9718326  92.0170811  11.9177206
  63.2201432  93.5075882  11.8298872  46.5957474  92.1561459  50.4801519
  46.5008067  91.4151862  49.8816545  47.3786114  91.9520405  50.9917123
  18.9204836  17.3593092  80.0207043  18.2591534  17.8257489  79.5095253
  19.5470536  18.0362928  80.2763176  47.5577424  21.2834493  19.6506174
  46.9150827  21.1993829  18.9462335  47.6330159  22.2267238  19.7948320
  55.1659428 102.3121717  24.5916422  55.4330896 102.9995087  23.9813669
  54.4772469 102.7154997  25.1200922  52.4695587  41.8194008  79.3261194
  51.7891836  41.1691236  79.1516066  52.7622318  41.6266918  80.2168751
   9.3636497   6.6828720  31.3576467   9.4652780   7.2479621  30.5917699
   9.6088680   5.8114711  31.0465868   5.7810959  12.1143619   7.9730089
   6.1496099  11.3339034   8.3869035   5.8470758  12.7946559   8.6431463
   6.8926582  89.4650152   4.0311010   6.1874065  89.0418532   4.5207842
   7.4846039  88.7499717   3.7975366  39.3692303  35.7476854  55.1211357
  39.8138762  36.5933752  55.0634241  39.7933102  35.2080870  54.4538832
  93.6389278  86.6044691  19.1303976  94.1908811  86.1365273  19.7569902
  93.6830114  87.5192192  19.4088228  98.0088924  98.8585213  17.7611120
  98.7291168  99.4157818  17.4661882  98.4250902  98.0245474  17.9790552
   5.5297893  40.3913736  74.6741247   6.3517469  40.3631926  75.1638412
   5.7439709  40.8712864  73.8740969 104.4661758   9.3056766  37.4655874
 105.1192520   9.4519416  38.1499345 104.8429821   9.7106878  36.6844328
  91.0152624  10.5651657  29.4146021  90.4255745  10.2255288  28.7414415
  90.7669065  11.4847747  29.5087583  43.7724686  28.5179043  60.7843494
  44.4057226  28.2730579  60.1096106  44.2110491  29.2047071  61.2865257
  62.4637388  78.0360678  16.2707956  62.5790666  77.8940418  15.3312452
  61.7011188  78.6110571  16.3342817  84.9546694  88.0506685  28.4440096
  85.8663152  88.2353428  28.6699064  84.9297594  87.1041801  28.3033998
  57.0973228  90.2687719   7.1434648  56.7679094  91.0932615   7.5011404
  56.3384830  89.6853593   7.1484525  57.2277569  94.4829443  14.9296720
  56.8377374  95.0415399  15.6020410  58.0425047  94.9261644  14.6930750
   2.1500061  32.7813601  82.0598030   2.1894948  33.3163786  81.2670708
   2.5281709  33.3359838  82.7421665  25.3904327  20.3610841   3.9545114
  25.0866064  19.5125476   4.2768438  24.8077711  20.9973804   4.3690736
  50.5330753  44.4233179  88.7415981  50.5585432  43.5995865  88.2547188
  50.2376890  44.1747856  89.6175003  30.5099201  29.7937226  83.3538818
  31.1486816  29.9169183  82.6517105  30.5534935  30.6036687  83.8621330
  74.6380829  95.3040579  12.3632486  74.1938709  95.4349592  11.5255220
  75.4966043  95.7105472  12.2451933 104.5256145  25.2320790  79.2008686
 104.7552590  26.1474943  79.0411472 104.7891788  25.0736737  80.1073265
  53.2839011  83.5463789  25.0826891  53.1105875  82.6109126  24.9773271
  53.6746799  83.8127854  24.2504938  65.4125166  22.8622079  89.0989876
  64.5649672  22.6010728  88.7388515  65.5178404  23.7738037  88.8267231
  76.4974213  53.6865330  80.8528328  76.5388584  53.9236736  79.9263954
  77.1114588  54.2834044  81.2805462   6.2118882  22.6899672  87.2954941
   5.6425238  23.4582520  87.2531509   6.0522294  22.2278857  86.4725590
  20.1524687  12.3525000  75.1357603  19.4170046  12.9482150  74.9927711
  20.1888466  11.8215811  74.3401289  71.0538315  87.2362855  25.5882604
  71.1883663  86.3190511  25.3499086  71.8135952  87.4577430  26.1267336
  98.5217497  36.8212787   1.3719709  98.4035156  35.8719627   1.4042242
  98.0316017  37.0975200   0.5975778  47.8683186  66.3457060  82.7176857
  48.8053656  66.2265301  82.8725147  47.6382446  65.6541872  82.0971203
  68.5833405  96.9834545   1.3463838  69.0495991  97.6294353   1.8769891
  69.2711209  96.4103105   1.0077055  86.8716692 102.1918991  20.1011427
  86.5052007 102.9336574  19.6197565  87.0912050 102.5495937  20.9614236
   5.6245598  26.5357820   9.8218305   6.1501345  26.8335811   9.0793283
   5.1427206  27.3140756  10.1016863  93.7917564   9.6900407  30.5162008
  93.5884736  10.2156392  31.2899358  93.6020300  10.2681962  29.7773035
 101.7389677   2.9562465   6.9319589 100.8426855   2.6311199   6.8470819
 101.6674469   3.7035266   7.5258310  88.3926510  97.6747063  22.6804979
  87.8298448  97.5984505  23.4509905  89.2801689  97.7219131  23.0359037
  40.4678965  61.1076307  85.7960033  40.5320740  60.7462549  86.6800404
  40.5653286  60.3495789  85.2197266  36.5160656  49.8216295  63.8950825
  35.8722401  50.2234554  63.3117676  36.1458564  48.9645720  64.1063356
  79.0510010  87.1615961  17.0185049  79.4275688  86.8957975  17.8574140
  78.2887291  87.6901033  17.2548349  31.2884068  40.0466490  54.8411369
  31.9479990  40.7379007  54.8989248  31.7949557  39.2374921  54.7711182
  81.7858337  77.0171621  35.3498228  81.2793611  77.6989534  34.9083669
  82.1423410  76.4851215  34.6384485 108.4755348  98.9499262  25.3712709
 108.4317993  97.9968861  25.2935655 109.1736387  99.2075375  24.7691686
  44.5125771  51.6991711  75.4543257  44.0455389  51.3113546  74.7142553
  45.2934408  51.1550617  75.5564547  37.3647642  38.7902904  83.6103630
  36.4556861  38.6383057  83.8686371  37.5991821  38.0191374  83.0940247
  29.3858123  54.5338774  74.6926832  30.0916696  55.0747299  74.3384504
  29.0985012  53.9998770  73.9520597 107.5792526 101.8877104  17.4967153
 108.1767391 101.1422184  17.4376733 108.1303619 102.6138094  17.7887590
  65.2361463  86.9283274   4.6137006  66.0027574  86.8083694   4.0532072
  64.5246218  86.4950540   4.1422804  13.2165098  57.4406290  70.7066870
  13.4618270  58.2757044  71.1050606  14.0500641  57.0349836  70.4682112
   8.9816936  22.7666274  11.7189081   8.3924993  23.4565441  11.4137895
   9.7783884  23.2294456  11.9783456 103.9697406   1.4934722   6.2011583
 103.6186025   0.7296363   5.7434709 103.1972787   1.9446842   6.5416677
  38.7430882  39.0305901  86.4383030  38.2261491  39.1848421  85.6476021
  38.7071586  39.8606348  86.9136620  25.6997776  51.1072397  73.4295750
  25.1933241  50.3001595  73.3381462  26.4344335  50.9987116  72.8256464
  58.9248562  64.2478514  87.7783203  58.5735130  65.0367260  88.1912041
  59.5063162  64.5753479  87.0921135  12.4831831  49.8139954  81.8491077
  13.4374166  49.8768616  81.8905640  12.1740425  50.4094124  82.5318623
  51.1788464  38.4846258  88.1037045  51.7742729  38.4700346  87.3543835
  50.8837080  37.5784302  88.1927872  71.9002579 100.8067301  34.5029886
  70.9844040 100.7231644  34.7684343  72.0930480  99.9877003  34.0466459
  31.4323521  20.8787537  76.7034864  31.9403696  20.4675245  76.0041761
  31.4811230  20.2589059  77.4312544  22.3978734  19.2659450  78.4142065
  21.7549014  19.5387197  77.7596760  21.8755293  19.0432584  79.1847897
   3.2737356  73.8661528  86.8035316   2.3676850  73.7709284  86.5098763
   3.7933272  73.8008022  86.0022926  49.2366648   6.6685343  64.2446852
  49.4514084   6.2043071  63.4356070  49.0049982   7.5523841  63.9594269
 106.1377854  56.0868597  63.4858465 106.8896067  55.4976797  63.4236479
 105.3762562  55.5081034  63.4490967  90.2741836  62.3038676  43.5944803
  90.6075214  62.4701205  42.7127321  91.0064529  62.5195280  44.1719778
   9.4553375  28.9203262  66.3944292   9.7488320  28.1228471  65.9538412
   8.5201728  28.7811065  66.5438223  49.3562934   2.4460403   5.3674657
  49.6533606   1.8014041   6.0096700  48.4987781   2.1266786   5.0865705
  16.6823900  64.3018293  88.2627296  16.1326718  64.5415735  87.5166988
  16.2287474  64.6679211  89.0219498  31.9936442  64.2130518  84.7476101
  32.3949647  64.5866060  85.5322266  32.3599648  63.3307219  84.6881199
   7.7728781  23.3339921  29.0081079   7.0695480  22.7640716  28.6970670
   8.4210666  22.7345363  29.3778856  35.1368666  54.7404909  88.7574863
  34.9643207  55.0812960  89.6351624  36.0906482  54.6759653  88.7088394
  96.8109558   8.0968849  32.4024255  96.4186428   7.9133645  31.5488203
  97.6481149   7.6330701  32.3859651  82.5032846  24.7070257  10.0508936
  81.7212430  25.0734035   9.6380861  82.5110898  25.0875274  10.9291799
   2.4193891   5.6033412   3.7436636   2.7089723   6.2551586   3.1053026
   3.2106837   5.3801004   4.2338140  60.3090023  89.1950634  21.1540277
  59.7149609  89.6681574  20.5713327  59.9098943  88.3306315  21.2525137
  51.0717440  36.8243384  82.7491856  50.2023983  37.2196388  82.6843166
  50.9039688  35.9174299  83.0053043   7.6112636   0.9927837  30.2206857
   7.2449573   1.6732780  29.6559007   6.8566164   0.6424800  30.6939943
  60.2304171  87.7981856   0.6966741  59.9515795  87.9073384   1.6058309
  60.9965657  87.2266915   0.7480962  30.0646576   7.6222888   5.2787836
  29.4967493   8.3871261   5.1853140  30.8762440   7.9703037   5.6481702
  20.5598950  15.6376803  77.1042204  20.7226634  15.5498993  78.0433846
  19.6164203  15.5055857  77.0112801  65.9131597  82.2080686   9.9456175
  65.6532525  82.2968152   9.0286596  65.2791737  82.7398136  10.4268034
  80.2488891   3.4246770  27.8218134  79.4110612   3.6502496  27.4175985
  80.4636559   4.1819707  28.3664377  20.8353400  43.3362627  85.4925632
  21.3229370  42.5316095  85.3164482  21.2183356  43.6762810  86.3012218
  56.8675280  24.1583467  77.6557350  56.0751057  24.2646599  78.1820440
  57.0642185  25.0396800  77.3382473  54.4868647 101.3028839   9.5134313
  54.9703978 101.8617180  10.1218088  53.8559984 100.8390930  10.0640161
 105.4157255   4.4367639  32.3046262 106.0981796   4.7408954  31.7063005
 105.6163738   4.8674480  33.1355722  69.8795176  21.0287714  79.0680361
  68.9544487  20.9444046  78.8370371  69.9454880  21.8892789  79.4820547
   9.5922216  35.5660144   1.2204130  10.4307731  35.9920493   1.0427625
   9.8237881  34.7751800   1.7074449  43.4803200  29.6293068  76.4323521
  43.4689569  30.5331135  76.7473650  42.5564957  29.3945265  76.3448524
  57.4027394  84.7828534  14.9268968  57.2894238  84.5588591  14.0032060
  56.5130757  84.8021987  15.2795465  28.6000427   0.4452840  39.9178941
  28.5070595  -0.3881558  39.4564207  27.7769836   0.9045831  39.7510393
   8.0578455   6.3742677  24.3950327   7.3121628   6.7615501  23.9365633
   7.7431997   5.5173437  24.6829755  77.5220989  91.2360576   7.0513208
  77.2192215  90.3809765   6.7458112  78.4723781  91.1433390   7.1191557
  34.2566562  60.1399517  82.6331234  35.0690103  60.6461811  82.6261425
  34.5367646  59.2398691  82.7993202   9.9824508   7.9457942  29.1558225
  10.6629976   7.3024074  28.9579828  10.3235515   8.7698261  28.8081892
  81.5484551  14.6252433   9.2685373  80.9019349  15.1912586   9.6902807
  82.3274997  15.1746217   9.1818864  49.2910560  20.4503242   9.1619451
  49.1723522  19.8882381   9.9275835  48.4931454  20.3265182   8.6479051
  10.9066137   6.6838924   2.9760988  11.1919388   6.5732709   3.8830621
   9.9723514   6.8817130   3.0413683  83.0703831  77.5864697  79.6204233
  83.2718182  77.8706503  80.5119896  83.8876629  77.2045708  79.3003559
  77.0014213  92.1762159   3.6053903  76.5233444  92.7712133   4.1830213
  77.7589773  92.6831797   3.3132703  11.0781702   7.1170131  -0.1973383
  11.7501053   7.2364560   0.4738386  10.3594002   6.6791479   0.2585943
   3.6894687  33.9989845   4.6282823   4.2594656  33.8129226   5.3744180
   4.2763218  33.9965049   3.8720853  26.4889216  57.6578951  84.5989037
  26.9073081  58.4728241  84.3212891  26.0862231  57.8701639  85.4409313
  61.1464691  77.3086643  62.0900202  60.2403450  77.4624300  61.8225718
  61.6258526  77.2115421  61.2672234   6.1043152  47.9886714   8.3285864
   6.7701658  48.4910194   8.7981851   5.8476623  47.2996036   8.9414079
  25.1420784  41.8812656  70.5309153  25.6686234  41.9205952  69.7325182
  24.2871594  42.2245884  70.2711535  48.4587120  81.7479446   3.8216360
  47.8207313  81.4718678   3.1636102  48.8347827  80.9305933   4.1483457
  72.2631811  86.4420631  17.9061754  71.9179891  85.5573919  18.0263002
  71.7364453  86.8104294  17.1968897  48.3157492  38.5575533  75.1695871
  47.7487469  39.2027617  74.7471523  49.0513277  39.0691471  75.5063677
  38.6447978  41.1667776  83.1551170  38.1555390  41.4880657  82.3977375
  38.1730318  40.3801966  83.4288979  16.5825495   7.8811733   8.4678800
  17.2111353   7.4290029   9.0305956  15.8691200   7.2534410   8.3529909
 100.2552221  19.7524921  27.5218637  99.3288276  19.7263185  27.7613218
 100.7177923  19.5293275  28.3296163 104.7013662   4.1860620  11.6564043
 105.5898044   4.2746297  12.0014627 104.8059866   3.6751214  10.8537634
  62.0465183  68.5519648  63.9882040  61.5238762  69.3537426  64.0034819
  62.9415464  68.8524628  63.8305330  61.9423771  54.2123365  86.3870811
  61.9874382  55.1148844  86.7026997  62.5963020  53.7441635  86.9061470
  40.2164078  52.2965765  83.2305431  40.6573582  53.0265856  82.7959347
  40.2275038  51.5908718  82.5839329  95.5154655  14.4315664  34.9109800
  94.9014018  15.0157348  34.4661100  96.2185452  14.2946330  34.2760332
  91.2182448  11.2751619  10.9520109  91.9869587  11.0388891  10.4328878
  90.6863973  10.4794780  10.9682329  44.1372156  53.6428976  86.3354111
  44.6720314  54.4287348  86.2228680  43.7549877  53.4875917  85.4716873
   3.4492859   4.5854274  31.0976370   3.0031189   5.2054492  31.6744764
   3.6512693   3.8377181  31.6601045   3.2917651  28.4171859  25.2049787
   4.0552124  28.3531371  25.7788141   3.4555873  29.1969386  24.6745260
 105.4039905  24.2678539   8.0245645 105.8635614  24.8335878   7.4041040
 105.4870245  23.3890764   7.6543100  60.1027489  53.4914637  83.9747047
  59.3002701  53.0132771  84.1835022  59.9246407  54.3904400  84.2510128
  11.6962799  36.6736022  30.8239992  11.3199743  36.6982643  31.7037828
  11.1334499  37.2495262  30.3065355  68.6628007  95.9308460   9.5815618
  69.1797184  95.4705599   8.9203699  68.9945983  96.8285015   9.5627935
  49.4075632  61.7505646  81.1371422  50.0045395  61.0055113  81.0682583
  49.8213148  62.4380493  80.6152248  13.4330734  26.7260782  29.7832067
  13.5376629  25.8417264  30.1342256  14.1601356  26.8274871  29.1689451
  22.1878409  38.9292765  86.1685467  21.3149881  38.7707496  86.5280342
  22.7563047  38.3233404  86.6438580  47.6338397  96.5072420  36.0946806
  47.5976382  96.9584539  36.9380911  48.5521220  96.2553432  35.9970338
  16.6217264   4.0129796  18.7264497  17.0187696   4.6442977  19.3264730
  15.9261879   4.5035259  18.2884748  29.9053987   1.8691484  15.0550611
  29.3169483   2.1506254  15.7555826  30.2508959   1.0286371  15.3557260
  32.7854214 101.7567089  13.9194162  32.2033081 102.3416593  13.4344251
  33.6057053 102.2441318  13.9954717  72.7952719  77.5317335  78.4606457
  72.0693493  77.1719360  77.9509258  73.1795359  78.1990767  77.8921080
  62.0714903  71.0664368  87.7656746  61.3421106  70.7213736  88.2806110
  62.7099800  70.3535414  87.7471161  58.0420685  87.5811768  69.4958830
  58.0918741  86.9123173  68.8129616  57.7153158  87.1143436  70.2649879
  33.0539608  54.0643883  84.4738674  33.0372739  53.6680460  85.3449917
  32.3489475  53.6257744  83.9976215  86.0846924  84.0272286  25.3407343
  86.0920547  83.7527302  24.4237669  85.8351396  84.9508861  25.3122480
  79.9512933  86.0773352   0.8340318  79.4265341  85.9083941   0.0515325
  80.3925918  86.9069961   0.6519563  37.8642535  50.0023460  69.8745918
  38.8035131  49.8227262  69.9165535  37.7439713  50.7777929  70.4227161
  93.7829422  96.9151524  24.5270403  94.4560741  97.5906923  24.4447572
  94.0976928  96.1955145  23.9799745  29.0739799  28.1465912  73.5298061
  28.5702085  27.5236893  74.0536785  29.9874067  27.9053783  73.6837530
  98.7619350   7.0717040  21.1021097  98.6891863   6.5528480  21.9031866
  98.6303709   7.9753009  21.3892324  11.8377527  38.7630550  20.8470495
  11.6432127  38.4643546  19.9587019  12.1255430  39.6693603  20.7373579
  85.3043960  90.2403119   6.2064607  86.2431597  90.4089621   6.2871988
  85.0940155  89.6906140   6.9613130  82.0160294  45.8238077  87.4299145
  81.3735771  45.1862144  87.1185398  81.7217445  46.6582441  87.0647526
  51.9080019  72.7720022  83.5195446  52.0083141  72.1471310  84.2376709
  51.7409420  73.6093235  83.9522171  28.5812601  18.3855478  12.1768434
  28.1871685  17.5135270  12.1992548  27.8470978  18.9838115  12.3158414
  79.2318128 101.6454962   3.0552633  79.3153023 102.3401955   3.7084539
  79.0692638 100.8533934   3.5675008  66.2773775  85.5515626  25.9980161
  67.1502780  85.7377603  26.3438566  66.0436128  86.3364747  25.5025346
  57.3399400  86.9752505  26.4537866  57.5107454  86.1498859  26.9074686
  57.1853517  87.6070478  27.1560438  17.2980785  83.0009270  81.4031887
  16.7749393  82.5708485  80.7267380  16.9887745  82.6185989  82.2243977
  42.7651787  57.2693253  73.7718439  42.5248957  57.0568943  74.6737099
  42.0830536  56.8600178  73.2394886  88.1205845  49.6113682  77.1155405
  88.3062077  50.4696608  76.7346001  88.9817715  49.2544127  77.3327303
  32.8717732  64.6573973  87.4455357  33.5873055  64.0835476  87.7192879
  33.1263924  65.5246687  87.7605629  73.7577724  82.5607681  83.5255814
  74.6048784  82.2217464  83.2362556  73.7632132  83.4795761  83.2572651
  52.1319723  66.7521811  78.4968948  51.3339281  66.5401459  78.9810467
  52.1422720  67.7085829  78.4592104  19.0084251   3.0676786   1.2803991
  19.4496569   3.3889619   0.4940660  18.1230291   3.4266654   1.2218149
 103.0380008  22.1075670  11.6265257 102.4690077  22.5921337  11.0284670
 102.6630590  22.2638933  12.4932439  35.2056638  93.6078861  60.1839216
  34.3954967  93.4982040  59.6860941  35.6306847  92.7512720  60.1415022
  18.6455879  98.5085800   6.0022791  18.2459412  97.6679542   6.2255819
  18.9227066  98.4076622   5.0916441  17.7318239  48.1014872  73.6622334
  17.4457121  48.9681673  73.3737230  16.9198501  47.6346254  73.8596344
  93.2945513 102.0376757   0.8690412  93.6222051 101.4369753   1.5383966
  92.3534464 102.0913580   1.0353906  65.9830426  99.2509821  20.1909788
  66.7792796  98.7811544  19.9429853  66.2267398 100.1755598  20.1462705
   8.0142244   4.0611402   1.1783941   8.9063581   3.8971464   0.8727319
   7.5018152   4.1658584   0.3767164  45.7205153  70.0348473  80.1937675
  44.8059177  69.7605085  80.1268387  45.9513521  69.8776054  81.1093044
  68.1193994  71.1480227  33.1573923  67.9236768  71.1512449  34.0943678
  68.7817811  70.4648879  33.0534227  41.6402674  23.3661604  83.9116383
  41.7841005  22.4223781  83.8422298  42.0741558  23.7318993  83.1407928
  46.6911936 100.6688690  74.0646553  46.7765474 100.6611252  75.0180101
  45.9755898 101.2810421  73.8932180   2.2797545  18.0169717  36.4824922
   2.1193823  18.3641187  35.6049974   1.8064078  18.6108056  37.0651968
  62.2355366  74.8769236  88.7126255  62.0764542  75.1747894  87.8169632
  61.8090200  75.5338812  89.2628288   9.6453842  34.9331752  28.0719621
   9.7617945  33.9867488  27.9885156   9.3982633  35.2224628  27.1936281
  89.2523575  81.3971710  70.2142143  88.8722706  81.5452194  71.0801554
  89.0292740  80.4897594  70.0066853  96.0149119  12.5905124   3.1938131
  96.4134524  12.4577180   2.3337228  95.4854510  13.3815376   3.0929048
  82.5471758 101.1477402   4.4091089  81.6141676 101.1943176   4.6178110
  82.5793527 101.1565044   3.4524877   5.2476677  18.9493886  14.7161253
   6.0761055  18.7698642  15.1607473   5.2292093  19.9015037  14.6193178
  58.9025593  72.2604275  83.4554482  58.6327934  72.3368073  84.3706703
  59.8583269  72.3049498  83.4829521  70.5008459  70.6153345  78.0708027
  71.2166977  70.0874329  78.4245062  69.7168875  70.0869513  78.2206345
  24.2271686  68.6510611  85.4123306  24.1007543  67.9836607  84.7379208
  23.3410144  68.8758039  85.6959724  33.3212599  27.0974389  37.7541406
  33.6104616  27.0080797  36.8460615  34.0697702  26.8043653  38.2738264
  94.7135184  11.6070024   5.9027822  95.5110714  12.1219436   5.7803972
  94.0480492  12.0719520   5.3956278  84.7277889   4.3654243  10.8185728
  84.9798760   5.2116290  11.1881883  85.3693292   3.7490837  11.1718137
  79.4322418 101.6559723  10.2714021  78.9189886 101.4025715   9.5042093
  79.7280191 100.8264139  10.6463583  60.6612253  69.6600294  72.1538925
  61.4374685  69.2112923  72.4890184  60.8812571  69.8745298  71.2473583
  20.5525756  39.7287107  53.1760931  21.1406040  39.0877461  53.5756207
  19.7567916  39.2341805  52.9801321  88.3154378  23.3666984  15.2906568
  88.4820411  23.9356176  16.0421903  87.5196466  23.7209455  14.8938425
  55.5368471  62.0340061  77.7473450  56.0992527  61.2604284  77.7085733
  56.0050964  62.6421261  78.3193350  36.3647970   1.3412420  49.7742231
  36.4321503   1.9909374  49.0745123  35.4352220   1.1146203  49.8019655
  67.4288009  98.7233427  15.4852445  67.1069812  98.0116442  16.0385473
  67.7252959  98.2894257  14.6852167   5.5686458   6.3648836  27.5634344
   6.2158426   6.0568563  26.9290216   6.0764059   6.8729297  28.1961305
  52.7139282  89.3114471  68.1592798  51.7673206  89.3183613  68.0174255
  53.0210590  90.1281738  67.7657652  20.2966818   5.7446758  22.3842580
  19.6741566   5.5082075  23.0718477  20.9249719   6.3219062  22.8181894
  94.8987173 102.1850374  44.4021661  95.7333111 102.5049808  44.7446878
  94.9101709 101.2451198  44.5828874  27.5148630  59.1385889  87.1005344
  26.6306400  58.7723970  87.1174431  27.9778337  58.6791086  87.8010750
  58.6943769  67.7804327  73.0672693  59.1669941  68.5884809  72.8674650
  58.8505888  67.6361084  74.0005398  89.9967455 102.4555757  17.7938230
  89.0974783 102.7655962  17.6868780  89.9200128 101.6898516  18.3630426
  81.7513584  96.2539556  26.9629724  82.3560690  96.5653065  26.2894590
  81.8466877  96.8817928  27.6791914  28.4424459  86.2287000  19.4793852
  28.4604578  85.2933672  19.2767484  29.1284637  86.6062858  18.9288957
   5.1348623  30.8742134  26.7187364   4.8870262  31.0190669  25.8055933
   5.2978309  29.9327461  26.7762239  10.9999156  44.2940950  59.4780827
  10.4483402  43.5749912  59.7861242  10.3811121  44.9790049  59.2246866
  41.5517935  60.2817527   6.3063390  41.7220768  60.1588527   7.2402151
  40.6903824  59.8886100   6.1661680  24.0916952   7.9556886  32.4789102
  25.0482687   7.9342357  32.4517400  23.8836178   8.2352249  33.3704240
  19.7984457  44.0089130  64.2657709  19.9625564  44.6150684  64.9881792
  20.2879953  43.2201433  64.4990396  50.9814215  60.3542089  88.5654640
  50.5551338  59.7383356  89.1614628  51.9169760  60.1822567  88.6722660
  90.8518848   6.2852470   1.7500837  91.7129586   6.2761203   1.3321169
  90.4707370   7.1254293   1.4950330  84.6970295   7.8616537  81.0486889
  85.2433466   7.6566328  80.2899170  85.2362655   7.6245225  81.8031597
  81.5421509  92.7434471  10.1557214  80.7843565  93.2188013   9.8150976
  81.1922907  92.2201183  10.8767946  41.7718347  13.5986892  15.1394899
  41.9145044  12.6657621  15.2992590  41.1667045  13.6249629  14.3983038
   7.7455887  52.5427238  34.3787725   7.9551157  53.4196082  34.0571935
   7.0825275  52.2165767  33.7703188  43.8311243  36.1241198  80.6613445
  43.5089588  36.8338656  80.1057339  44.2403841  35.5098128  80.0519562
  -0.1929775   4.0008251  22.3307569   0.7290157   3.8172284  22.5109060
  -0.2196900   4.9410001  22.1530302 102.4246833  26.4890949  18.9927156
 102.5661132  26.0158578  19.8126466 101.4782355  26.4515296  18.8546808
  58.2003664  74.2260173  39.0436990  57.3461055  73.8401487  39.2375524
  58.6048554  74.3556145  39.9015005  27.7484965  43.1421709  81.6629601
  27.0153475  43.5960293  82.0785809  28.3663750  43.8386440  81.4407253
 108.0085157  84.1568163  21.1670835 108.5116314  83.6305883  20.5456503
 108.6180519  84.3272260  21.8851812  50.3298712  64.0201330  79.8439741
  50.8645535  63.9055967  79.0583324  50.4101229  64.9503756  80.0547886
  73.7595891  82.2365764   4.7531564  72.8063558  82.1643331   4.7045572
  74.0401720  82.3209145   3.8419016  50.1076078  71.6377974  80.2320766
  49.6933365  72.1110821  80.9536076  49.5956469  70.8333921  80.1480389
 103.1148241   8.4080259   1.3035162 103.9680932   8.1716005   0.9398325
 102.4885676   7.8811256   0.8071191  82.0182947   5.8785335  11.7602689
  82.9341922   5.9529106  12.0282800  81.6495833   6.7465679  11.9239767
 106.5158675   1.7603103  64.0629347 106.0387156   1.4569560  63.2905729
 107.3096440   1.2256328  64.0793855  38.1525310  15.4641382   8.2813127
  38.5101971  16.3517991   8.2620390  37.2435078  15.5781595   8.5586317
  94.5611975  31.0358039  30.6665476  94.4842837  31.7249481  30.0067003
  93.9025447  31.2592784  31.3241632   9.7611221  26.9458906  25.2038152
   9.7058901  27.8260557  24.8316629   9.6109661  27.0721284  26.1406953
  15.5407270  10.6145469  16.2589891  15.4332622  11.5056650  16.5915449
  15.2286037  10.6569520  15.3551061 104.5585654  30.7785980  26.3610037
 105.0322053  30.1734439  26.9316919 103.6842463  30.3973571  26.2806471
  73.3279942 101.6120890  17.1285017  73.9618086 101.5113428  16.4183195
  73.6899017 101.0944536  17.8477438  34.1017604  26.3735127  47.5130367
  34.8428607  26.4290524  48.1162930  33.4882712  25.7767010  47.9416132
 108.5607455  47.4335281   6.9808824 109.0825436  46.6367332   6.8856485
 109.1795919  48.1457797   6.8197591  82.5052360  28.6687461  23.6737497
  83.0778155  27.9074327  23.5799749  82.9577873  29.2330257  24.3006666
  30.8956751  10.1935569   6.6700800  31.0091432   9.9480382   7.5882776
  31.3483652  11.0330287   6.5889223   4.4032272   4.8699848   6.4909608
   4.9209818   4.1089813   6.2281950   4.6815142   5.0505487   7.3888357
 105.8208249  13.8300983  33.8341386 104.8668954  13.7744752  33.7779577
 106.0610816  14.4891445  33.1828554  18.0291212  70.1388359  81.6558933
  17.8491855  69.2092609  81.5153790  18.5246456  70.4065371  80.8819199
   2.7425941  62.7615444  23.9713342   3.6924156  62.8800861  23.9750726
   2.4019011  63.5436145  24.4055231  14.4167932  26.0095493   9.5099218
  13.5807737  26.3941280   9.7733648  15.0480636  26.3523332  10.1425512
  57.0856667  36.2220836  85.7509708  57.3973513  36.5211987  86.6051388
  57.5242233  35.3819156  85.6167507  33.2138046   1.4068834  26.6752966
  32.7776178   1.0224668  27.4356897  32.5610527   1.9961635  26.2972696
  14.9936470  16.1466876  18.4693296  15.2756580  17.0253745  18.2151468
  14.7696384  15.7186262  17.6430090   2.8934416  21.6147462   4.0299757
   3.1423482  21.6746894   4.9523027   3.3245190  22.3626796   3.6164625
  37.7924904  16.8570892   2.4881895  37.0961889  16.2020723   2.5366171
  37.5051912  17.5559465   3.0758054  74.0048527  77.5438455   1.2990816
  73.3899235  78.2497266   1.4986475  74.2211841  77.1664575   2.1517236
  30.1740551  74.1281557  87.5799179  29.5572352  73.8761282  88.2671165
  30.5177379  73.2978296  87.2502708 105.1285717  30.4787437  10.3250463
 105.7030675  30.7352153  11.0464437 104.5357153  31.2221614  10.2150877
  20.7243967  25.8419394  81.8766594  20.3459024  26.6197467  82.2865295
  21.0098338  26.1410141  81.0133457  86.5382265 101.8981436  15.9762342
  86.9779323 102.7471474  16.0218198  85.9119915 101.9135788  16.6999872
  37.6386484  20.5119506  20.8668573  36.8750891  20.6985752  20.3206213
  38.2969555  21.1462394  20.5830629  93.3296036  81.4466312   9.7854288
  93.8225530  81.9369104  10.4433496  92.4641155  81.3252786  10.1758726
   5.4059563  94.6354177  15.0901754   5.6007013  94.7641828  14.1618784
   4.5293341  95.0025347  15.2041586  92.9496381  10.8097593   1.2449796
  92.5014195  10.0286571   0.9206255  93.3251379  10.5397884   2.0830400
 107.8815053  15.9481994  18.1270082 108.5834215  16.5317098  17.8387983
 108.3247778  15.2807323  18.6506899  79.5404028  63.7036195  15.7216985
  79.2481493  63.5656348  16.6226823  78.9948009  64.4213834  15.4001863
  79.3531059  97.5519255   5.3799684  79.1070198  96.8550327   5.9882505
  80.3024124  97.4677732   5.2907045  34.1170296  27.8541604  35.1561029
  34.9417290  28.0447523  35.6030710  33.8926205  28.6703483  34.7092111
   3.2522091  17.5306836   6.5107019   3.4230527  16.6278402   6.2425096
   2.5580558  17.8279868   5.9224851  41.5252638  26.1137986  68.3765984
  41.6840553  27.0406199  68.1976700  40.7444334  25.9014988  67.8652620
  88.9392542  96.3887098   6.2747152  88.3795093  96.8080404   5.6212003
  89.5398830  95.8466127   5.7632311  31.6884121   3.3813087  25.3968866
  32.1547684   4.1939727  25.5926378  30.7875427   3.6569635  25.2275331
  47.8112173  61.7047453  83.2667923  48.3253479  61.7405415  82.4601841
  48.2683086  61.0661364  83.8140297 105.5388591   1.8344013  21.7569311
 105.9988401   1.4233056  21.0250433 105.5511663   1.1734382  22.4491747
  77.4589614  26.4539567   4.0052183  76.8216131  26.1348001   4.6440942
  77.0932350  27.2825138   3.6954267   4.7702535   1.5917102   8.5373171
   4.7019752   1.7531244   7.5962980   4.2684873   2.3010055   8.9390142
  58.6439466  58.9558983  88.7496281  59.3669319  58.9785480  89.3765259
  58.4881353  59.8745394  88.5304165  53.9110851   3.6362642  78.3968306
  53.3757925   3.8622260  77.6361465  54.3957376   4.4375125  78.5951805
  29.2428565  80.8320808  81.3486576  30.0615358  80.3419304  81.2728691
  29.4468999  81.6959858  80.9905148  14.1741451  14.3738119  25.7906015
  15.0090202  14.5573894  25.3598840  14.0784582  13.4231988  25.7322271
  33.0720838  27.5410119  18.6780317  32.6109251  28.0931512  19.3094690
  33.5889276  26.9416944  19.2164762  91.7919922  62.6478577  78.8697767
  91.4724922  62.3283434  78.0259371  92.0164680  61.8549299  79.3567133
  14.9817070  34.4690887   5.1862676  15.1082643  35.3641788   4.8715837
  15.5259975  33.9331905   4.6093900  22.3059877  19.7123472   5.7306917
  21.8041071  19.4126598   6.4886720  22.9524978  19.0220205   5.5833681
  21.7727550  18.6334793  21.1147077  22.0241340  17.7446357  20.8636911
  22.4063047  18.8803283  21.7884309  36.8858647  69.8410749  87.1138668
  37.4511266  69.1902399  87.5299549  36.6783333  69.4659472  86.2580395
  89.2019199  88.6345270  27.6222093  88.4457802  88.1893542  27.2397096
  89.5762228  87.9940298  28.2270963  53.7252617  52.6133347  79.7562265
  53.5560656  52.3081589  80.6475639  52.8555107  52.7316856  79.3744373
  33.2306656  13.3920518   4.8784788  32.5361189  13.3233587   5.5335481
  33.7471756  14.1488258   5.1554926  11.2899383  23.9096538   0.4000623
  11.6602262  24.6263877   0.9152467  11.2091049  23.1854335   1.0207136
  35.0854158  44.7445488  87.0182419  34.5451212  43.9564848  87.0754337
  35.6461954  44.7072220  87.7930737  97.8994653  24.9597970  32.8567846
  98.5625646  25.4068557  33.3827741  98.0413506  25.2832595  31.9671304
  24.8034414   3.9824382  21.3851793  24.2546209   4.4730798  20.7733877
  25.2258428   3.3143989  20.8452470  51.3802767  67.7876329  81.8861103
  51.6896963  67.9324579  82.7802753  51.6994524  68.5456705  81.3964844
  67.0923424  86.3818073  83.2990170  67.0042467  85.7267952  82.6066017
  67.5034142  87.1314907  82.8686428 106.6988776  10.4892627  20.7930334
 106.9203494  11.4183465  20.8561952 107.2474000  10.0668136  21.4540155
  29.4442821  67.1988535  59.2272091  29.9870825  66.4445782  59.4567156
  28.9388490  67.3801851  60.0196028  19.8793968  27.8379098  11.6269739
  19.4680055  28.4351150  11.0022028  20.2872690  27.1649114  11.0820444
  34.0936121  27.5246707   8.9908559  33.4735807  28.2498685   9.0675314
  33.8428720  27.0797435   8.1812914   5.4178699  58.2661144  27.0561464
   5.4616817  57.6032821  26.3669641   4.5676454  58.6872665  26.9297083
  44.1272926  88.7244320  68.1442499  43.7240505  87.9881096  67.6843977
  45.0335455  88.4508991  68.2860947  59.9167633  99.1320801  87.2301960
  59.1370773  98.7398911  86.8371201  59.9319744  98.7903786  88.1241989
 105.6929207  61.5637302  88.5774517 104.8821068  61.6571093  88.0773640
 106.3805389  61.5205145  87.9129601  16.9084247  53.8485614   7.1431120
  17.7716240  53.9871684   7.5328691  16.9464907  54.3112842   6.3060434
  41.6219711  98.5593700  79.0616846  41.2468386  99.1770077  78.4339666
  40.8739805  98.0486965  79.3714619  93.6954877  48.8265602  11.1894281
  94.2919967  48.1459705  10.8776434  93.5987947  48.6499778  12.1252210
  51.6321707  69.6864367  75.8812809  52.3624897  69.9846363  75.3391123
  51.7404604  70.1560497  76.7083073  31.1255916  28.0854932   2.4412592
  30.2023681  27.8329841   2.4299772  31.3244041  28.3071939   1.5315588
  61.5991640  98.1139183  85.3526306  61.0016775  98.5005760  85.9927273
  62.2185898  97.6078129  85.8783722  85.9871101  84.8508930  88.9654827
  86.7887592  85.0741291  88.4924698  86.0063267  85.4062653  89.7448540
   0.3705581  36.0209171   1.5205629   1.3036975  35.9253589   1.7112405
  -0.0003830  35.1570789   1.7006452 106.1770127   6.3787452   8.8724001
 106.6743371   6.6933051   9.6273573 105.3977320   6.9341508   8.8506563
  23.1216693  81.4592075  81.9169235  22.1734643  81.3733387  82.0157337
  23.3007264  82.3786354  82.1139526  40.5687651   5.3889457  20.5630548
  39.7093805   5.5124608  20.9660871  40.7461771   4.4532625  20.6592710
  98.7636063  14.9319307   7.6248796  98.0621622  14.2829839   7.5694139
  98.9636037  14.9891845   8.5591943   5.2110037   0.2318612  22.9911287
   5.9668669  -0.0224885  22.4617822   5.5151542   0.1549856  23.8954599
  77.6233513  28.7357799  14.2898328  77.3547215  29.3656436  13.6210020
  78.0833462  29.2622367  14.9436433  92.6677058  59.9611751  24.2577131
  93.0933998  59.1797630  24.6104581  91.7802665  59.9325267  24.6152933
  12.6206240  47.0001880  21.8890817  12.0452341  47.7622310  21.8223531
  12.3760494  46.4495460  21.1453016  23.0196937  24.4019071  11.3603265
  22.0682319  24.5046560  11.3802679  23.3349880  25.1796619  10.8999784
  57.0535612 101.1607552  86.2301826  57.3215055 100.2428055  86.2726212
  57.1912098 101.4084148  85.3158855  75.4288006  72.1499920  86.2195969
  75.1603079  73.0234241  86.5046692  75.6355429  72.2542000  85.2908230
  26.3049492  38.9298812  39.6621854  26.0537371  39.2191497  38.7850053
  26.1438736  37.9863349  39.6585233  70.1293755  93.0141640  86.8247414
  71.0643387  93.1671429  86.9613647  69.9149561  93.5237885  86.0433769
  37.6809057   1.2149326   0.8533628  38.2198700   0.6339637   1.3902338
  38.3016762   1.6358892   0.2586610   9.4798622  95.1358917  11.8802793
   9.8000298  95.2469805  10.9850748  10.2154312  94.7437313  12.3507841
 102.7380583  34.7659389  25.6222780 103.5666463  34.5270053  26.0377176
 102.9882143  35.0859729  24.7555406  60.8792862   8.1660882  17.7199705
  60.9509167   9.0927593  17.9488428  60.6115803   7.7384702  18.5334261
  57.5832510  69.5557356  75.1231861  56.7314339  69.1249609  75.0519323
  58.1212425  68.9414978  75.6226921   5.3001341  59.6101657  22.1594579
   5.2637228  58.9939777  21.4278658   6.1422333  60.0536529  22.0573957
  52.5906071  13.8844339  12.4426229  52.9138550  14.7852031  12.4237592
  52.5172790  13.6369363  11.5208776  22.3440822   1.6288082   1.5695055
  23.1836780   1.2110893   1.3776071  21.7020305   0.9232370   1.4909513
  64.3532944  96.0682297  79.3655920  63.9246464  96.8756580  79.0817928
  65.2755976  96.1958885  79.1435862  44.8942741   0.2779285   1.9089658
  44.6204075  -0.6177672   2.1063573  44.0984234   0.7998077   2.0114381
  13.7226471  19.9472419  18.2070882  13.0778345  19.5216409  17.6420076
  13.4977945  19.6541540  19.0901334  58.5812426  81.9393063  88.6525822
  59.3712044  82.3386288  89.0168953  57.8905821  82.5812626  88.8172245
  76.6123772  73.9573336  88.6005402  75.7313490  74.2150831  88.8718033
  76.6986418  74.2992592  87.7106571  11.5293630  51.5025131   1.6802080
  12.4272140  51.2152759   1.8462999  11.1507114  50.8065215   1.1431368
  91.6727852  98.2095411  41.3542421  91.0091614  97.6438692  40.9594686
  92.3891853  98.2173803  40.7194669 103.2211039  61.0410968  46.7269571
 103.0452368  60.4727832  47.4768312 103.0819843  60.4804603  45.9637029
   9.0413555  21.6373388  15.3874452   9.4399246  20.9102813  15.8657320
   8.6506208  21.2299339  14.6144064   7.6999697  56.0591499  19.3108995
   7.2899231  56.5929500  19.9914510   6.9876942  55.5191413  18.9684255
  82.2671102  98.8809946  15.9933622  82.3645948  98.5270479  16.8773611
  83.1322740  98.7774256  15.5971391  44.6065378  82.2818947  81.5832996
  45.3009844  81.8515968  81.0844803  44.5508146  83.1604481  81.2074471
  92.9738973  91.9438436  26.1492117  92.6400875  92.8308609  26.2833746
  92.1935343  91.4184287  25.9725530  19.0105375  22.0530311  16.7199667
  18.6745533  22.9062740  16.4455278  18.9080175  22.0500795  17.6716573
  66.5522575  91.5453339  70.1993465  67.3938084  91.3784790  69.7748709
  65.9249353  91.0206032  69.7020006  54.5808109  47.7293960  23.1728037
  53.6868366  47.8578178  23.4898908  54.4785389  47.5298492  22.2422464
  53.2097324  15.5383006   3.0700262  52.6694759  14.8513452   3.4604700
  53.6212238  15.1189176   2.3143633   8.9588436  34.7264568   4.5773466
   8.3231815  34.8044006   3.8659437   9.7161230  34.2999927   4.1762312
   0.0320157  50.3162471   0.9092100  -0.1090161  49.4019500   1.1549814
   0.1183208  50.7779018   1.7432745  17.6399502  55.0037471  22.1855123
  18.5315117  54.8641769  21.8663461  17.4594530  54.2400257  22.7335889
   0.7058088  64.0874290  70.3344059   0.4637821  63.6377573  71.1440086
  -0.0754215  64.0277624  69.7845411  19.7156652   9.2987863   9.0304811
  20.1768812   8.5393325   8.6744745  20.3274378  10.0259725   8.9157541
  92.4830494  37.7828781  15.8023126  92.5128469  38.3058444  15.0011499
  91.6829250  38.0670539  16.2442072  74.1612864  60.1196480  83.9708710
  75.0930977  59.9265862  83.8675117  73.7200308  59.4711065  83.4223080
  88.6143564   3.3184827  63.8743305  89.2409967   3.4432996  63.1616068
  88.3942055   4.2058290  64.1578436  96.2007141  20.0178456  68.5502768
  95.6151009  19.9676275  69.3057585  96.1946774  20.9426951  68.3036089
  39.0109372  51.5861368  54.2170811  38.9337707  52.4663115  54.5852804
  39.9056363  51.3170290  54.4252300  91.5038418  94.2331961  17.7311762
  92.3560213  94.2104032  18.1664903  91.2173675  95.1428535  17.8129537
  26.8754935  96.6180134  66.0880613  27.4528193  97.3796844  66.0352850
  27.3158145  96.0254860  66.6973686   7.7186546  99.5724943  30.8349283
   7.7837334  98.6199882  30.9036977   6.9701490  99.7203186  30.2568967
   1.2429746  11.0661403   4.5674856   1.5900620  11.5823308   5.2950246
   1.8959125  10.3803674   4.4274290  54.5707703  89.5850086  75.9876060
  55.4925251  89.3775368  75.8341312  54.2387867  89.8496914  75.1297235
 105.6178305   0.3376142  33.8346059 105.1645515   1.1789075  33.7798841
 106.4516447   0.4853288  33.3883150  80.3528214  78.7304831  65.1870012
  79.6683311  78.5721922  65.8371115  79.9009895  78.6745691  64.3450069
  80.5496296  32.8738490   8.6385400  80.3340038  33.1137077   7.7373178
  81.4131340  32.4653236   8.5776003   2.2793492  53.5093299  13.5733278
   2.3595818  52.9604808  12.7932222   1.8369230  52.9521839  14.2136915
 101.1578867   1.8106595  23.3290727 100.6454203   2.1017734  22.5748499
 101.4960167   0.9528104  23.0721910  77.6570581  94.0924623  12.7426202
  77.1130775  93.5313394  12.1899469  77.9100012  93.5327318  13.4767587
  99.7055099  46.4795200  30.8286340 100.4612134  46.1039249  30.3768880
  99.2721365  45.7290546  31.2351186  17.9132923  23.8093273  13.2537134
  18.6982712  23.2902423  13.0788095  17.9945644  24.0642110  14.1727693
  20.9461149   6.7713586   2.8417928  21.1115154   6.1115209   2.1683748
  21.7662224   6.8234245   3.3326585  33.9364275  18.6984006   9.7057970
  34.6573337  19.0683643   9.1962297  33.3640798  19.4438783   9.8872240
 102.6076221  91.5594864  79.2563677 102.1802139  90.9972477  78.6102772
 102.5330734  92.4417782  78.8927364  13.6134466  32.0853988   7.2460992
  13.8442596  31.1566440   7.2656019  13.8384899  32.3695747   6.3601930
  84.6893487  33.3871738  13.8477380  84.3378339  33.0875770  14.6861322
  85.6222472  33.1771366  13.8903577  29.2072233  11.9478599  18.0471475
  30.1087602  11.9906513  17.7283437  29.2270407  12.4111740  18.8845117
  48.5015869  83.7972546  62.2888327  48.2486820  82.8747654  62.3247051
  49.1742134  83.8876247  62.9638433  32.8580316   7.9351560   6.0782392
  33.2640299   8.7993566   6.1457594  33.5102018   7.3986951   5.6275423
  28.7415155  25.6059686  10.9239729  28.8941463  25.3111593  10.0261839
  28.5404667  26.5379611  10.8391149  35.7474566  93.8934708  69.2243385
  36.6310692  94.2308521  69.0772486  35.8776975  93.0976677  69.7400427
  42.9052624  15.4552165   3.1388242  42.0585235  15.8972923   3.2007368
  42.7090153  14.5356361   3.3179529  84.1267395  98.1560612  79.9422026
  84.5753956  97.3252201  79.7852612  83.4691715  98.2079411  79.2485523
  90.8893332  14.3382970  21.5253599  91.4420352  15.1014987  21.3572271
  90.1824329  14.6715871  22.0780332  43.8628531  96.1500263  63.9336872
  43.4013081  96.0196781  64.7620726  43.2933140  96.7326546  63.4312868
  30.5841899  97.2759819  61.4568233  30.1453471  96.9505787  60.6708479
  31.4323640  96.8323231  61.4586258  39.3938017  97.1068954  79.3147612
  38.8256240  97.6443386  78.7628937  38.9225030  97.0343113  80.1447201
  24.5574268   2.3492805   9.6164472  23.9670452   2.8002921  10.2199896
  24.2780002   2.6378671   8.7476118 102.3685572  44.9539462   5.2551038
 102.2836063  45.2613632   4.3526037 103.0833671  44.3180362   5.2252443
  66.6238354   4.2310441  73.8490963  66.5847038   3.5448278  73.1829071
  65.8820509   4.0477289  74.4256258  11.7534504   0.0840105  84.6196747
  11.7135868  -0.5622756  85.3246212  11.4582596   0.8992685  85.0251961
  47.8611469  91.5461540  74.2766619  47.0386982  91.8078995  73.8627720
  47.7732182  90.6021404  74.4083071  38.8259172  74.9190664  61.4401531
  39.1967177  74.3372917  60.7766199  39.4760561  75.6145906  61.5391636
  87.9099439   0.6617273  63.9496040  88.0494713   1.5930856  63.7783670
  86.9593118   0.5696977  64.0133524  46.3950491 100.3905964  64.6628189
  46.6518974  99.7101974  64.0404701  46.9862080 100.2708626  65.4060745
  19.0760263  19.2950050  21.4369924  19.5062193  20.1071826  21.7044408
  19.7565159  18.8039056  20.9765680 101.5437243  29.3107215  10.5373151
 102.2590468  28.8047401  10.9226949 101.5483043  29.0655605   9.6120508
  16.6288647  17.9088870  16.7876871  16.0328230  17.8027526  16.0462721
  17.3230919  18.4790222  16.4571817  12.6494392   5.8879939  44.3440683
  13.1113514   6.1282340  43.5408552  11.7230257   5.9970418  44.1293485
  56.5773344  70.4243088  71.0594130  57.3129606  70.9506512  71.3725471
  55.9393311  71.0660458  70.7473946 101.2105535   7.8548921  18.2343626
 101.9889091   7.3034967  18.3140910 101.1070179   8.2497133  19.1001749
  28.5020145  25.5230943   1.0078008  29.3419870  25.0898591   0.8562048
  27.8539594  24.9273626   0.6318338   0.5336104 100.0114658  18.2745512
   0.9339628  99.5584085  17.5324590   0.9231386  99.5989588  19.0454824
  92.0685457  98.1266668  28.9420946  92.4710582  98.5483339  29.7013147
  91.6797279  97.3248556  29.2915876  35.4606470  70.3754417  15.6984956
  34.6597418  70.2068416  16.1948354  35.2210697  70.1964752  14.7892149
 107.6019905  30.8615962  16.4818533 107.3711560  30.4097072  15.6702192
 108.4794328  30.5423156  16.6925390  73.9121580 102.8789997  45.7861567
  73.6282730 102.8708076  46.7002535  73.1985283 102.4545383  45.3099251
  37.1031603   1.2336389  16.0354288  37.2672733   0.8549110  16.8990667
  36.2368664   0.9075824  15.7916029  32.8637489   5.8128778  27.0474107
  33.6561903   6.3381282  26.9361074  32.1457561   6.4359895  26.9358308
  30.7284769  31.3539306  19.3616064  30.6488451  32.0412437  20.0230367
  30.2552971  31.6956416  18.6029394  62.9752684  68.2733965  85.9243870
  63.3456326  67.4473715  85.6133556  63.3588505  68.3959484  86.7927647
  58.2219204  28.9077941  34.5527418  58.4481415  29.8373786  34.5224912
  58.4653457  28.5738365  33.6893423  27.7822574  37.5538055   1.7905195
  28.2340607  38.1050674   1.1516054  27.3104080  36.9109622   1.2610300
 106.7708492  94.0385437  75.6513214 106.0104370  93.5018826  75.8748913
 107.3433590  93.9729404  76.4156294  60.4879951  68.3132792  85.5307770
  60.3822708  68.5880136  84.6199703  61.3827372  68.5684586  85.7556057
  10.3895458   2.1390668   7.1792562  10.0173839   1.8143169   7.9991777
  10.7335504   1.3577453   6.7463262  29.4187006   0.4095260  20.7050378
  29.9210104   0.0784532  21.4495523  29.4168981   1.3596908  20.8208330
  24.2823585  15.8907596  10.3985651  24.1289219  15.8615915  11.3429411
  25.1461347  16.2932865  10.3085764 102.0213150  94.0753963  22.9980333
 101.4439701  94.5658663  23.5831411 102.3150514  93.3295944  23.5212286
  22.2018051  78.8436699  80.6910324  22.9922414  79.2684031  81.0242653
  22.1500778  79.1184187  79.7755718  61.7660570  88.5370255  76.9750500
  62.2307396  88.8813877  76.2123442  62.4577522  88.2032681  77.5463629
  54.2117214  66.2825918  86.1753273  55.1543665  66.2344360  86.0161591
  54.1256762  66.2158871  87.1263123  55.6500101  85.7222748  59.8028946
  55.5338383  86.6662216  59.9110508  56.2392330  85.4704475  60.5139685
  24.9130893  77.0838308  69.3716002  25.4707074  77.8179264  69.6292830
  25.2796507  76.3305426  69.8346567  77.7497648 102.4260071  39.5346315
  77.0247387 102.7048090  38.9753111  78.2197546 101.7765787  39.0115888
  17.1928724  27.9814903   4.5020731  17.1326479  27.0262233   4.4937475
  16.2837347  28.2790939   4.4683893   4.6478590  22.9822532  21.4124258
   5.1808676  22.5744525  20.7299097   4.6610245  22.3536722  22.1341856
  78.2759762  85.6396103  89.1458702  78.4957409  85.8673382  88.2425022
  77.5403261  86.2115288  89.3648624  71.7680763 101.7993429  39.4840677
  72.3750328 102.4053600  39.9090154  71.4612697 102.2712210  38.7098367
  53.4930134  68.0357695  83.4980488  53.5326195  68.0400324  82.5416756
  53.5272646  68.9603806  83.7433147  24.5554670  63.9806167   0.3906877
  25.3192505  64.1329376  -0.1657812  24.6809086  64.5683376   1.1357267
  88.0424485  51.4414684  24.8833330  87.8536854  51.9198314  24.0760095
  88.3082531  52.1180717  25.5060632  32.8928741  36.7038051   7.7941568
  33.7249740  36.9721500   8.1838091  32.5294861  36.0733310   8.4160001
  91.7219148  33.7928859  19.2203291  92.5619564  33.8669578  19.6731813
  91.0676465  33.8780681  19.9138029  10.6157434  98.6154556  75.5482531
  10.8159804  99.4324493  76.0050488  10.7584012  98.8169479  74.6234417
 100.0037596  26.4056293  33.9529283 100.2462695  26.3885585  34.8787363
 100.7727692  26.7649356  33.5104807   2.3190889 100.7371548  14.2799528
   2.4387274 101.0085419  15.1900442   2.9835711 100.0621250  14.1419847
  43.4154463 102.9265976  81.2852192  43.8899183 102.6798058  80.4913712
  42.4919462 102.8664112  81.0407639   7.6737961   6.3330213  19.7741373
   8.4116920   6.6890851  19.2791994   8.0427011   5.5913345  20.2537687
  27.9406818  39.0600292  11.9932611  27.2425779  38.9712135  11.3444193
  28.0961832  40.0027934  12.0502336  12.8714117  29.0182773  10.5996664
  13.6691555  28.5381690  10.8217867  13.0544313  29.9207584  10.8609159
  27.3652729  33.6249153  29.6493490  27.9780182  34.0391437  30.2569635
  26.4999756  33.8522903  29.9896295 107.5541613  27.9893724  10.4776914
 107.5682542  28.2349388  11.4027460 108.3991930  28.2846252  10.1386030
  69.5282243  97.8713825   5.5475004  70.1830910  98.1930473   6.1671121
  68.7612151  98.4228399   5.7018716   2.3151789 102.0573786   2.3746736
   3.1015835 101.5891769   2.0943411   1.6216288 101.3982132   2.3478086
  53.1905937  82.0929146  73.7174177  52.9085493  81.7031765  72.8899002
  52.8099251  82.9711342  73.7105846   5.1070366  86.0519078   8.4157426
   4.7927246  85.7896212   7.5505026   4.4502220  85.7107475   9.0227277
  53.2132530  83.7414551  80.6190777  53.1949663  83.0322552  79.9764776
  53.9641047  84.2771816  80.3632355  52.4934006  70.0766563  50.1767063
  52.3412895  69.1565037  50.3921318  51.6198826  70.4315805  50.0116920
   2.0045194  46.5540210   9.0998323   1.9308719  46.2899391   8.1827314
   2.9189977  46.3835708   9.3254621   4.5431147   0.9336389  63.4273195
   4.2742882   1.7032922  63.9289141   5.0473700   0.4074586  64.0478802
  13.6250385   7.1905700   1.2345560  14.0729173   6.4643232   0.8007295
  13.4728655   6.8793765   2.1268709  72.4851894  86.2549782  64.6881866
  72.1381807  87.0567799  65.0792503  71.7144299  85.7062340  64.5430946
  61.1468363  29.8504353  76.8107843  60.6819201  29.2595267  77.4031639
  62.0238209  29.9255133  77.1869469  47.9551220  93.3047295  88.9158535
  47.8006077  92.4285126  89.2688465  48.4489059  93.1545353  88.1097126
  57.2463688  31.6857616   1.0355241  57.8215679  32.4097339   1.2829836
  56.9488605  31.3206283   1.8688257  82.2699451  91.2903881  67.8270483
  82.8943348  90.5650520  67.8111124  82.6270485  91.9274712  67.2083187
  10.1124557  -0.2865370  22.9492338   9.7264465   0.5622856  22.7330740
  10.6665834  -0.1109656  23.7097318  97.9988290  58.0701113  56.4470720
  97.5618948  57.4468422  57.0274639  98.4290839  58.6873388  57.0387983
  41.3254579  22.3424474   4.2251451  41.6111168  22.1569482   3.3305986
  41.3389238  23.2975093   4.2876871  33.7394747  25.9812967   6.7036111
  34.1977009  25.2078000   6.3750227  33.1195625  26.2053100   6.0095270
  68.3008741  88.6548641   1.9570215  69.1957449  88.9195397   2.1700628
  68.3278798  88.4495738   1.0224874  25.4027081  99.6366787  80.6944084
  24.9459743  99.2419434  79.9515772  24.7185373 100.1002407  81.1773682
  19.1119512  36.3156692   8.3284814  18.7747749  36.2352649   7.4362428
  19.8537048  35.7114688   8.3595712  57.1774673  70.7236910  63.6408615
  56.5537930  70.5180407  62.9444599  56.8757868  70.2118874  64.3913841
  66.4491177  72.7222109  79.4315767  67.3639345  72.8963137  79.2101479
  66.4894867  72.2534561  80.2651596  20.9591945  33.3490554  26.9009740
  20.7251390  34.0223018  26.2620886  20.9093460  32.5274841  26.4123304
  62.0799160  82.0032215  86.1494637  62.9388142  82.3486042  85.9060860
  61.7389965  81.6182995  85.3421021  55.6644392  75.5152512  88.8602734
  54.8252821  75.3482628  88.4311390  55.8324146  76.4446163  88.7044048
  65.6854916  96.4164257  64.7619915  64.8200703  96.1541080  65.0757885
  65.5221319  96.7971134  63.8990784   1.3381825   2.4230302  49.2297029
   1.7249165   2.6799501  48.3926487   2.0280705   1.9265855  49.6699619
  34.0347370  13.0699817   8.6082418  33.1132015  13.1524269   8.8536031
  34.4366344  12.6024143   9.3404157  41.3233885  33.1514446  38.5513075
  42.1481928  32.6773349  38.6568792  41.5471920  34.0644924  38.7315805
  95.0438569  76.4615718   1.7445905  94.2427990  76.8194572   1.3618906
  95.1902387  76.9886104   2.5301130  90.5486940   8.8631261  72.7569103
  90.3537964   9.7305597  72.4022198  89.7072958   8.5426343  73.0818224
  67.6714324   6.2005819  63.1154394  68.3228587   6.4357484  62.4547005
  68.0073642   6.5785802  63.9281511  47.7119335   9.8220245   5.5569132
  47.2667965  10.6411735   5.3399427  47.3055538   9.1700736   4.9859007
  80.6714535  28.8321924  63.7792826  80.9620380  27.9974747  63.4118128
  79.7470903  28.8913441  63.5378551   9.0016159  27.1906988  10.9708364
   8.7341055  26.7138997  11.7565401   8.4930404  28.0011693  10.9977205
  22.1380743  44.3205158  20.0281198  21.9526371  45.2035324  20.3476675
  22.8326019  44.4410793  19.3805559  34.9231848  32.0911685   1.0019548
  34.6484264  32.9138080   1.4069135  35.3863891  32.3580543   0.2079446
  77.6705885  65.3951168  81.9010353  77.5532436  66.2151003  81.4213562
  78.1113195  65.6523418  82.7108669  36.0437664  19.9040071   1.4315755
  35.9946617  18.9486209   1.3991315  36.5024980  20.1476947   0.6275709
  95.0640749 101.2499359   3.1652982  95.8390163 101.1781624   2.6080377
  94.6267532 100.4030016   3.0776460  51.3908243  98.1228065  87.6570415
  51.5084219  98.9120960  88.1856632  51.4969015  98.4214497  86.7538357
  96.9451854  64.3867961  22.5200040  97.5028965  64.9603359  21.9944055
  96.7900941  63.6255065  21.9608839  88.6201668  90.7450390  76.9385433
  89.3926144  90.2706432  77.2459555  88.9636230  91.5778255  76.6148949
  20.6543001  19.7247116  29.2021043  20.1494106  19.8338071  30.0079687
  20.0194105  19.3994180  28.5638864  87.7985023  35.6823839  69.0088558
  87.9032968  36.5087808  69.4803524  87.1822523  35.1793588  69.5412397
 101.4242767  17.7121557  79.5346975 101.1436056  18.0736173  78.6939812
 102.0695614  18.3390916  79.8615026  79.9027274  58.4688751   8.9218099
  79.5075223  58.5916988   9.7849233  79.2694316  58.8478748   8.3122785
  30.5590805  44.2301647   9.4059427  31.3316139  43.6725131   9.3140085
  30.0488457  44.0651409   8.6130579  19.2349657  31.2398998   2.5465353
  19.3360027  31.9704048   1.9362981  18.6836275  30.6121341   2.0794447
   6.4068731  40.8914367   8.9850290   6.9424375  40.2908412   8.4666784
   6.0590633  41.5140334   8.3465727  81.2502766  90.4615307  75.8198786
  80.7751560  91.1152458  75.3069067  81.6529751  90.9609413  76.5302610
  26.2894472  46.0050765  36.9315298  27.0394930  46.0646144  36.3398321
  26.5487179  45.3524486  37.5819833  76.5662766  80.3715229  62.3193932
  76.2490511  80.3405857  63.2219696  77.5052357  80.1992607  62.3894930
  31.7105707  55.8688251  33.2874544  32.4660810  55.3831474  32.9564817
  31.2957796  55.2714912  33.9098508  51.6644859  70.2229548  85.0440407
  52.2729540  69.7767305  85.6330109  50.8330965  69.7646570  85.1664734
  39.4908556  41.5668193  23.2285078  39.7563490  42.3771087  22.7935560
  39.3883356  41.8111984  24.1482885  73.3826994   2.3184694  82.4294567
  74.1121076   2.0061792  82.9648685  72.7926205   1.5673746  82.3670483
  48.7963629  93.2084942  79.6358633  49.2173958  94.0668297  79.6830702
  49.3378353  92.7094269  79.0243292   0.7119595  70.4102755  83.2842827
   0.1387917  69.7644520  83.6973476   0.3022324  71.2532282  83.4786701
  41.8377193  37.7875892   5.0368269  41.2925466  37.8252021   5.8227022
  41.2305340  37.5526706   4.3351324  28.0185636  55.9580032  10.6023176
  27.2121652  56.1280719  11.0891683  27.8332552  55.1632015  10.1021249
  78.0406523  95.1054764  71.7912531  78.8322115  94.6474743  71.5085840
  77.3422956  94.7300720  71.2549686  37.8754886  57.5519554  10.3708513
  37.6848968  56.7618934  10.8765276  37.0895609  57.6940433   9.8432500
  22.1573719  57.9110519  22.0594270  22.9395469  57.3821346  21.9023092
  21.5437015  57.3110668  22.4832971  46.6424068  13.7082521  48.8553960
  46.6572269  14.6646778  48.8198621  46.1230930  13.4483234  48.0944879
  56.6810751  93.4416103  73.0677557  56.0172844  93.2585716  73.7326622
  57.0383310  94.2946911  73.3144569  19.5619997  32.6380245  29.3914945
  19.9983105  32.8152458  28.5581548  18.8352903  33.2604400  29.4184835
  32.2097445 100.7140827  75.5382776  32.1436596 101.0194683  74.6335077
  31.6697264  99.9241924  75.5645037  86.5719770   9.9959768  36.5455580
  86.7684435   9.0869249  36.3191533  86.5715097  10.0097002  37.5026584
  92.8675125  53.9650623   2.8576620  93.5154483  53.4041397   3.2840021
  93.2914636  54.8214809   2.8023965  63.3432341  79.3637609  82.0254326
  63.7427044  78.5971403  82.4364662  63.0356026  79.0471458  81.1761093
  18.5582002  44.6320621  18.8899381  18.4994491  45.4642383  19.3592603
  17.6548084  44.4301978  18.6462934   5.6872616   0.7027830  58.5502958
   5.1016436   0.7711805  59.3043566   6.0742245  -0.1694380  58.6258936
  77.2055244  61.2683010  81.3957310  76.5739679  61.9822979  81.3086891
  77.4428844  61.0473633  80.4951382  68.1152296 101.2302017  73.9053869
  68.8064718 100.5852413  73.7555885  68.5818577 102.0277786  74.1551208
 106.9319271  18.7400640  81.1102009 106.7404150  18.6010374  82.0376873
 106.5207123  17.9980386  80.6668854   0.2384481  95.5630281   3.1370409
   0.9496746  94.9365118   3.0033548   0.6572828  96.3151195   3.5555799
  81.9525719  78.2026052  60.7468271  82.6983929  78.6583948  60.3566456
  81.8521309  77.4111700  60.2178955  44.6626648  67.4914733  18.8981493
  44.3293747  68.2004634  18.3481653  45.1126655  67.9366485  19.6161707
  12.7183851  58.0341522   5.6277425  12.4217113  57.1451942   5.8225877
  12.1774420  58.3104221   4.8879488  30.6787523  23.9680520   3.1375749
  29.7640117  24.2486802   3.1645544  30.6373581  23.0125085   3.1757505
  18.5062920  41.0777187  73.4350252  18.0134903  41.7706919  72.9955196
  18.3256470  40.2915764  72.9196882  15.9479317  31.0445587   4.9609811
  15.4650959  31.0101119   4.1351946  15.5019077  30.4134075   5.5257280
  23.5039934  65.6585781  13.5963686  23.6668810  65.4356376  12.6798589
  23.9052137  64.9443904  14.0915449  31.2244473  11.6296590  47.5244093
  30.6651745  11.4921010  48.2889509  30.9440193  10.9613336  46.8991566
  77.0964050  59.2675352  83.5145569  77.4158144  59.5756054  84.3626690
  77.1121931  60.0447035  82.9559994 105.0083277  53.8453761  16.2290723
 104.5121286  53.5033313  15.4854162 105.7111881  54.3596164  15.8318670
   4.3415674  63.2465259  31.6062601   5.2720722  63.1521789  31.8099554
   4.3114837  63.3204166  30.6523950  62.2533082  14.3794836  56.3925076
  62.8274702  14.9265302  55.8564901  62.0976352  14.8975481  57.1821928
  86.9183922  87.8076363  78.4009552  86.8925190  88.6786366  78.7970924
  87.4254799  87.9248428  77.5976181  97.5682948  68.3825485   9.2167337
  96.6389010  68.1563941   9.1804941  97.6546905  68.9144508  10.0078352
  45.2980503  28.9805881   8.7306936  44.6243271  28.3007804   8.7169130
  44.9672111  29.6576682   8.1404836  69.9687179  13.5086051   6.6255148
  70.6128010  14.2009393   6.4769609  69.1603550  13.8468353   6.2403257
  56.5574789  91.2043190  89.0522385  55.6660461  91.4699173  89.2781639
  56.5989447  91.2904549  88.0998230  21.4610704  55.2802936  25.5392511
  22.2490105  55.8089820  25.4133184  21.6518530  54.7459403  26.3101633
   1.6434988  18.3196966  40.3344209   1.5218886  18.5215751  41.2621458
   1.4158973  17.3930065  40.2591093  54.2821121  63.2023764  83.2539272
  54.6204185  64.0750122  83.4546471  53.9858294  62.8604889  84.0974712
   9.4298920  52.1850578  15.1114805   8.9263662  52.9007903  14.7236498
   8.9121231  51.4011375  14.9281366  64.6993637  81.8628216  70.5267859
  64.0876102  82.2407246  69.8949718  65.2953243  82.5803471  70.7417679
  78.5062335  36.9208423  14.5666082  78.6645219  36.9775478  15.5089338
  77.5621215  37.0487014  14.4742162  93.5579275   8.6474813  65.2135706
  93.7658333   8.9615644  66.0935450  93.6700653   9.4149412  64.6526194
  14.7325548  62.1894828  27.9107435  14.4025883  63.0819503  28.0149610
  14.8117288  62.0724193  26.9640310  20.1937326  38.6671344  14.8831995
  20.6616005  39.3864623  15.3073461  19.6424993  39.0937702  14.2271764
  60.3237915  70.3440762  74.6780014  59.3990707  70.1123238  74.5918751
  60.6607437  70.3216839  73.7823486  93.0581592  25.9864534  81.7794132
  93.4751486  25.4466833  82.4509811  92.3157810  25.4627241  81.4780521
  55.7569838  91.1009312  86.6051483  55.9987974  90.3449345  86.0701466
  55.8971024  91.8546295  86.0319710  98.1633590   8.4713186  87.9540348
  98.4237169   9.1907991  88.5291767  98.8457607   7.8106988  88.0729198
   8.4211239  33.6386482  20.3334386   9.3591770  33.6014072  20.5202539
   8.0203041  33.8830844  21.1675985   1.5466271   1.5596498  82.1343803
   2.4373875   1.2839807  81.9180679   1.4355526   2.3923696  81.6756248
  31.4778885  32.9124538   7.1879347  31.5695938  32.7147094   6.2558897
  32.1759304  33.5418598   7.3690565  61.9033575  81.1433220  79.4096088
  61.1729527  81.3360882  78.8217402  61.4962101  81.0308266  80.2685642
  72.3630524  80.3133297  83.3401871  72.7939653  81.1388016  83.1185055
  72.7767801  79.6662188  82.7689648  69.0879679  78.9556551  78.7995481
  69.3594790  78.3666706  79.5035458  69.1323614  79.8294449  79.1878080
  99.7560787  97.2137260  75.8112049 100.1504898  96.7885303  75.0497103
  99.1300488  97.8358364  75.4406595  32.0380195  33.5939399  11.4571149
  32.8485760  33.3950225  10.9884317  32.3267874  33.8860980  12.3216875
  43.8674339  43.4383479  10.1576193  44.7890648  43.2011024  10.2603109
  43.3889374  42.6357547  10.3652628   9.2563471  67.4699584  14.6667535
   9.2017301  67.4152461  13.7126787  10.1948818  67.4543945  14.8542173
  57.4853802  78.1887197  81.0100269  56.9288635  78.7859821  81.5098286
  56.8847466  77.5191784  80.6826305   8.9452967  32.2867576  17.8725870
   8.7830671  31.3462058  17.9452856   8.6059269  32.6521961  18.6895998
  35.4785657  80.7839489  84.4656277  36.4266729  80.8153820  84.5934391
  35.3683877  80.6259632  83.5280037 100.0040220 101.9584396   5.7004888
 100.2712749 101.2553718   6.2925298 100.1436781 102.7609375   6.2032087
  51.4565992  83.5432720  88.4484196  51.8181801  84.2566967  88.9742756
  52.0537853  83.4678173  87.7041721  72.7701235  99.5879745  60.1643515
  72.6871157  99.7095585  59.2185402  71.8750477  99.4311523  60.4651451
  16.8209728  25.0657216   4.6419675  15.8866056  25.0241033   4.8455675
  16.9365963  24.4477121   3.9202173  22.1136316  25.8808080  22.1499021
  22.2241005  25.2683631  21.4226205  23.0045065  26.1499730  22.3737772
  30.4153761  39.6517841  41.4890726  30.2833589  38.7095157  41.3844640
  29.5498165  39.9910633  41.7169340  55.7970508  49.7214500   4.5494135
  56.2077125  48.9033786   4.2694910  56.5180763  50.3497020   4.5901449
   8.6887487  53.7596027   9.0897806   9.1442856  53.7611381   8.2479341
   7.9073366  53.2279197   8.9383085  29.0684732  37.0337383  39.1142233
  29.2537149  37.7804271  38.5446794  29.8237022  36.9864646  39.7004182
  49.1292095  86.2666512  68.3499241  49.4813633  86.9241333  67.7499771
  48.9360523  85.5128193  67.7925539  64.6711779  65.6827784  85.1202011
  64.8742771  64.9818087  85.7395744  63.7840080  65.4866743  84.8190308
   8.0054649  42.3345558  37.4502237   8.1484493  43.2711212  37.5867612
   8.4748014  42.1362392  36.6399057  15.0169739  14.8591701   3.7858827
  15.3228172  15.7609168   3.8835485  15.3284582  14.5929710   2.9208143
  44.0782547  70.8501720  50.5738878  44.0437412  71.1814165  49.6764946
  44.0183926  69.8993969  50.4807186  98.2375835   6.1194242  73.6270237
  99.1808580   6.2391199  73.7371731  98.1512569   5.6456674  72.7997780
   7.4450191  43.1632701  26.5964658   7.1736702  42.7018062  27.3899801
   7.4376377  44.0881721  26.8428953  66.4920521  67.5413465  78.5750198
  65.8505058  68.2172775  78.3564758  66.0758829  66.7212915  78.3094072
  28.6177238  33.0498878   6.9956262  28.4278234  33.9865962   6.9432123
  29.5493349  33.0060569   7.2110708   0.3255328  23.3098546  23.1096800
   0.6468972  23.9747659  23.7186582   0.7238730  23.5410539  22.2705705
  53.8095379  81.4717960  62.3381758  54.5175934  81.6243649  61.7123842
  53.0101776  81.5345001  61.8153715  73.8062572  37.3802638  75.9757042
  73.1272650  36.8370438  75.5755615  74.6272230  36.9440007  75.7478333
  94.4240973  50.5285446   6.4043005  93.7300179  49.8818103   6.5316541
  94.6936152  50.7683746   7.2909029  55.6547117 101.0367393  63.7514687
  56.4360952 101.3414097  64.2128181  55.0351810 101.7627525  63.8243723
  82.8837013  86.8881702  85.3680038  82.0778084  86.3782597  85.2857399
  83.5701942  86.2327766  85.4921627  46.5156349  54.8571483  26.1621053
  47.1685680  54.4442741  26.7273004  45.6748184  54.6071617  26.5451963
  87.6398109   8.4703458  67.2365952  88.0334972   9.2019952  67.7119207
  87.7522634   8.6963380  66.3132763  42.9821714  46.0366050  11.1717947
  43.2405742  45.1427452  10.9471281  43.5122951  46.2535945  11.9386823
  75.9402657  68.4637213  74.4570589  75.2607012  68.9287138  73.9689922
  75.4891586  68.1214428  75.2287960  71.9120169  74.3721390  89.0020084
  72.7157259  74.2170334  89.4982147  71.9435501  75.3026485  88.7797737
  16.9052728  78.8496009  12.5045450  17.7240547  78.5702030  12.0949419
  17.0993360  78.8649455  13.4417398   8.5899671  35.8151618  18.5313470
   8.4754356  35.0003044  19.0203531   9.4583973  35.7374088  18.1363542
 101.7848036  16.7994777  12.7745874 100.8870075  16.4971868  12.9117544
 102.1660135  16.8239538  13.6522634  40.9121307  52.8201381   0.2676160
  40.1830753  52.3978511   0.7218988  40.4944881  53.4322540  -0.3383009
  44.1599258  15.6945268   7.4962194  43.7445148  16.2195817   8.1803186
  44.2470821  16.2932531   6.7544897 102.8695034  15.9462465  76.0916424
 101.9263195  16.0198701  75.9459925 103.2550453  16.5849031  75.4918861
  89.4154832  72.4403373  19.4158323  90.0720725  72.7201644  20.0536497
  89.1511009  73.2474891  18.9744337  25.1360449  41.1941139  15.3592069
  25.3648123  41.9330017  15.9230764  24.6100458  41.5808765  14.6592195
 101.6333866  84.2334557  74.6361065 102.0781231  84.7419357  73.9579535
 102.3312569  83.9752007  75.2381992  54.0980682  19.2098535  56.2383795
  54.8612366  18.6376680  56.1583376  54.3512878  20.0121416  55.7818079
  72.9125690  80.2835941  77.2173738  72.0238495  80.3275299  76.8645620
  73.2397842  81.1809444  77.1546936  48.4729847  79.9510471   8.3520372
  48.5395035  80.8579055   8.0529935  49.3740066  79.6986667   8.5537489
  88.8329887  99.9128056  82.2854328  88.9965153 100.7229328  81.8025398
  88.0095673  99.5820713  81.9265175  82.3769665  86.6200161  73.6010885
  82.7046204  85.8157349  74.0035772  81.5914917  86.8364811  74.1034842
  56.1285385  37.5329105  15.3646619  56.4201244  36.7179004  14.9560602
  55.2236732  37.6378719  15.0706823  40.4319605  45.7453147   8.4494741
  41.1019214  45.1572219   8.1008585  40.2863773  45.4387370   9.3444975
  69.3623813  28.7540714  13.3361585  69.5270332  28.2629100  14.1410692
  68.8016399  29.4802085  13.6091287  32.2032318  91.7464903   4.7223241
  32.9749069  91.5424421   4.1940172  32.5233517  92.3538902   5.3892667
  42.2536564  81.4789009  82.7983379  43.0348873  81.8622494  82.3996449
  42.0652246  80.7081032  82.2630024  23.0558189  74.9907199  23.7051923
  22.1915754  74.5955268  23.5905607  22.9434809  75.6064597  24.4294031
  68.9463425  82.8283882  61.4256716  69.7920799  83.2560921  61.5599632
  68.8741589  82.7332973  60.4759455  92.2438335  85.1931763  89.1075420
  91.5447140  84.7850800  88.5967445  92.7276325  84.4571304  89.4822502
  79.6898674  18.1397832  57.5191736  79.0298246  18.8327039  57.4985504
  80.5261778  18.6053956  57.5141382  77.3502588  82.8830242  88.3402634
  77.3461485  83.6803246  88.8699055  77.0615625  82.1953869  88.9402962
 103.1076025  39.7679628  59.8354197 102.5378584  40.0573743  59.1227770
 102.6254677  39.9888338  60.6322861 103.6171030  26.0713972  59.9568033
 103.9182018  25.7753099  60.8158159 102.9680895  25.4192937  59.6926355
   2.9483422  47.9102985  43.7954004   3.0999693  48.8531009  43.7292154
   3.4824547  47.6334945  44.5399435  17.6377926  34.5305074  68.9147377
  18.3563194  33.9259923  68.7289715  17.2621880  34.7270406  68.0565262
 103.6030554  19.3337358  80.3255367 104.2017339  18.6220659  80.5521202
 104.0947746  20.1315416  80.5203342 101.9345543  75.8749000  11.0452421
 101.4267371  75.6919757  11.8357427 102.5245974  75.1259223  10.9609563
  82.4310875  80.4520798  64.0848494  81.7459393  79.9509907  64.5272493
  81.9739151  81.2063408  63.7129307  29.3609357   6.8602943  76.8166828
  28.6584783   7.4522692  77.0856619  28.9741397   5.9867817  76.8766403
 102.3222794  98.7399556  74.2938185 102.9558172  98.0244457  74.2398977
 102.7672591  99.4848340  73.8896132  15.4146098  57.7490094   4.8395498
  15.4066991  57.8557846   3.8883550  14.5181726  57.9473296   5.1102884
  50.6068026  83.7388614  23.3187063  50.9419702  84.1424349  24.1193445
  51.0936903  82.9183057  23.2421453  23.1003785   3.6828834  37.8263164
  22.4032426   3.7980703  38.4720469  22.7169347   3.1140268  37.1587801
 100.3843952  10.1212835  85.0012684  99.6169521   9.7804302  85.4607010
 100.2118094  11.0582769  84.9091244   2.7934052  87.9353832  62.7055979
   3.7501694  87.9356479  62.6767635   2.5388242  88.7177419  62.2163773
  18.3259141  29.5523429  70.4721451  18.4250450  28.7897778  71.0421419
  18.9676356  29.4154763  69.7752237 100.0557556  98.4659105  67.5554943
  99.1545000  98.7540429  67.7002478 100.0492778  98.0927919  66.6740370
  60.3446569 102.0013148  78.5100937  61.1565795 102.3790796  78.8481855
  60.5629482 101.0870366  78.3293295  13.6480594  26.8526578  64.7947454
  14.6019638  26.8513727  64.8740959  13.4306967  25.9669018  64.5041847
  82.1557643 100.9142057  67.2511339  81.3690832 100.3691985  67.2329235
  82.6598736 100.5823877  67.9941034  43.9501952  36.8211558   8.7550695
  43.3376305  36.1274996   8.9996870  44.5141034  36.9240203   9.5216520
  14.8988831   7.0394784  74.6992445  15.0398195   6.0992205  74.5884132
  14.5695686   7.3340356  73.8501167  15.7005394   2.9460075  79.2033052
  15.7737672   3.3360949  80.0743389  14.8313248   2.5452763  79.1926384
  35.8422446  12.6604581  83.9365292  35.8840990  11.8810105  84.4905567
  36.0109496  12.3351216  83.0522633 106.2372818  86.7104839  88.4056664
 105.9150090  85.8609640  88.7068081 107.1335044  86.5380608  88.1170654
  15.0925922  54.2649937  72.7760410  14.5910764  54.9767303  73.1737185
  14.7164226  53.4685040  73.1506491  35.2616239  19.0762961  69.2803383
  34.8197961  18.6423218  70.0101948  35.0652504  18.5275304  68.5210466
   3.9009452  34.7309041  63.5853815   3.3368379  34.0243459  63.8996887
   3.4979391  35.0116587  62.7638006  12.9571509  46.5793896  50.6070948
  13.8597047  46.8861580  50.5203772  13.0395365  45.6761599  50.9130716
  25.3727150  48.1644249  66.7842054  25.4687309  49.1099119  66.8985081
  24.9906707  48.0661774  65.9120703  21.0441899   2.7026078  63.4676695
  20.7906461   2.1313155  62.7427053  21.3828349   2.1062410  64.1354227
  31.8747568   9.1410428  71.5735197  32.2388482   8.7367392  72.3610497
  31.7555523  10.0609374  71.8097734  53.3522342  57.0896730   3.8204916
  53.3480881  56.1895171   4.1459615  54.1987776  57.1824470   3.3834608
  26.2076927  85.9646486  52.2671890  26.2007500  85.7252096  53.1939316
  25.7527567  86.8061649  52.2338200 108.3879890  79.4748723  69.2028522
 107.4372306  79.4847332  69.3132734 108.6180606  78.5458147  69.1905546
  20.6105400  98.1072914  85.6558132  21.3359047  98.5035341  85.1730347
  20.8397413  98.2313134  86.5768528  51.2680446  77.2154501   2.0307024
  51.6286813  77.7678373   2.7242811  51.2248801  77.7891376   1.2656934
  10.3657722   7.4713659  86.8334770   9.4810939   7.7578968  87.0603561
  10.8614862   8.2836521  86.7300797  15.2792990  17.0193183  69.3076658
  15.5581164  16.1684883  69.6461678  15.5961943  17.0333195  68.4045506
  79.2731227  26.7425847  76.1125946  78.6493291  26.0771370  76.4029217
  80.1315345  26.3713932  76.3165092  24.0915966  57.0325089  78.9531469
  23.8452268  56.2940454  79.5101070  24.9498916  57.3027754  79.2795229
  69.7797297  53.3697697   1.4557226  70.4490041  53.4465246   0.7757146
  70.1997708  52.8603896   2.1487863  25.7811165   2.6061437  55.0944471
  26.3230848   1.9511101  54.6546364  26.3722348   3.0253440  55.7198095
  24.3289161  24.5356774  41.7410421  24.8826313  24.6350169  42.5154829
  24.3368769  25.3993917  41.3285255  59.7411633  17.9864800  76.7182875
  59.3413401  17.9599190  75.8489990  59.6278334  17.1000409  77.0612335
 108.9567032 100.0316610  87.9204845 108.6307611  99.1316699  87.9174423
 108.7976994 100.3409689  88.8122749 100.5512943  94.7228049  70.1030922
 101.1566701  93.9855861  70.1822233 100.6360474  95.0056445  69.1925716
  86.7881217  90.9405314  79.0147209  87.1097376  90.8032691  78.1236792
  85.9596124  91.4062797  78.9012241  97.7630962  25.1669192  66.2379122
  97.2675039  25.6139183  65.5517530  97.5732161  25.6644535  67.0332956
  96.0459104  84.8278593  62.3386383  95.2908530  84.8637246  62.9258680
  95.7059398  85.1209175  61.4932013  77.6751047  75.1895629  84.0506268
  77.3277571  76.0630881  84.2309952  77.2334977  74.9176394  83.2460880
  44.4615126  25.0742006  87.4748611  43.6743736  25.4513645  87.8677940
  44.1792917  24.2211604  87.1448517  21.8963766  18.6854839  72.0225096
  20.9805083  18.6996710  72.3003817  22.1497512  17.7641952  72.0796108
  18.1078577  14.9548411  62.4941063  17.3605394  15.1644278  63.0542994
  18.2982838  14.0359247  62.6826859  80.9189152  33.9387181  11.0914476
  80.8399938  33.4061244  10.3000219  81.7791198  33.7143650  11.4463289
  36.7640471  35.1500106  84.1709614  37.0779800  34.8881269  83.3054543
  35.8369398  34.9118853  84.1716194  41.4423800  26.5948629  84.2440128
  42.3871946  26.4875889  84.3537617  41.0810328  25.7253027  84.4158554
   1.4815764  14.2739367  79.2847204   0.9613919  15.0189340  79.5857477
   1.1106748  14.0523589  78.4305716  55.3805720  55.9940684   1.9938429
  54.5984112  56.0180861   1.4425905  55.5194472  55.0639346   2.1721609
  35.5821657   9.3506765  78.1641436  35.8321071   8.8483930  78.9396906
  35.4654121  10.2448189  78.4852505  38.1250121  93.0150774   1.3550527
  37.9376130  92.0793035   1.2812956  38.9168184  93.0592564   1.8910844
  84.7782968  59.5697608   9.5238454  83.8959430  59.3900767   9.1992052
  85.2460264  59.9192670   8.7653597 103.4155632  10.3642666  74.0565586
 103.5077853   9.9505466  74.9147892 104.1946341  10.0892997  73.5731602
   4.8310927  16.7322779  20.7938695   4.7788733  16.4076746  19.8949051
   4.6082562  15.9750128  21.3352799  39.9484812  49.5050709  13.5651453
  40.8041992  49.5757289  13.9882143  39.4587599  48.8941878  14.1158064
  27.9462982  99.5234933  81.3187599  28.0941178 100.1658775  82.0128250
  27.0069481  99.5739540  81.1418056  71.9994591  67.9052177   4.7092111
  71.3616084  67.7526095   5.4064138  72.3401545  68.7824729   4.8840864
  39.4080710   5.6056583  74.7064781  40.2064943   6.0581326  74.4344091
  39.6849346   5.0472534  75.4329491  62.7112246  34.1072559  75.6542778
  62.0753670  34.4030690  76.3057470  62.3760700  33.2603931  75.3597832
  30.9171629  17.3493958  45.7557058  31.7842865  17.4468279  45.3622150
  31.0913825  17.1967840  46.6844654  62.1072102  24.3237042  58.3746910
  61.7276621  23.8008475  57.6684380  61.4009857  24.9110103  58.6440420
  15.1290238   6.5566397  68.6549807  14.4249523   7.1192378  68.9774704
  14.6934724   5.9434092  68.0629730  56.6808103  82.2282436   9.5456083
  56.0684537  82.8908065   9.8653944  57.3064111  82.1150520  10.2611883
  88.8072241   5.3251231  72.3425531  89.4048442   5.1308584  71.6205120
  89.2251505   4.9358764  73.1107092  75.1120771  29.3774128  88.4846497
  74.3599166  29.8655939  88.1497288  75.2319492  28.6631346  87.8588104
  54.0428077  42.2352907  34.9655397  54.5296048  41.5275189  34.5432623
  53.8575910  42.8535613  34.2586668  58.2521914  49.2028861   0.5141981
  59.0078996  49.6552375   0.8890493  57.9869746  49.7511029  -0.2242796
  45.7669954  47.6572791   1.5415437  46.6840719  47.4188915   1.6770895
  45.7851057  48.6021301   1.3893564  19.5504844  20.0436902  60.4304743
  18.9239049  20.7423067  60.2418900  19.3001831  19.7251356  61.2977171
  24.7810745   2.1779764  24.3859339  24.6025419   1.5587470  23.6781836
  24.9845290   1.6262829  25.1412296  75.6831883  71.5361836  27.7473409
  75.0863169  72.1354678  27.2991903  75.3425525  71.4820781  28.6402376
  57.9348531  75.2161800  75.1062727  58.5213091  74.4626581  75.0391483
  58.4993031  75.9735452  74.9512720 100.7276959  31.9858265  70.2042341
 100.1747734  31.7481017  69.4599247 100.6635190  31.2383270  70.7986736
   2.4094757   4.6752540  19.8233659   2.3157080   4.4106380  20.7384641
   2.4476298   3.8509027  19.3383653  13.0247343  35.4720831  71.4175701
  13.1143677  35.9918046  72.2163725  13.9198399  35.2130580  71.1986542
   6.0696888  24.9658775  81.0785484   6.6755682  24.8622823  81.8123150
   5.9730333  25.9130359  80.9796429  32.1536517  34.1070271  79.9934053
  31.3905334  34.0837359  80.5707645  32.0545244  33.3365035  79.4342136
  72.4993991  54.2717176   6.4514310  73.1289433  53.6247241   6.7697103
  72.9982923  54.8086247   5.8357389  39.8139310  18.7221563  80.8481026
  39.9283648  19.3544984  80.1386738  39.7159648  19.2593360  81.6342735
  35.2813745  54.7816277  20.7489944  35.7630301  53.9614487  20.8564448
  34.4175601  54.5128918  20.4361987  66.9230174  60.1258293  19.8971040
  67.6091360  60.3994229  19.2883260  66.1350034  60.0630477  19.3573625
  94.8487450  27.7567768  61.9987583  95.7313288  28.1272173  62.0059824
  94.4080533  28.2019687  61.2749958  40.2293777  34.7063398  83.1241035
  39.5992112  33.9885616  83.0615616  41.0276556  34.3596220  82.7256393
  29.0325570  13.5157454  79.0007496  28.1686473  13.4927428  78.5892153
  28.8540483  13.7044704  79.9220276   9.0023400  64.5930325  52.4649429
   9.8898770  64.4210612  52.7794933   9.0679528  64.5228397  51.5125799
  60.0220703  39.3605259   0.7670362  59.7955226  38.4808984   0.4651029
  60.7592057  39.6208992   0.2147157  67.5023618  77.9200851  69.5922804
  67.4578866  77.0878183  69.1215515  66.6726609  78.3532654  69.3918276
 108.9607682  90.3304588  88.2457161 109.3286934  89.4583963  88.1029987
 108.4074869  90.2330898  89.0207195  59.1968440  67.2873798   1.3904340
  60.0592493  67.5056854   1.7437513  59.2354535  66.3445309   1.2298830
  21.8117809   9.9489164  45.0309372  21.3200951   9.9091613  45.8512402
  22.3213387  10.7565963  45.0960207  52.3479270  83.8180664  17.9230650
  52.1445607  84.0120581  18.8380773  53.1933426  83.3703354  17.9553373
  21.1119843  36.2629199  63.9023209  20.7725668  35.6505680  64.5550489
  22.0530820  36.0897803  63.8780260  17.3097956  30.5798626  76.4719915
  17.7411950  31.2387037  77.0161009  16.6374469  31.0661888  75.9948492
  20.9039235  43.4281635  82.6232529  20.5632234  42.5518990  82.4435043
  20.7622004  43.5523939  83.5617161  22.5171232  38.5835338  61.1901522
  22.0011902  39.3782353  61.3261557  23.4250665  38.8654375  61.3015127
  42.8628302  13.9596272  48.0747700  42.8661394  13.1780410  48.6273479
  43.6130619  13.8438964  47.4916840  92.1119331  75.1756647  23.8693960
  92.8306793  75.6485656  23.4498747  92.2202848  74.2696503  23.5802133
  28.5830092  25.1036954  40.7166815  28.5044575  24.3251491  40.1653862
  27.8725052  25.6755590  40.4261827 100.9162362   4.5858055  85.8283997
 101.8438650   4.8183674  85.7877636 100.7251776   4.2117712  84.9682713
  28.9180256  99.4627823  73.1701803  28.7857414  99.2537655  74.0948677
  29.3455101 100.3191947  73.1769896  97.8310242  53.4818541  78.4257650
  98.3439126  53.3161818  79.2167950  98.0326381  54.3887173  78.1951427
  24.4714427  17.0747101  51.4342928  23.6508441  17.2113454  51.9077682
  24.2922759  16.3357913  50.8528042  31.9740987  14.2217112  52.0405436
  32.0002413  14.9591172  52.6502800  31.0484743  14.1306579  51.8143463
  27.0114422   1.9481161  45.8973503  27.3133779   2.1490295  46.7831802
  26.6052556   2.7596411  45.5929279  69.8555468  42.9467758   2.9221113
  70.0839638  42.0438322   2.7013166  69.2751788  43.2269314   2.2143514
  23.2298923  14.3859196  75.9603119  22.4516010  14.8342645  76.2911892
  23.4609795  13.7655210  76.6516399  75.4613494  39.6277955  23.8597829
  76.2903141  39.4491723  24.3037851  75.3870820  38.9350584  23.2033975
  97.5706544  97.8594761  65.0761175  97.6919093  97.9767471  66.0183382
  97.4780383  96.9135731  64.9624491  75.1432656  45.3130361  20.4396112
  76.0263680  45.2113041  20.7945879  74.8405622  44.4173470  20.2901323
 101.9700708  42.2121083  39.3938422 101.8252912  42.7388417  38.6078262
 101.2869015  41.5423810  39.3625474  41.4257669  20.8080125  84.3991184
  41.7544651  20.8160782  85.2980709  42.0747757  20.3009725  83.9113331
  29.9573445   7.3701209  59.4187212  30.6478810   7.9666549  59.7077513
  29.1735506   7.6700532  59.8790884  92.9329100  99.4338285  52.1289539
  93.5526528  99.7836362  51.4888096  92.9403558 100.0715177  52.8427649
  31.9172192  47.2422266  73.8935137  31.9833183  46.8808365  74.7774029
  30.9775019  47.3550081  73.7505245  67.8564333  74.0188268   6.6966779
  66.9021915  74.0760115   6.6478307  68.1632303  74.8754814   6.3995989
  75.3316664  29.0579846   8.1996400  75.6792806  28.9888385   9.0887983
  74.7303270  28.3175972   8.1193121 100.6451010  70.8002916   0.5459554
 100.1461481  70.7367089  -0.2684347 100.5528044  69.9380937   0.9513242
  64.4485615  63.9368942  32.9902418  65.3309606  63.5660234  32.9977567
  64.4497989  64.5725122  33.7059362  27.5828290   0.8607406  78.8131094
  27.2774625   1.2964840  78.0174255  28.4056091   0.4438839  78.5571861
 106.4271642 100.9953751   7.3335798 106.1877955 101.8352045   6.9416292
 105.7538525 100.3876938   7.0276220  94.8134794  99.9791794  58.2646704
  95.6162205 100.2221995  58.7259531  94.4695296 100.8073484  57.9299068
  29.9636341  95.9698849  70.2399921  30.1215960  95.3838353  70.9801435
  30.4995228  95.6117617  69.5323133  11.5854156  14.3679345  65.0331497
  11.6174006  14.5961797  64.1041136  11.6514480  15.2073407  65.4884195
  76.4351984  92.2644614  57.2798824  75.6105387  91.8147027  57.0958042
  76.2213253  92.8790413  57.9818678  15.9936690  30.9669137  69.9884939
  16.0100365  31.9186497  70.0893068  16.8803656  30.6867385  70.2154398
  79.3514751  92.7876308  29.2618330  79.1918110  91.8632486  29.4522531
  79.2011379  92.8675821  28.3199079  28.5670710  38.9037037  82.7603340
  28.7357545  38.1608200  82.1807671  29.1004920  38.7286019  83.5355949
  35.2097034  56.4526892  86.1671925  35.3001666  56.7005301  87.0873165
  35.3899527  55.5127144  86.1534977  36.3259809 100.2092007   4.5675810
  36.0350538 100.9641197   5.0791414  35.5180703  99.7510221   4.3361051
  46.5047359  23.2169366  88.9299011  46.3099432  22.5377131  88.2841873
  45.9015656  23.9292312  88.7176514  34.1196990  12.3420858  43.6920738
  34.0114069  11.4098644  43.8804054  33.2611561  12.6239645  43.3763504
  23.7458348  13.1734204  78.8098764  23.0257654  13.1929827  79.4402313
  24.0435362  12.2637033  78.8144779  84.8418211  92.6191309  22.0467909
  85.6398987  92.9729870  22.4393327  84.2189335  92.5715568  22.7720411
  21.5395641  34.9298382  85.9661484  22.4669337  34.7584343  86.1299706
  21.3351226  34.4151139  85.1854420 103.6435913  90.1749947   6.7465837
 103.4413694  89.8092201   7.6077230 103.4044431  91.0991791   6.8167551
  67.1072006  19.8899651  71.3209629  67.2276688  19.1195643  70.7658005
  67.1278334  20.6289434  70.7129145   9.7194010  39.7003579  76.6772938
  10.2751350  39.0396857  76.2638903   8.9296889  39.2234206  76.9324732
  31.0531354  22.2464085  62.1462679  30.9086061  21.3474941  61.8508053
  31.0592628  22.7649164  61.3416910  49.0503597  21.0216260  57.0259666
  48.3059120  20.9006810  57.6153708  49.4987726  21.7974257  57.3625565
  28.9605284  31.7294383  77.2929192  29.5874572  32.3424459  76.9089746
  29.2652726  31.6068983  78.1920004  39.0142965  32.6411009  57.2274113
  39.9362421  32.3839235  57.2169018  38.9074516  33.1815076  56.4446115
   0.6924012  62.8780603  54.1907358   0.4634719  63.8074780  54.1932487
   1.6014829  62.8544998  54.4894791  45.7140923  31.8793416  79.6559191
  45.1040363  31.1538291  79.7889423  46.4526844  31.4886618  79.1889286
  77.0675659   8.5753334  47.4975538  76.4607763   7.8385293  47.4257326
  77.2458935   8.8279271  46.5916681  73.7227272  80.5279615  18.5662420
  73.8528084  80.3662255  19.5006712  74.3319057  79.9303558  18.1326540
  22.7615404  28.4212232  69.7961617  23.5145187  28.5013390  69.2106390
  22.9364157  29.0478015  70.4983377  39.9990153  35.2810359  60.9364462
  39.7961044  34.3959475  60.6336641  40.9021664  35.4289556  60.6559753
  51.1211061  45.9728050  65.4280567  51.4275742  46.8795633  65.4181051
  51.7954254  45.4868555  64.9533176  21.9006610  23.4663820  66.8460512
  21.6162133  22.5615072  66.9745970  22.1882582  23.4997296  65.9336901
  40.6894922  28.8545847  74.8551559  40.4127455  29.5108175  74.2156267
  40.4873133  29.2474651  75.7042694  69.7249602  48.3232870  24.3381937
  69.0528296  47.8636300  23.8350160  70.5140733  47.7937934  24.2234476
 103.8482593  82.9219630  22.2630842 103.7882446  82.0103434  22.5487096
 103.1165718  83.3583429  22.6994760  50.3302717  14.5665658  82.8661728
  50.2016020  14.8059881  83.7839699  50.4601097  15.4016578  82.4167347
  79.5124315  87.0596912  26.1247308  78.8250755  86.9037440  26.7723806
  79.0438150  87.3580745  25.3452451  74.3703984  90.5051902  55.8557279
  74.1465687  91.3226035  55.4107912  74.6400498  89.9153545  55.1517351
  24.2505741  15.1124513  44.0348005  24.0091467  15.0012934  44.9543619
  23.7742591  15.8941305  43.7549210  23.2410741  29.2347932  58.9392233
  24.1027999  29.6475720  58.9964199  23.1019235  29.0997553  58.0018711
  65.3666401  26.0445738  54.9003267  66.0078812  25.3363729  54.9594402
  64.8035336  25.9222269  55.6646395  46.2320297  98.6133030  18.2099397
  46.0979663  99.2131832  18.9436968  45.9783493  99.1189220  17.4377782
  17.0249617  13.9216638  44.9905109  16.2698054  13.3395386  44.9062395
  16.7983770  14.5045233  45.7151937  36.6221677  73.9543369   1.8419130
  35.6739972  74.0803078   1.8053587  36.9023659  73.9779213   0.9269483
 106.0144020  75.1464224  81.5323162 106.5801997  75.6397963  80.9384441
 105.8928869  75.7261658  82.2842216  55.6184779  49.2823788   0.7972200
  55.4150580  49.1274982  -0.1252024  56.5577101  49.1116035   0.8673055
  23.6162496  45.5662966  72.4379873  23.6592889  46.5200663  72.3694468
  24.0804958  45.2493000  71.6632462  64.6878790  76.0531428  14.9512155
  64.0863131  76.7053011  14.5919855  64.6555494  75.3280476  14.3271692
  33.4497929  29.6872830  75.9425116  33.8553166  29.5632720  76.8006516
  32.6620936  29.1440916  75.9690905  94.8127769  54.5700300  15.8134706
  95.5737089  53.9945918  15.8914621  94.0846323  54.0520921  16.1566599
  36.4859796  34.5238328  40.3206444  35.9066844  33.7627292  40.2836323
  37.2316670  34.2842507  39.7703886  54.9327707  31.6444683  82.0140839
  54.9305391  32.2319746  82.7697659  54.7105885  32.2073460  81.2724400
  37.4707890  48.2965851  72.4428129  38.4228230  48.3946609  72.4584198
  37.1446371  49.0455723  72.9416847  48.8595915  39.6246457  86.6383457
  49.0222740  38.7528467  86.2781620  48.2469845  40.0275278  86.0230160
  79.6053718  68.9497116   5.3171117  79.1451191  68.9450565   4.4778402
  79.0073847  68.5088292   5.9206541 102.7911304 102.1101692  15.4568346
 102.2894977 102.2215536  16.2644155 102.1407532 102.1854809  14.7585733
  24.5563626  13.7234926  63.1341505  23.7379694  13.5262823  62.6785469
  24.3148947  13.7490535  64.0600395  61.1659693  83.8416484  35.7946165
  60.4655288  84.4840792  35.6810529  61.7289590  83.9634707  35.0301321
  66.1238909  24.4343209  85.2088070  66.7016554  24.0781307  84.5338631
  66.4498901  24.0578103  86.0262394  33.4414591  79.0639499  31.0810812
  33.4178208  78.4406617  31.8071516  34.3727537  79.1709545  30.8875044
  46.1989104  93.8902738  24.8918398  46.0822158  93.2344749  24.2044218
  46.9422160  93.5711697  25.4036005  45.0033140  28.0431151  86.4631939
  44.4280386  27.5522184  87.0499706  45.8025312  28.1811857  86.9715405
  15.4333385   1.3908330  16.3450105  15.6548199   1.2464754  15.4250486
  15.4856905   2.3399106  16.4578874  60.8129120   7.0335931  52.0398092
  61.3754940   7.3364061  52.7525759  61.1138344   7.5216156  51.2733126
  14.0195346  30.3591824  44.3929243  13.4813082  30.8139396  43.7450504
  14.8986351  30.7164121  44.2672205  26.2664127  15.2851319  52.4453735
  25.7865214  14.7828162  53.1038713  25.7085609  16.0425889  52.2684765
  30.1316500  37.4837637  72.4132204  31.0299063  37.1824813  72.2768545
  29.6490788  37.1478200  71.6579056  49.8375391  31.5511671   9.5241506
  50.7862507  31.6114738   9.6361406  49.6519171  32.0933619   8.7574728
  90.2643802  76.9106709  74.4627810  90.8719459  76.1775576  74.5609570
  90.6491246  77.4496924  73.7716484  45.4000425  48.7785578  74.5137453
  45.3575516  47.9388475  74.9712467  46.2774086  49.1107321  74.7037983
  33.6959839  55.7906008  47.2330713  32.8071046  55.7740164  46.8783236
  33.6230564  55.3552532  48.0824184  49.3941927  20.1018023  50.4051447
  49.6356964  19.2066109  50.6429338  50.1418591  20.6325889  50.6798935
  54.2500353  17.6278532  80.6036663  54.3189001  18.0047059  79.7264671
  54.7661018  16.8228829  80.5597115  16.9189335 101.5968848  61.2997675
  16.2778546 102.1701815  61.7199802  16.4579512 100.7659509  61.1845493
  38.3957076  26.8724132  84.1350460  37.9710078  26.8139625  84.9908733
  39.2968464  27.1282601  84.3318272  41.7155552  33.1744647  55.1636076
  42.3135042  32.5886273  54.6994019  41.7650938  32.8925991  56.0770226
  31.1396670   0.6382912  50.1124001  30.5934191   0.1293187  49.5134068
  30.5886602   1.3775820  50.3694439  21.4282537  17.4415410  23.9609480
  22.3749137  17.4078703  23.8233423  21.2911439  18.2261825  24.4917679
  96.4237490 102.0213576  85.0003910  97.1624722 101.8321493  84.4218445
  96.1179724 101.1609847  85.2876091  64.3779515  79.6029380   5.3902204
  64.8383545  78.7858656   5.5816705  65.0719069  80.2204278   5.1592214
  83.6575960  68.4766975   2.1812685  83.5131859  67.5374082   2.2957857
  83.3637117  68.6570945   1.2883432  23.0895782   9.3202090  28.2282329
  23.8612485   8.7909800  28.0265570  23.2312536  10.1402307  27.7552390
  38.3226371  22.9965353  71.8652105  38.1588483  23.5626316  71.1109257
  37.9853225  23.4900570  72.6127958  70.7366060  51.4435684   5.3135259
  70.1946543  52.1751499   5.6090028  71.0408782  51.0294296   6.1210783
  28.7620449  26.2253833  64.6233273  28.9072967  27.0028114  65.1625299
  29.3096900  25.5502701  65.0239992  87.9990457  81.3461330  19.9061735
  88.7932943  81.2259438  20.4267080  87.9528641  82.2900536  19.7541578
  17.7848125  57.2712564  49.3422556  17.2303605  56.4987469  49.2325163
  18.3433533  57.2775698  48.5649347  47.4649048  27.3656869  88.7905121
  47.5519466  28.1882811  88.3088493  46.7595673  27.5283504  89.4168282
  34.4922233  49.4938707  61.8609619  33.8959384  48.7736940  61.6559601
  35.3176880  49.2475462  61.4436340   9.0390795  36.7264438  78.2641840
   8.5931063  37.5674987  78.3640146   8.3376735  36.1051488  78.0685997
  35.9315228  18.9493144  80.6246471  35.3168273  19.4650483  81.1465645
  36.5948963  19.5796359  80.3438187  11.4666678  89.5679068  65.5773401
  11.3188769  89.3904482  66.5062618  11.1980892  90.4793762  65.4619312
  58.7941170   7.8993487  73.3812237  58.4813166   7.0054436  73.5202265
  59.5616055   7.9754138  73.9481497  39.0302157  26.7021346  71.0474443
  39.7415018  26.3856506  71.6043472  39.3455386  27.5402856  70.7093525
  41.2481260  14.7672403  72.6285267  40.6382561  15.3959203  73.0146027
  42.0861435  15.2292550  72.6061535  54.9344538  99.7406319   0.8546884
  54.6696805  99.0877750   0.2066858  54.7962569  99.3103388   1.6984708
  23.0002619 102.0998962  74.2857361  23.0735089 102.5692242  73.4547138
  23.3776261 102.6967479  74.9319553  33.8863087   2.4014185  55.9452629
  33.8191867   2.5298309  54.9990940  34.8275590   2.3826608  56.1182499
  64.1735004  39.2807117  25.1604612  64.4845294  38.4600892  25.5426557
  64.7915076  39.9406734  25.4747064  32.2461321  73.1098988   3.8081701
  32.7932357  72.4608758   4.2505224  32.0101281  73.7327459   4.4956262
  65.2193546   8.7852687  63.0603647  65.0609207   8.3388782  62.2285795
  64.6984148   8.2965064  63.6975193  18.7853730  12.4670255  51.8141794
  18.6159992  13.1924212  51.2130594  19.1191351  12.8861964  52.6073551
  79.7198700  81.9222858   0.5698354  78.9740442  81.9580772  -0.0290816
  79.9243807  82.8393176   0.7527502  97.5652241  59.2126009  20.0658186
  96.9371485  58.8591590  19.4358785  98.3628963  59.3530062  19.5556791
   6.6584271  24.4290781  76.2515783   6.8567055  23.4986019  76.1460686
   6.1467159  24.6545196  75.4746866  35.2434831  97.3407200  30.1518114
  35.0874539  97.4290445  29.2115553  34.6708392  96.6233519  30.4232748
  18.9987195  16.9618917  65.7420063  18.1563771  17.1236587  66.1668873
  18.9451814  17.4397361  64.9143410  99.2673754  46.8414941   6.3501032
  99.9242948  47.4068290   5.9437997  98.6612533  46.6299894   5.6400926
  53.1968880  13.7944400  65.7140350  53.2661486  14.2940176  64.9004889
  52.6061583  14.3106139  66.2625170   9.0145618  22.1339130  62.8960705
   8.4720153  21.4707255  62.4693918   8.9250791  22.9092956  62.3419857
  53.9719868  17.2326541  61.6746187  53.6247587  17.8674686  61.0479784
  54.1201830  16.4413881  61.1567688  40.0184579  76.9553426   0.7469995
  40.7479106  77.5306824   0.9774645  39.2599948  77.3438862   1.1828859
  28.0315137  13.0924380  84.7944450  27.7659893  13.4378767  83.9421558
  28.2750702  12.1834898  84.6191597  17.4159431  42.2574234  38.7305832
  17.0381439  42.8208494  39.4058967  17.3049271  42.7504301  37.9176569
  68.8919019  67.4479034  14.8584898  68.9706753  67.9597905  14.0535123
  68.2457088  66.7729547  14.6508558  15.0273442  27.5941396  74.9480438
  14.1823542  27.6851773  75.3884268  14.9501610  28.1410718  74.1662884
  93.2225861  99.0162363  72.6767969  94.1358366  98.7415688  72.5945616
  93.0129113  98.8772579  73.6003494 101.6401123  99.2280844   2.5229128
 101.7124532  99.3339470   1.5743406 100.7282709  98.9749649   2.6668127
  63.5632609  72.0478132   1.1085470  63.3246421  72.9350188   0.8399160
  63.8508414  72.1417168   2.0166834   9.2642719  39.6022296  82.7576542
   9.9827135  40.2011013  82.9611778   9.0946889  39.7395802  81.8256569
  52.0513535  14.7254324  46.8401432  51.5784693  14.9684596  46.0441875
  52.3576069  13.8338935  46.6740179  48.7728739  42.9034710  60.8000040
  49.0927553  43.6540127  61.3006020  47.8299856  42.8902388  60.9643745
  61.4842771  39.1555515  24.7971876  62.4192046  39.1447440  25.0021799
  61.0593413  39.3684092  25.6280573  23.7805748   4.1235727  70.2729845
  22.8346848   4.0858087  70.4147530  24.0856838   4.8042271  70.8728600
  39.3992019   1.1676961  67.5604153  39.8006129   1.7972869  66.9614887
  39.2365408   1.6679910  68.3600903 104.8019860   4.4688026   6.6539724
 104.6298358   3.6605445   7.1369894 105.3667829   4.9790279   7.2344072
  14.4417025 100.7237666  69.1177750  15.3375889 101.0164095  69.2850685
  14.5176531  99.7773646  68.9961720  31.1410356   3.7189397  82.9431915
  31.1934137   3.1257585  83.6926079  31.7122102   4.4507325  83.1765842
  16.5215811   2.3817674   9.3390710  15.9310421   1.6291372   9.3713529
  17.2904381   2.1044723   9.8372610  67.9896616  95.0210073  27.1161230
  68.3713268  95.1404694  26.2464769  67.2431539  94.4394138  26.9722421
  60.2150631  38.5349250  72.7341557  60.4635572  37.6373243  72.9550457
  60.9120989  38.8404489  72.1536160  71.5116453  23.3337235  57.7043533
  70.7092142  22.8682518  57.4684143  72.1012545  22.6493478  58.0209398
  21.8744135  12.1596038  85.1251698  21.1717772  11.5468299  85.3420639
  22.4153733  12.1927154  85.9141541  28.1002498   6.2198609  74.3209648
  28.8176870   6.3884586  74.9317741  27.3752856   6.7509252  74.6505594
   1.9808474  22.6931405  67.2065878   1.8106663  21.8598080  66.7674685
   1.1135650  23.0176449  67.4489689  94.0784954  98.7644556  18.2493837
  93.3054041  99.3282583  18.2754762  94.8052000  99.3436602  18.4788377
  78.0111574  48.0934945   0.3050764  77.0878910  48.3433756   0.2680357
  78.4408354  48.6699173  -0.3268568  48.9479219  51.8306381  29.6276910
  48.1303071  51.4187626  29.9071462  49.5892619  51.1201187  29.6364935
  91.2419209   3.4094278  12.9559190  90.8199582   3.0903570  13.7536485
  90.5484471   3.3958141  12.2962625  32.5500011  13.7417805  31.6197348
  32.3288894  12.8854811  31.9859219  32.1390414  14.3697202  32.2139049
  31.9526005   5.5998296  66.3790512  31.6506267   4.7490168  66.6971111
  31.9608951   6.1572284  67.1571732  36.5512872  25.9269190  65.4265118
  35.9054685  25.4733777  64.8848009  37.3446107  25.9422231  64.8911285
   0.1617535   8.0304805   3.6654432  -0.1314298   8.1019298   4.5738275
   1.1168488   8.0045978   3.7233503  56.3696967  83.0277684   5.4795034
  56.6661428  83.9268544   5.3381021  57.0196174  82.6518658   6.0732515
  16.0883474  19.2850351  60.9393120  16.2980831  19.3842852  61.8679619
  16.4180124  18.4159172  60.7108688  24.5564270  58.2674074  71.7524147
  23.7003446  58.3770752  72.1663332  25.1848149  58.4913254  72.4388695
  35.3384662   3.7815869  61.0917425  36.0634923   4.0802196  61.6407299
  34.9986529   3.0089632  61.5431976  64.0435504  84.9533632  10.6443174
  63.4184383  85.1930406  11.3284357  63.5053896  84.5699361   9.9517877
  89.2049160  95.4587465  84.5497990  88.7704911  96.0290169  85.1840687
  89.3259301  94.6311640  85.0152969  60.0504707  66.2622347   4.7782953
  60.5135273  66.4257946   5.5999143  59.5498513  65.4626861   4.9405725
 105.8489869   1.8030254   4.0025575 106.4517305   2.0918552   4.6877630
 104.9822352   1.8662063   4.4037779  62.9892157  68.0519131  11.0099180
  62.7581786  67.1832624  11.3390024  62.1484064  68.4914842  10.8832414
  65.3386854 102.1970537  22.8346880  65.1238607 102.2866943  21.9062288
  64.9628805 101.3536814  23.0871446 106.2868483  16.9038463  83.3567429
 106.3142405  17.8383493  83.5621357 106.7199914  16.4826429  84.0991783
  37.4368119  50.4197359  74.2037201  37.8497386  51.2832308  74.1936493
  37.4888897  50.1399851  75.1176453  50.2970873  98.5023525  14.7919233
  50.7608138  97.6657370  14.8274381  50.2752565  98.7247732  13.8611753
  46.9279766  39.9956203  80.2538490  46.7721891  39.0513086  80.2692986
  47.1153688  40.2223825  81.1647224  41.1346625  80.9682348  16.4487131
  41.9260638  80.9829452  15.9104688  40.4802291  81.4305332  15.9250410
  34.0137768  19.4349372  39.6714497  33.5484123  18.8384533  40.2578592
  34.6655583  18.8842905  39.2376280  32.9578066  40.1069927  58.2020521
  33.3672762  39.7308230  57.4229145  32.7552533  39.3519330  58.7544012
  36.9126916  35.4169941  53.4403896  37.2926545  36.0979533  52.8852701
  37.6666689  34.9974036  53.8547516  59.1629647  75.5509975  16.2484701
  59.4443439  75.2723291  15.3770311  58.6362814  74.8213818  16.5748079
  59.6008396  15.4164326  79.0678692  60.3519297  15.0508273  79.5352316
  59.2162609  16.0404015  79.6834946  31.6327500  25.3421259  82.7416229
  31.2115264  25.8474422  83.4369373  30.9283853  24.8095179  82.3722649
  37.4487522  98.4421280  18.2585676  37.0423866  97.5966480  18.4489782
  37.1057791  98.6844042  17.3983820  34.7972202  36.8645215  67.4479771
  35.5730271  37.1113205  67.9514074  35.1368403  36.3260007  66.7332125
  53.2154417  22.1976209  87.8907204  53.2943344  22.0579791  86.9470501
  52.8618145  23.0832863  87.9730415  25.2945423  36.4896774  79.2960739
  25.1351357  35.7945013  78.6576748  25.7981014  37.1461010  78.8146544
  32.8578043  23.3712888  76.6996193  33.7814164  23.1220484  76.6672039
  32.3833823  22.5450635  76.6073751  78.0606483  87.7977708  11.2590654
  78.5260223  88.4357717  11.8000085  77.5377630  88.3289960  10.6585462
  67.1919822  86.3111689  17.9248006  68.0750774  86.4421966  17.5795324
  66.7441534  87.1405700  17.7581365  25.2868247  54.6724081  65.2444124
  24.7389030  55.3787756  64.9022675  25.5772281  54.9876642  66.1002827
  43.2502805  77.9843095  30.1338823  43.3967702  77.3454740  29.4362695
  44.0616046  77.9746678  30.6417139  61.5178156  25.1214528  87.3309326
  62.0747185  25.1403069  86.5526390  61.8726969  25.8076882  87.8960609
 103.0421804  96.2262943   4.6479471 103.4856485  95.8939054   5.4283865
 102.2589659  95.6819466   4.5673902  47.9261112  15.8580482  80.4047108
  48.1142902  15.4999292  79.5372009  47.4066734  15.1797259  80.8363342
   8.2073295  34.8248529  49.3437052   8.5900539  35.1706338  48.5373640
   7.5995743  34.1467142  49.0487576  49.3436180  60.6275323  15.4193266
  49.5295976  61.1720076  14.6543462  49.7414969  59.7815880  15.2136476
  57.1262382  50.8116863  11.2132318  56.3841974  50.8743395  10.6118257
  56.9385933  51.4585618  11.8933542  33.0823612  27.2647095  64.3623352
  33.4114647  26.9643736  65.2095175  32.1352339  27.1362448  64.4141054
  61.9009613  53.8144748  11.5224607  61.9403719  53.6140992  12.4576242
  61.8956732  54.7708231  11.4824350  73.9407347  82.3734787   1.8614347
  73.8606285  83.1297663   1.2801893  74.1528105  81.6446355   1.2783010
  21.5176105  12.6574421  46.5266466  20.7191968  12.7106845  46.0013533
  22.2146416  12.5061023  45.8883095  90.5998062  61.9415298  -0.0490420
  90.2713989  61.7524317   0.8299501  90.7270597  62.8901890  -0.0582354
  37.4320269  37.8152442  62.0263004  37.0006251  38.3420706  62.6990414
  37.0712352  36.9362855  62.1424723  52.3019981  17.6295722  73.3256483
  51.7081976  17.3829627  72.6165581  52.0385313  18.5194242  73.5601234
  39.8599505  14.9488914  70.0890017  40.3115463  15.0688112  70.9244108
  40.5639029  14.8377907  69.4499874  55.0432873  10.6612444  84.0617657
  55.9578991  10.3957963  83.9655590  54.8149681  10.4135060  84.9577141
  56.4321947  17.5819564  56.1275244  56.2458754  16.6439641  56.1685991
  57.1800709  17.6518333  55.5342054  21.9409586  96.6346191  89.2901230
  21.3032700  95.9592484  89.0589046  21.8680645  97.2827571  88.5895252
 104.0200590  89.3033245  18.8689287 103.8913082  89.7331837  19.7144277
 103.6681770  89.9225166  18.2293852  45.8874178  26.0820341  76.2832308
  46.6511488  26.6526890  76.3686323  45.8304787  25.6304622  77.1252966
  70.3224818   1.2564889  25.4435976  70.6237665   1.7483131  24.6796758
  70.8846442   0.4821102  25.4668577   7.9679562  87.2765898  77.5939751
   7.2537829  87.7239560  78.0479097   7.5858761  86.4481520  77.3042583
  28.8633609  27.3702431  62.1599483  28.9448428  26.8975949  62.9883194
  27.9284668  27.5611520  62.0840788  19.1865146  12.2287989  81.1748886
  19.1100669  11.5944970  81.8876648  18.2874298  12.3604620  80.8739853
  70.7253956  90.1778963  29.9877317  69.9317311  90.4320386  30.4586275
  70.4237221  89.9739125  29.1025121 109.1518655 102.4354905  62.2319841
 109.2621055 101.9868718  63.0703306 108.8807836 103.3224346  62.4687910
  62.6636599  99.7125318  12.8279455  63.3713816 100.0659731  13.3668668
  63.0792855  99.5094135  11.9899519  93.5902681  99.2675190  31.2310553
  94.5214834  99.2908641  31.4513469  93.1538739  99.0592330  32.0571351
  21.3397813   7.9347175  62.6851654  21.8077970   8.2155168  61.8988132
  21.9159412   7.2848344  63.0875635  88.5198997  59.0293613   2.2009332
  88.9191746  58.6058864   2.9608495  87.8139852  59.5621630   2.5670488
  25.9820342   3.7946689  81.1062336  25.6046629   4.6240500  81.3994026
  26.9280958   3.9351052  81.1447048  89.2031406  40.7060447  13.9408739
  89.1594671  41.5286508  13.4533937  89.5575260  40.9524599  14.7952325
  99.9890302 100.8477524  23.1482942  99.4568561 101.1327675  22.4054678
 100.6564258 100.2810934  22.7613695  18.8407171  60.9805250  84.9357605
  18.5040021  61.2471962  84.0803432  19.5101750  60.3261137  84.7362518
  46.3292074  10.7454693  61.4633226  46.9770432  10.0813460  61.6988611
  45.5016279  10.4032600  61.8013096  49.1793357  37.3118463  13.2140501
  48.9283596  36.7455855  12.4842603  49.0614687  36.7665353  13.9918573
   9.6050224  90.3375986  31.5815122   9.1864548  90.6529429  30.7805212
   9.0095863  89.6662047  31.9145544  63.9668131  16.4054418  77.4282837
  64.3379450  16.3198256  76.5501213  64.7177076  16.6054380  77.9871988
  40.8317995  28.6746502  70.8948517  41.3968420  28.4929180  71.6458035
  41.4323854  28.9623165  70.2072668  36.3887525   2.1830912  45.6634474
  36.5532541   2.1657532  44.7206497  35.7455087   1.4889583  45.8071518
  35.1054454  31.4635110  66.4496279  34.9626136  30.6619167  65.9463644
  34.4514656  32.0766830  66.1141300  30.9878683  35.6278372  75.1056337
  31.4348459  35.4044867  74.2892027  30.1809239  36.0603499  74.8263359
  51.7767096  28.6800933  89.1376686  51.2169218  28.9571834  88.4123516
  52.6169968  28.4759021  88.7272263  33.2591891  32.1900511  73.6718702
  33.3083653  31.3296461  73.2553101  33.5015464  32.0288825  74.5837450
  48.0905914  25.2844644  35.2313995  48.9275312  25.0086856  35.6051755
  47.5332212  25.4537249  35.9909534  56.1439371  41.2551880  78.3665514
  56.2096310  42.2044468  78.2625246  56.9562483  40.9162378  77.9903889
  51.2497054  88.3793023  26.5371378  51.9277452  88.1528500  25.9005697
  50.7728313  87.5617674  26.6801698  46.4851593  94.0947512  37.9268129
  46.1473434  93.6361626  37.1575220  45.7445745  94.6136120  38.2407339
  53.4609795   1.1601597  51.9217968  52.9271984   1.0031615  51.1429119
  53.1547165   2.0031750  52.2561026   8.4640211   2.9052931  79.4127178
   8.9003056   3.5551614  78.8617563   8.9191794   2.0851460  79.2218733
  37.9578710  10.9361935  88.0583668  37.0564747  11.0587072  88.3561993
  38.2069135  11.7851853  87.6930904   3.8987375  96.4202338  64.4599438
   4.5851256  96.5168565  65.1200724   3.1755162  96.0007816  64.9260330
  34.6705604  32.5601864  82.7851963  35.2423072  31.8045259  82.6498604
  35.1961899  33.3108163  82.5086117  33.7679267  49.3613482  86.8064880
  33.5096335  48.6259127  86.2509251  33.1232262  49.3650341  87.5140095
  45.9353828  21.5158105  70.2661133  45.3788376  21.5353560  71.0446405
  46.1924744  20.5979562  70.1784611  77.6421522  78.4879496  33.2810552
  77.8994917  77.7863458  32.6829202  76.7618536  78.7340691  32.9969175
   3.1930837  12.4308387  25.4437883   2.4554190  12.6965705  24.8947199
   3.0897530  11.4843170  25.5420644  47.2197294  32.2871327  84.4154739
  48.0895042  32.1448755  84.0419865  46.8350267  31.4121413  84.4666862
  17.1967959  36.8820786  63.8709307  17.6815379  36.0961699  63.6187267
  17.3305023  37.4896979  63.1435013  23.2203746  37.4185729  66.4996386
  22.9870129  38.3466339  66.5215063  23.6654329  37.2638202  67.3328257
  25.7747698  28.2116771  72.1509027  25.9795690  27.6008224  71.4429903
  25.9668946  27.7235365  72.9515505  45.5263662  33.3820939  70.4925013
  46.0738134  32.9383397  69.8447227  45.3320932  34.2329383  70.0993729
  51.0040903  38.1373930  69.0607166  50.1759434  38.4981608  69.3773460
  51.6542864  38.8064027  69.2749786  29.2490816  23.1288552  82.6708317
  29.6410704  22.8157353  83.4860134  28.3347034  23.3011580  82.8954601
  83.3018087  86.6074636   3.9711721  84.2102407  86.6906383   4.2611082
  83.3058809  86.9380143   3.0728681  43.2655239  15.6031036  31.4541268
  42.9133940  14.7689366  31.7646170  43.8866663  15.3601801  30.7675385
  28.7668347  37.4669719  78.4402704  29.2666030  38.1087446  77.9357004
  27.9992628  37.2820044  77.8991127  64.4624494  84.2887404  15.8506353
  64.6100019  85.2344563  15.8416517  65.1893638  83.9377883  16.3650854
  58.3799124  26.8716860  61.7115974  58.2110786  27.7550268  62.0393658
  59.2763138  26.9073367  61.3778019  45.4073858  51.9658136  88.3259296
  46.3487101  51.8250656  88.2242584  45.1539183  52.4618053  87.5474834
  27.9970884  49.9194384  74.9618340  27.4509978  50.6746244  74.7434044
  28.8770628  50.1711321  74.6816111  50.1764107  41.0238218  81.2346745
  50.2018213  40.0670624  81.2205315  49.2857361  41.2356567  81.5140724
  12.5015616  33.5947299  62.5314379  12.4062312  33.1532788  61.6874838
  13.4458566  33.7123537  62.6348972  47.2865175 102.9490164  14.0453966
  48.1177448 103.2157019  13.6527498  46.7910122 102.5671223  13.3209283
   2.1293172   5.0033227  13.0889280   1.7648872   4.1297237  12.9466589
   1.9985374   5.1682321  14.0227087  45.0315475  36.2956476  84.6089745
  44.8052216  36.8697786  83.8772774  44.2722607  35.7209682  84.7062397
   3.5816870  90.6455067  15.4072435   4.4377956  90.8919242  15.0571115
   3.6997233  90.6546524  16.3570936  63.7978125  30.5421877  77.9352999
  64.1635561  31.2241673  78.4986544  63.7903547  29.7573781  78.4832525
  58.0057238  56.6363689  22.9953439  58.4850405  57.0566347  23.7093885
  57.0879768  56.8486360  23.1653936  19.1243720  50.2212191  87.9786301
  18.7949216  49.6077347  88.6353874  19.3035889  49.6774626  87.2115231
  78.9097046  80.7738498   9.7926672  79.0207504  81.4878824   9.1649301
  79.5131420  80.9851768  10.5050142  53.3577108   9.6548527  73.0619431
  54.1543531   9.4679701  73.5585976  53.6204147   9.5665818  72.1457386
  48.3756876  27.0749903  77.4682760  47.6865625  27.5133967  77.9674101
  48.8801098  26.5961719  78.1259441  30.8798885  17.3929811  70.2642822
  30.5356646  17.4433815  71.1560249  30.1185179  17.1780550  69.7254372
  29.7868037  53.2518673  72.1862030  29.2301822  53.0697155  71.4290905
  30.3216028  53.9984131  71.9162226  32.0741272  49.8015547  83.3142948
  31.4985681  50.1538467  83.9931583  32.9503584  49.8445082  83.6971855
  65.6974792  23.5281372  73.9773464  65.6176949  24.3314004  73.4629202
  65.6021881  22.8231335  73.3369398  63.5275768  96.3610151  25.9717615
  64.2794608  96.5961817  26.5154512  63.1644486  95.5803135  26.3899381
  39.7451901  60.3582811  88.3229923  40.0828648  59.9795532  89.1346359
  39.0357041  60.9355927  88.6050797  23.8568282  32.9932547  87.8917408
  24.4437885  32.4541640  87.3615646  24.3551874  33.7922406  88.0634785
  51.0294269  76.1769798  16.6347845  50.5313681  76.4944461  15.8815344
  51.1061465  75.2337721  16.4908941   7.6600393   5.8482639  13.2915361
   7.6715549   4.9008790  13.1552847   6.9802507   6.1673585  12.6979883
  46.3059568  31.1927438  68.4508848  46.8388987  30.4784203  68.8000870
  46.8122530  31.5301991  67.7119541  85.9795475  42.0453882  70.4249144
  85.9275246  42.6865435  71.1337519  85.1723194  42.1731949  69.9266338
  55.5121826  72.6330712  29.7418077  54.8307835  73.3019808  29.8087938
  56.2052368  72.9376676  30.3275831  66.4756727  26.0232902  79.1207838
  66.1203718  25.4818010  78.4159565  66.7513132  26.8307042  78.6868048
  86.0807537  89.6964362   1.4652784  85.2696584  90.1818731   1.6159780
  85.9986042  89.3644479   0.5712564  91.0863957   6.2911168  12.6972063
  91.1548398   5.3419439  12.8002412  91.8264399   6.5252153  12.1370561
  99.6888603  63.8016510  61.8561506  99.1428639  63.4155798  62.5410318
 100.5004204  63.2948017  61.8826723  33.2421184   5.6671745  72.5864315
  32.2989869   5.8068752  72.5014639  33.3939099   5.6250763  73.5305786
  29.2575169   3.5209122  86.9569588  28.6030722   3.6210963  87.6482582
  28.9943027   4.1497517  86.2850094   3.2679972  13.4171716  19.6386964
   3.9853987  14.0206567  19.4453676   3.6592516  12.7545444  20.2079733
  55.5718231  42.1669245  86.2928867  56.0954714  41.9094515  85.5341148
  54.6765757  41.9199514  86.0610104  99.8971390  81.9335893   3.0831010
 100.5271457  81.5808990   2.4546583  99.8398136  81.2649825   3.7656744
   4.0277940  63.4427929  84.1586208   3.4519175  62.9069901  83.6131763
   4.2141235  62.8945208  84.9207973  60.2437687   5.7439321  76.3775635
  60.4571629   6.0991132  75.5146980  59.5584154   6.3224906  76.7119169
  11.3069224  49.5244932  89.2022705  10.8126903  48.9047718  88.6656952
  12.0235956  49.0060902  89.5681477  47.7849722  53.7811661  76.5080786
  47.4095201  53.1303596  77.1011353  48.3094311  53.2695532  75.8920956
  46.5664148  29.5773792  64.7003078  46.2243414  28.8695121  65.2463293
  47.4698544  29.6920323  64.9950600  96.7105745  78.4449199  21.9266851
  97.0187925  78.8425329  21.1123521  97.5031255  78.3258918  22.4500711
  45.4988861  30.7779527  51.2325096  45.0535393  31.4485383  50.7146168
  45.5104065  30.0063491  50.6661797  53.9371634  53.7971830  66.8229246
  54.3838120  54.2612696  67.5309944  53.0107737  54.0024948  66.9489479
  73.6125683  95.1712730   5.5103643  73.0914067  94.5567396   4.9936731
  74.2403220  95.5363014   4.8867376  66.6549635  21.8446279  52.5879431
  67.2163248  22.1999121  53.2770586  66.4933395  20.9393573  52.8536367
  -0.0905504  86.2466171  16.1878164  -0.1667156  85.5165222  15.5734975
   0.8442650  86.4519790  16.2010439  51.1973381  28.5741138  72.8455257
  50.4623604  29.0926671  73.1728506  51.6299582  29.1456246  72.2111368
  45.2294064  34.3547583  61.4452982  45.4179668  34.3120813  62.3827696
  44.4133949  34.8517704  61.3875008  50.1057863  22.2675014  54.8210859
  49.6311522  21.7755628  55.4911280  50.4667759  23.0211306  55.2879524
  37.7997756  33.1992102  65.0874233  38.2179856  33.3732510  65.9306526
  38.4106112  33.5511756  64.4399405  25.0811291  42.7043247  82.9205608
  25.2068877  42.7581358  83.8679409  25.1178551  43.6130524  82.6220703
  68.2471848  28.3239818  75.5538273  68.4257698  27.3840141  75.5821085
  68.3280802  28.5554171  74.6285582  25.4632688  42.2389126  85.5496216
  25.4382324  42.0686531  86.4912224  25.8364201  41.4424038  85.1720428
  17.1403050  28.4794235  84.2751598  17.9819620  28.1899500  83.9229488
  17.3684895  29.1439652  84.9251938  92.0323061  93.7746218  12.3841436
  92.2718023  93.4073809  11.5332563  92.8049730  94.2689779  12.6576955
  18.3576071  28.0723476  72.9417706  18.5046530  27.1440458  72.7604723
  18.2854009  28.1217194  73.8949633  44.8905230  46.9029236  72.3089361
  45.3800392  47.6566219  72.6384020  45.5431223  46.3769722  71.8466377
  54.1119289  38.3996487  73.8253927  53.5791969  37.9651523  73.1593275
  54.0517235  37.8279090  74.5907164  28.5964464  83.2020309  23.1020124
  29.1196655  82.8363922  23.8153036  29.2357575  83.4221080  22.4244554
  42.4812603  54.1622782  88.6750317  42.1864367  53.2788086  88.8959312
  42.8622055  54.0761471  87.8011417  56.0135317  43.9383745  77.5724697
  56.3751888  44.7963381  77.3503590  55.0943661  44.1113281  77.7760744
  58.3475827  76.9806507   1.9771059  58.4918164  77.8223160   1.5446336
  57.4225878  76.9931176   2.2229917  16.9382620  13.6133575  80.0508785
  16.3759696  13.1607366  79.4222355  16.3459551  13.8783336  80.7545757
  67.0900606  88.4770801   7.3600252  67.4779962  88.3930018   8.2310445
  66.2123846  88.1063154   7.4519308  54.2940521  56.9827318  59.3036985
  54.2459297  57.7298880  59.9000835  54.1476297  57.3591518  58.4358835
  78.2177423  73.2603529  11.7206915  77.8599428  73.4769156  12.5816782
  78.2412075  74.0957668  11.2540395  73.9031385  89.1019919   1.8724306
  73.7926434  88.1980470   1.5776308  74.7804188  89.1237095   2.2547109
  88.6088680  73.9148453   4.4298036  88.0862736  74.1703990   3.6696584
  89.1503595  74.6816566   4.6169241  69.2657923  85.6564453   0.9093816
  68.7885903  84.8369410   0.7793005  68.8069915  86.2907865   0.3586157
  21.0153795  86.1085640  68.6381149  21.3115240  85.6996404  67.8249073
  20.1107718  86.3664781  68.4609127  60.0224209  25.9826660  69.3780613
  59.5223284  26.6214609  69.8860788  59.8228168  26.1929798  68.4658337
  77.4350713 101.6603544   8.1563718  76.4781784 101.6382292   8.1665189
  77.6552891 102.5761917   8.3265932  48.3195003  23.1850330   6.9865377
  48.0281528  22.3078720   6.7376764  48.2722553  23.1908599   7.9425485
  71.0269998 101.0110882   9.0099867  70.7179497 101.9098261   8.8959940
  71.8427514 101.0990408   9.5029791   2.2711811  89.6013763   2.4229772
   3.1040917  90.0556472   2.5499685   2.4756250  88.8922575   1.8133981
  92.1896553  47.2086573  86.1191463  92.5957012  47.7292919  86.8121910
  91.3368320  46.9594145  86.4752388  52.5683880  54.8567295  62.7508688
  51.9328785  54.8814631  63.4662390  52.0351028  54.7869968  61.9590521
  48.4831476  25.7104349  67.0776892  47.7713299  25.1953721  67.4575090
  48.9448166  26.0745192  67.8330278   6.4997411  51.6852427  84.0161705
   5.9343100  52.0447016  83.3325768   6.0501814  51.8964005  84.8344231
  72.4489330  66.7349067  12.6603372  72.0871018  65.8854177  12.4079950
  73.2710575  66.7989948  12.1742971  45.3966045  33.8366628  53.4628201
  45.8965588  34.2540264  52.7613306  45.8817768  34.0471435  54.2606544
  69.6057987  44.7256041  78.2826471  69.0665770  43.9385509  78.3602524
  70.5063438  44.4016933  78.3006668  43.8179636  29.7557521  45.4553127
  43.5578203  28.8445234  45.3203344  44.6153069  29.7016788  45.9821463
 102.7213213  14.9383346   8.7600763 102.8077433  14.6771375   9.6768816
 101.7767379  14.9777404   8.6102731  84.5186541   9.5386258  13.1186254
  84.6626494   9.1141263  13.9643819  83.6663291   9.9652377  13.2067926
  45.8642626  40.7563686  76.7120457  45.5840492  41.6641426  76.5951967
  45.2477932  40.3955412  77.3492289  91.0839676  71.7735413  27.5062807
  91.7268251  71.1136904  27.2463377  90.3025268  71.5606382  26.9961317
  11.4162135  28.8325763  78.9772940  11.4809585  29.6013808  79.5438433
  12.2667229  28.4013796  79.0605688  98.7858150   1.1663333  -0.0456946
  99.3080924   1.0423414   0.7468183  97.8907797   0.9581939   0.2222974
  13.0520761  48.6077595  72.7928162  12.9748380  49.2334604  72.0725632
  13.8862002  48.8240480  73.2095718  60.8174753  21.0722375  65.1288652
  59.9379587  20.7951689  65.3856039  61.1315823  21.5896749  65.8703709
  49.7560215  49.2431641  79.4141150  49.7793293  48.7813711  78.5760021
  48.8324404  49.2367601  79.6655035  55.1399755  25.4592681  79.8882151
  55.9376383  25.9610224  80.0561714  54.6876097  25.9509516  79.2027664
  50.2877522  49.9690962  55.8513069  49.6212053  50.6112146  55.6071138
  51.0791445  50.4880905  55.9947205  55.4290152  46.0649109  66.2101555
  56.0619068  46.6189480  65.7532930  55.7126808  45.1706171  66.0204172
  84.9335550  98.7115362  21.5729768  85.2665066  99.4922426  22.0155580
  85.0030826  98.0169466  22.2279127  95.1596998  97.0125654   8.4161050
  94.9683880  96.0883406   8.2565935  95.4184650  97.3547390   7.5604208
  38.0712676  31.8601131  77.2008848  37.4426198  31.2651682  76.7921352
  38.0480957  32.6455188  76.6542292  52.1038580  48.2189655  87.4490166
  52.7633715  48.9039087  87.5591373  51.2711143  48.6902428  87.4231243
  31.3828492  24.6062803  41.3405800  30.7366586  25.3043222  41.4473820
  31.1788130  24.2192268  40.4892349  43.8845699  98.6716488   7.6149709
  44.2825543  98.9956167   6.8069608  44.6239989  98.5297993   8.2060392
  56.0198832  39.7713804  80.6250477  56.9568920  39.5811892  80.6705093
  55.9288406  40.3467035  79.8654747   3.3038195   1.6065589  20.2482183
   2.4317535   1.8714801  20.5407007   3.2033237   1.4463035  19.3098886
   5.5871996  13.2760421  10.7369096   4.6910509  13.6124078  10.7377679
   5.7353004  12.9867212  11.6372354  67.2262095  52.4864407   1.0176523
  67.0972704  51.7942430   1.6660841  68.0729913  52.8714275   1.2434347
  45.4862738  15.0115085  87.7906227  46.1583614  15.5995405  88.1352234
  44.7059107  15.5600989  87.7111721 104.7988746  12.7581874   7.2536714
 105.5418155  13.3611671   7.2798593 104.5120881  12.7709905   6.3405283
  79.5870804  91.9150761  11.8079717  79.7266077  92.5333956  12.5252206
  78.6988186  92.0991352  11.5024526  31.5638090  83.8597082  71.6546202
  31.4889694  84.3020379  72.5001812  30.8745648  83.1956731  71.6698503
  62.4219083  76.3037374  25.8922918  62.6537966  77.0167258  25.2972181
  61.5299867  76.0631087  25.6416757  81.0152649  69.8297301   9.4315775
  80.7038997  70.5927434   9.9184950  80.5241321  69.8529473   8.6103017
  18.2442093  17.7910995  53.9779902  18.6336267  17.0027685  54.3563032
  18.6434746  17.8630960  53.1110239  26.1047626  51.0519552  84.4703865
  26.6110635  51.0117102  85.2817249  25.2451229  50.7037115  84.7069836
  14.3978906  54.2313623  84.1246796  15.0801969  54.6555662  84.6450043
  14.3484843  54.7529697  83.3236122  42.0274448  45.0156307  79.1891623
  42.9474115  44.9482679  79.4448090  41.6641760  45.6800175  79.7747087
  11.0449564  54.6751070  80.9897518  10.8973634  54.2708826  81.8447590
  10.9462368  53.9567137  80.3649330  57.8814148 100.6625870   8.3848341
  57.8482102  99.8368814   8.8678796  57.4534224 101.2950590   8.9619310
  43.1544304  41.7241144  64.6388626  42.5243568  42.4412394  64.7093534
  42.7856302  41.1460400  63.9709902  57.3387671  23.6985517  33.9626694
  57.1221733  22.7664661  33.9394879  58.2894182  23.7263012  33.8543558
  49.6424770  24.5686936  64.8502207  50.5018091  24.9286842  64.6307230
  49.3855858  25.0313902  65.6478119  64.2197418  31.3528490  80.5037117
  63.7004757  31.9289303  81.0647202  64.3788433  30.5760860  81.0399628
  78.6372541  25.1417115  34.2673738  78.6379312  26.0200408  33.8868864
  77.9136776  24.6921471  33.8308389  51.4003944  41.9516611  64.9913836
  51.1430454  42.2661972  65.8580303  51.8246555  42.7044487  64.5796204
   2.9109200   1.7520181   5.8208139   2.0376381   1.3600866   5.8209760
   3.1324824   1.8429128   4.8940618 101.2175916  65.8033100  13.3348043
 101.1799501  65.3387227  14.1708524 101.9395469  66.4233401  13.4376390
  68.0469822  83.0640128  11.7849691  67.7594756  82.7188375  12.6302107
  67.4325966  82.6913979  11.1525781  22.5932407  38.7337947  72.6798010
  22.0622087  39.2304778  73.3023262  22.4344921  37.8176188  72.9070807
  55.3618431  40.6881618  73.4223604  54.8961735  39.8553300  73.3463573
  56.2862635  40.4541492  73.3391619  21.1097002  54.5030212  83.2367611
  21.1248064  53.5763359  82.9974842  21.7726493  54.5841837  83.9224339
  23.7470675  23.9189816  58.6472273  23.3456516  23.5090828  59.4134378
  23.0081797  24.2606068  58.1436682  63.3313942  21.0825086  69.0893126
  63.2548618  20.2949882  68.5506248  64.0395975  21.5824413  68.6834192
  79.9410677  35.1161170  60.0736570  79.1947222  34.8649168  60.6178045
  80.6589127  35.2407479  60.6944561  51.3167429  44.2717123  72.6379108
  51.8181610  44.2689657  71.8225527  50.6602573  44.9570417  72.5130606
  31.6065788  50.0106382  88.6734200  31.4747286  49.0627384  88.6552143
  31.0674715  50.3134537  89.4041061  30.4858756  14.5101929  66.3919020
  31.3882518  14.5532668  66.7082834  30.4712820  15.0894713  65.6300259
  56.9508410  29.8323298  85.1526260  56.8866110  29.9895263  84.2106152
  56.2322998  29.2297173  85.3444386  41.6348839  48.3008528  75.4158211
  41.5557098  47.3614120  75.2502680  42.0230198  48.3583212  76.2889099
  87.3074507  93.1701305   8.5412939  86.6862034  92.6921776   9.0906961
  86.8144439  93.3783844   7.7476938  25.3806353  57.2595215  87.0093155
  24.8025417  57.0986509  87.7550793  25.5106735  56.3963699  86.6165066
  64.7911929 100.1842144  15.8998354  64.9267696 100.5231455  15.0149782
  65.5754899  99.6661261  16.0806520  17.0682168  11.0225499  48.9330435
  17.0177805  10.7595456  49.8520184  17.9983222  11.1917686  48.7830448
  54.4476604  48.9053726  65.2957487  55.1606464  49.5176506  65.4773903
  54.8839951  48.0658197  65.1508284  19.0242517  50.4220438  63.7980795
  18.6061215  50.4942083  64.6560955  18.8733828  51.2726355  63.3858156
   9.7230315  59.8805428  83.4329510  10.0466955  59.0526915  83.7881088
   9.8680842  60.5152273  84.1346359  60.7584308  78.1949809  34.7520406
  61.1207651  78.6872080  34.0153940  59.8661183  78.5281423  34.8469789
  45.6856394  24.3749833  74.2373133  45.6080532  24.9359179  75.0090408
  46.5569067  23.9854884  74.3109417  49.3482065  48.7214041  66.8233538
  48.7252522  48.7487936  66.0971260  50.1871681  48.5144758  66.4115810
  89.4770931  61.0573682  32.4676950  89.7419332  61.3114384  31.5836485
  88.9231704  61.7778733  32.7681596  74.7691441  31.8816781  64.2828226
  74.6095419  32.1222186  65.1954556  73.8988400  31.8609929  63.8848639
  19.7690892  25.1538491  72.5101757  20.6122231  24.9704099  72.9245520
  19.9467599  25.8857250  71.9193935  23.9385366  56.2128782  63.5432434
  23.9650416  57.1666050  63.4662437  23.4089828  55.9271097  62.7988386
 102.2572222  92.6856684  69.2706966 102.3076620  93.4609180  68.7115240
 101.8589606  92.0153605  68.7154436  60.1642942  23.9567542  74.3686676
  59.9642897  24.2982554  73.4971142  59.6755791  23.1354499  74.4220543
  66.0683845  61.4040491   6.0199125  66.9139789  61.5465167   6.4452417
  66.0095643  60.4543313   5.9159525  44.1731589  49.0251724  19.7232206
  45.0046926  49.4932495  19.6478040  43.9206283  49.1317490  20.6403310
  14.6539450  50.6294680  85.6921482  15.1573765  50.0442219  85.1262188
  15.3107584  51.0483360  86.2483692 108.7468504  93.1745508  14.1414888
 108.1830381  92.4010208  14.1397054 109.5573019  92.8792503  14.5564611
  36.6234239   1.3349763  28.9475782  36.2563881   1.8530361  28.2312448
  36.5480455   1.9011346  29.7157056  48.8846445  40.6661272  71.7358398
  48.0829954  41.0196781  71.3503695  48.8902235  39.7453260  71.4744473
  73.8336705  69.6680966  21.8379362  73.1504415  70.3384104  21.8274839
  74.0040158  69.4852951  20.9139307  46.4671135  24.4795203  60.6571722
  47.2483063  23.9445972  60.7979679  45.8606815  24.2033529  61.3443422
 101.7514442  88.2237819  20.8778818 102.1875643  88.1156376  20.0326975
 102.3345636  87.7957776  21.5047891  43.7244368  22.8655815  85.9824848
  43.4141111  23.0260897  85.0913239  43.1101322  22.2233391  86.3379860
  57.6926994  54.7326946  67.5878334  58.3342218  55.2812004  68.0393076
  56.8444014  55.0809383  67.8623295  21.1045036  77.0307472   5.2722795
  21.3199196  76.1365393   5.0072820  20.9026108  76.9619658   6.2054117
  35.0096679  34.5270514  79.3722296  34.1359782  34.5658660  79.7613144
  34.9786973  33.7686038  78.7891102  44.8727512  14.6135461  53.5963297
  44.1798544  14.1891277  53.0903673  45.5858660  13.9751506  53.6083698
  31.5567899  52.3821306  82.7809048  31.6637707  51.4327526  82.8397655
  30.6090856  52.5160408  82.7683163  12.5002825  54.8893499  58.1354189
  13.0797696  54.8472214  58.8961077  12.9838133  55.4106236  57.4945545
  45.1642895  33.1962276  34.5836926  45.8781338  33.5409951  34.0472293
  45.5156088  33.1892800  35.4740644  29.4955187  77.8423527   6.5804441
  28.7360226  78.4215072   6.5173872  29.1478555  76.9702604   6.3938482
  43.2213449  21.3442707  59.1152573  43.8706875  22.0020080  58.8663292
  43.3019066  21.2762356  60.0666332  62.6571703   4.2889076  56.8579674
  63.0126953   4.6339199  56.0389423  61.7761374   3.9919215  56.6303444
  79.4602464  82.8081158  25.8962495  79.3876003  82.0861319  25.2720029
  80.1576160  83.3606770  25.5432851  71.4241527  87.5499132  20.5972631
  70.4932712  87.3270324  20.6013830  71.7527746  87.1908071  19.7730787
  60.0966358   4.3540826  82.5730896  60.3592443   3.8792259  83.3616161
  60.5834961   3.9313531  81.8656349  20.4971623  46.9153738  63.3410120
  20.7981348  46.9834900  64.2471075  20.5247068  45.9779739  63.1493139
  33.7535262  13.8955998  66.4074850  34.6377301  13.8054907  66.0521078
  33.4846950  14.7801566  66.1594486  48.3729156   6.3898412   3.7708910
  47.6625427   7.0012609   3.5765512  48.7738975   6.2104312   2.9204424
  67.1147633  27.2035336  60.9260941  66.9505501  27.2566485  59.9845839
  68.0683136  27.2313595  61.0048532  36.5448637  86.8513587  22.0785577
  36.5873956  86.3952830  22.9190405  35.6668584  86.6621902  21.7475660
  50.3992748  54.5910311  64.4761562  49.7786570  54.3422842  63.7911797
  50.1397705  54.0691900  65.2354813  33.4710073  33.3276820  50.5818176
  33.2380342  32.4024677  50.6588507  34.2750978  33.4156132  51.0936165
  52.2697258  20.7811761  41.9962645  51.6862249  20.1423621  42.4057436
  52.6124954  21.2954855  42.7271700  32.2392440  48.8780355  80.4322147
  32.2142100  49.2039537  81.3318634  32.8579879  49.4556952  79.9853325
  87.8553270  91.1842611   6.1494882  88.0837606  91.9010809   6.7412813
  88.5473322  90.5359748   6.2802084  44.4242764  17.9431570  64.6079922
  43.9118910  18.6538136  64.9935579  45.3297186  18.1457019  64.8433256
  98.2622932  97.6419714   4.8563440  98.6929964  97.8743484   4.0337045
  97.6023983  98.3238390   4.9821432  42.6167916  95.7250860  10.6268270
  42.8818034  95.3553560   9.7846277  42.3551493  96.6228941  10.4225690
  48.2415867  24.9235702  40.9454346  47.6974487  24.7084427  40.1878977
  48.3546638  24.0906644  41.4033794  51.8131256  38.3992195  61.9696712
  51.5910482  37.7385259  61.3136244  50.9677029  38.6959910  62.3064423
  24.5806074  55.7706785  83.6460781  25.2313089  55.8754206  84.3402290
  25.0574327  55.9658670  82.8393745  54.8638868  54.0141964  64.1439962
  54.1123056  54.3112135  63.6310244  54.5499992  54.0097618  65.0482559
  50.9083176   0.6467593  55.4064655  50.6569004  -0.1855581  55.8067989
  51.8617630   0.6001689  55.3357077  37.5546598  24.6611214  74.0667915
  37.0951271  25.4539895  73.7903500  36.8848300  23.9775681  74.0490818
  85.5915521  72.5021055   2.7343423  85.9111332  72.0577720   3.5196264
  86.3349127  72.4872830   2.1314962  56.8735908 101.0412863  18.5761888
  56.7516016 100.1612690  18.2199247  57.6354669 100.9637192  19.1504438
  24.8273310   2.1588460  14.4558008  25.7486709   2.1090261  14.2010744
  24.5159324   1.2550727  14.4062574  35.9134793  21.9901228  66.9693565
  36.1869431  21.1552811  67.3494768  35.5423069  21.7558455  66.1187220
  76.2504243  72.3027208   6.0111673  75.5340432  72.9328373   5.9338052
  75.8328937  71.5036705   6.3327463  51.1931276  48.6650562  84.0373516
  52.0850277  48.9352083  84.2558956  51.1755133  48.6486721  83.0804539
  18.5116374  31.8522191  82.9659462  19.0908980  32.2813010  83.5956955
  18.9025855  32.0418811  82.1130562  71.1338018 102.7429274   0.8550604
  70.8476876 102.1930483   0.1256712  70.4022311 103.3417442   1.0049017
  58.0736065  27.5023198  70.8221579  58.5307598  27.9458857  71.5366459
  57.2691107  28.0070376  70.7026911 104.6244787  82.4741700   3.3931501
 104.6008371  81.5203884   3.3158357 105.5386423  82.6756814   3.5929830
  44.0667137   2.0355693   5.4258402  43.1606993   2.0863811   5.7304533
  44.2302593   2.8858606   5.0178106  43.8319302  29.7272325  79.8778486
  43.1662798  29.0819287  79.6396732  43.3486366  30.5488491  79.9650526
  24.1352066  35.7672111   1.1732443  23.2652267  35.4832355   1.4538152
  24.5140680  36.1804286   1.9490965  61.5296125  63.8726616  78.0746031
  60.9309483  63.2103014  78.4197283  61.7265272  64.4322348  78.8258219
  37.5842094  39.4633126  76.4547873  37.2203660  39.8462415  75.6565285
  36.9022822  39.5912981  77.1142006  51.8705034  36.3426375  67.0674276
  51.4537954  36.8224311  67.7832413  51.4645386  36.6942930  66.2751102
  53.5604906  51.1236095  74.6681213  54.1321230  50.5535603  74.1538143
  53.7770176  52.0083618  74.3739080  72.9421591  85.1775244   3.1844289
  73.6643838  84.6637681   3.5459287  73.3206462  85.6221416   2.4259527
   5.9434494   8.0356828   5.5138643   5.5107244   7.3365203   5.0238092
   6.6037020   7.5855867   6.0408456  69.7234869  45.8051205  81.3498783
  69.4263363  46.6089344  80.9234905  69.6032476  45.1242876  80.6878853
  46.3704252  44.6300316  71.0482168  46.9732332  44.2368698  71.6793060
  46.1761999  43.9246464  70.4310131 103.2159138  52.3967695  83.0007648
 103.6433411  51.9264221  82.2850132 103.9334583  52.6579046  83.5779762
  50.0921488  96.5700245  41.3924074  49.8356867  97.4824047  41.2581825
  49.3365097  96.1696053  41.8224144  88.6388468  96.1072853   3.2401998
  87.9472088  95.5296209   2.9174287  88.3059286  96.9907883   3.0826624
  61.6566420  51.2508535  85.2104950  61.3751888  52.0519638  84.7686386
  62.3622608  51.5334654  85.7922745  98.3548641  45.1275682  81.6101646
  98.4887695  45.2632141  82.5481987  97.4532032  45.4083014  81.4538670
  39.1396126   7.1515504  31.4829786  38.5420164   7.8980867  31.4405687
  39.0293344   6.7083827  30.6417425  80.0654386  91.3084438   7.8380449
  80.0667690  90.6217626   8.5049017  80.7363580  91.0357764   7.2121389
  80.5146122  94.7810459  52.8309679  80.7641888  94.7634029  53.7548923
  80.1705933  93.9045143  52.6590157  39.7405800  27.5023261  45.5028017
  39.9073252  28.2483426  46.0788973  39.9543032  27.8236762  44.6268518
  27.8029118  87.7868441  33.9448221  27.2228298  88.3917048  34.4072969
  28.5185204  87.6242164  34.5593794  54.4817686  17.6453006  71.8737364
  53.7369061  17.4713242  72.4491930  54.5307589  16.8760645  71.3061905
  72.8199434  54.2922926  84.7770596  73.7170410  54.5050526  84.5197964
  72.8844786  53.4243202  85.1754189  37.1075106  33.9946747  81.3351727
  37.5224876  33.1787062  81.0554886  36.6311121  34.2982292  80.5624294
  69.7725391  73.9647102  73.3991718  70.2163315  73.1518459  73.1572437
  69.6815205  74.4424391  72.5747204   8.0484066  80.1677754   6.6323335
   7.6670227  80.8907631   6.1342676   7.6795826  79.3803766   6.2320764
  80.5022691 102.1090773  16.0610635  80.0822090 101.8786981  16.8897398
  80.2544426 103.0216244  15.9124715  25.0560236  46.1146116  80.3961563
  25.4018497  45.7575369  79.5781517  24.9774790  47.0545197  80.2329254
  25.3314648  87.6561048   8.8350542  25.7496510  87.7009681   9.6949060
  24.5139275  88.1426433   8.9406545  61.8578243  78.6975956  88.4417629
  61.0939407  78.5229349  88.9914989  61.5247011  78.6471987  87.5458145
  57.0004225  46.4082479  77.3735905  57.7718449  46.6243029  77.8974819
  56.7408180  47.2391605  76.9755650  77.3095344  99.7008350   1.3743169
  77.8261446 100.2928045   0.8275755  77.7103351  99.7644499   2.2412260
  53.1145144  44.8470831  67.2745991  53.8933945  45.2648067  66.9070625
  52.3827267  45.2567339  66.8131828  62.1280193  49.2569542  88.4871578
  62.4428511  48.6628485  87.8058720  61.4127970  49.7393703  88.0724716
  54.8797306  36.6601459   6.6821726  55.3206333  37.2585098   6.0790212
  55.4457935  36.6376392   7.4537332  87.1302866  73.1331017   6.4611299
  86.2844251  72.9668405   6.0450704  87.7598499  73.1126812   5.7403906
  88.4050751  43.5008192  64.4910622  89.0588474  43.6293221  65.1783037
  87.5944233  43.3123875  64.9638748  38.1989932  54.7718859  84.4108105
  38.5438704  53.9078808  84.1854477  37.4678683  54.9028778  83.8070488
  91.3972257  62.9306760   7.2931821  91.1535047  63.7368110   6.8382318
  90.8655475  62.2513941   6.8782957 103.9358423   9.5899478  20.7052000
 104.7819541   9.8314897  21.0820062 103.6322043   8.8608304  21.2459619
  42.5145149  58.5897017  82.3734951  42.5775099  59.1607428  81.6078758
  42.2336340  57.7455759  82.0202446  67.6851606  64.3267822  76.6976881
  66.8433809  64.5279551  77.1065426  67.9477024  65.1445436  76.2751102
  52.2573853  38.0166984  85.2771854  51.9104385  38.8888550  85.0895596
  52.0059538  37.4905229  84.5181370  71.9106340  61.1438274  82.3067856
  72.6639318  61.0680056  82.8924656  71.8664503  62.0757627  82.0928192
  50.3336668  78.3232164  72.0128250  50.9333181  78.7349653  72.6350117
  50.8654213  77.6624537  71.5691328  59.2170118  80.7338384   3.3496435
  60.1669883  80.7881859   3.2456167  58.8737367  81.4198330   2.7771051
 102.9369568 100.6146219  19.4948728 103.7946533 100.9446075  19.2271097
 102.3329138 100.9539678  18.8344152  21.0858425  11.7459623   6.1222322
  21.7617067  12.2646181   5.6858499  21.0591921  10.9250633   5.6306608
  66.8390131  63.7571001  82.6491261  65.8853102  63.7020302  82.5887299
  67.0711184  64.5047188  82.0982838   2.6069268  22.3464147  16.4514024
   2.2711572  22.0707265  17.3043306   2.4264726  21.6059820  15.8722360
  84.2483044  88.3785152  75.2523804  83.5976791  87.9778957  74.6758175
  83.9956856  89.3008232  75.2942276  17.8274235  31.2824813  19.7761877
  18.4986481  30.6577388  19.5016153  17.0232805  30.9665767  19.3641336
  48.4152889  82.9222107  57.9581499  48.1420851  83.7947655  58.2414007
  47.9637527  82.7886105  57.1247864   0.1551113  84.3488386  23.4092481
   0.8084831  84.7915008  23.9508970   0.4894457  83.4572890  23.3113058
  60.0789642  75.8552313  51.1336231  60.7080269  76.2645292  51.7277527
  59.3129969  75.6792116  51.6800117  81.1211586  38.5980225  71.6228056
  80.3502083  38.3843493  71.0972452  81.2771511  39.5269489  71.4525318
  37.0456314  87.0714092  57.0494366  36.8863368  86.1685467  57.3245573
  36.8005395  87.0866680  56.1242723   6.6729174 100.0559690   4.7457559
   6.1008558  99.4934490   5.2678163   7.3897514  99.4826343   4.4743307
  85.4171562  76.4116812  84.9604988  85.3300190  76.5531063  85.9031773
  84.5187950  76.2932968  84.6520233  72.6089096  52.4368477  86.9664764
  73.1381321  52.6595306  87.7323532  72.7108955  51.4897919  86.8720245
  66.4036259  63.5360423   4.1368730  66.5197929  62.9933254   4.9167497
  65.5056843  63.8609783   4.2027815  71.0396957  66.8835354  82.1547699
  71.5376711  66.3517666  82.7756310  71.4571047  67.7442932  82.1879673
  65.2435684  68.8389969  54.2148924  66.1903095  68.6992550  54.1952991
  65.1081181  69.4618177  54.9290133  77.5587749  40.0218678  85.8651257
  76.6239929  39.8248124  85.8052349  77.6942301  40.7330704  85.2389622
  43.8645649  77.9041004  64.4335985  44.2488384  77.0280886  64.4677258
  43.4482384  77.9496574  63.5728836  59.2263412  97.6838875  75.9152889
  58.7772560  97.4007797  76.7117786  58.7558126  98.4714127  75.6420708
  59.4888353  67.2953796  75.5826521  59.0757895  66.6558266  76.1628246
  60.3982496  67.3350430  75.8786631  28.6364874  40.9232227   3.9728124
  29.4638857  40.8059589   3.5060175  27.9640325  40.7135097   3.3246858
  60.7613134  65.7170200  72.0559883  61.3679457  65.1069498  72.4755621
  60.4482889  66.2725306  72.7698898  64.7047853  89.3409538  86.7335606
  65.0046778  88.6997128  86.0892773  65.5051804  89.7726154  87.0323372
   5.0839554  60.2237082  64.8836708   5.0112950  61.1173105  65.2189732
   5.0456082  59.6711159  65.6643105  47.3007202  70.2959776  62.7709150
  47.5745869  71.2125111  62.8054714  47.3368311  70.0700951  61.8414497
  71.9425488  56.5496254  85.7781887  70.9926510  56.5763283  85.6632328
  72.1950722  55.6749010  85.4826736  60.4142332  75.7183409  54.4893312
  60.6463289  74.8714352  54.1083860  60.4115009  75.5634165  55.4339075
  71.3776207  76.2030888  76.6477108  70.5978489  75.9962893  76.1325216
  72.0661974  76.3375378  75.9965420  89.3642139  63.5786963  61.4103079
  88.8118935  64.3420887  61.2417650  89.2449856  63.0221987  60.6406832
  49.1520771  15.3419343  19.7620351  49.2668232  15.4269019  20.7085188
  49.8019584  14.6900264  19.4995458  18.2894669 102.6726225  15.1795347
  17.6771603 101.9887808  14.9080999  18.1518517 102.7565887  16.1230619
  55.8303452  82.0245361  87.4095345  56.2912560  81.2077522  87.2180748
  56.4423418  82.7121162  87.1469879  50.9380674  56.2339067  83.8950729
  50.2346611  55.7404470  83.4732342  50.7748461  56.1298084  84.8324966
   0.2423223  33.0109779   1.0214193   1.0977134  32.7012149   0.7237680
  -0.2724067  32.2131149   1.1427267  23.3189567  24.2851774   1.7641218
  23.0290731  25.0918476   2.1901281  23.1684860  24.4394294   0.8314855
  93.3066438  92.4492290  30.1306875  93.8889765  91.8981913  29.6077306
  93.7057375  92.4614313  31.0006292  61.3114342  17.1486703  40.3621633
  60.5556949  16.5799419  40.2150972  61.9883522  16.5640966  40.7031782
  59.5007086  93.0793476  64.8982048  59.4828939  92.2665501  64.3929529
  59.8163080  92.8169441  65.7629490  78.6734104  56.0900164  82.2704887
  79.0527582  56.4190674  81.4555931  79.1580248  55.2848244  82.4522972
  35.1120886  32.8593532  17.3400934  35.6740555  32.5568572  18.0534799
  34.2673477  32.4412242  17.5068720  31.4014324   3.3720819  13.3542402
  30.7650837   2.7946130  13.7759264  31.6006645   4.0334503  14.0169103
  96.4357185  49.4247341  63.1393671  95.7127571  49.7903204  62.6295519
  96.9316292  50.1887321  63.4336662  96.2119983   4.4903768  85.7844639
  95.3125118   4.5477785  85.4621983  96.1269258   4.5144189  86.7375755
  47.1376896  70.1845694  60.0217104  46.3132906  69.9498749  59.5956707
  47.8102112  69.7476435  59.4991779  73.5812950  76.4592552  80.7516670
  73.1310368  76.9536400  80.0667763  73.9510250  77.1290970  81.3268566
  51.4961481  73.5781336  72.6419783  50.9266138  72.9886627  73.1363344
  52.3283672  73.5592794  73.1145144  22.5797304  39.4557945   1.4012773
  21.6942009  39.6068946   1.0707719  23.0931124  39.2426769   0.6220110
  20.7469829  12.6228849  17.8561266  21.3447460  12.7959100  18.5834367
  20.7612356  11.6710845  17.7556284  69.3246731  28.0625097  29.0880544
  69.9485763  28.7245456  29.3858488  69.8468384  27.4648229  28.5529382
  67.7798318 101.2851074  14.6689470  67.6905464 100.3955439  15.0109155
  66.8971561 101.6516426  14.7215517  41.5039667  40.8525173  28.8703783
  40.5710634  40.8331100  28.6569746  41.9429144  40.9027091  28.0212362
  72.7191305  67.2588921  49.5674133  73.0776072  67.5526237  50.4049397
  73.2426977  67.7160072  48.9092684   5.5239019  82.8337100  28.6034925
   4.7062073  83.1460622  28.9908464   5.8474836  82.1792057  29.2224844
  80.6824780  75.6826687  80.1664829  79.9428082  76.0478640  79.6809387
  80.7537842  76.2346697  80.9452248  84.4237995  36.2579370  75.8865499
  84.8275471  35.4020762  76.0305071  83.5369205  36.0571432  75.5875969
  11.2672482  73.9593795  33.0951555  10.5708275  73.9537933  33.7518079
  11.7417774  74.7749188  33.2562311  74.4495567  39.3069068   8.3719309
  74.4180759  40.1097957   7.8517301  74.0637001  38.6390010   7.8051431
  42.7579451  71.2091970  54.1809559  41.9823313  71.5489769  54.6272802
  42.6967430  71.5612221  53.2929420  80.0973415  99.0515518  67.6287985
  80.0994015  98.1079102  67.7892876  79.5383835  99.4104958  68.3179712
  64.8572493  55.6634474  83.5826588  63.9967394  55.9809542  83.3088875
  64.6767378  55.1026678  84.3370914  68.4324979  94.8564508  12.2335203
  68.3609341  95.3274706  11.4033086  67.8039526  94.1386440  12.1566064
  30.1146540  10.1315013  11.3893659  29.9568924   9.3521253  10.8565195
  30.3708204   9.7884933  12.2454889  90.6182480  93.6843872  61.9137955
  91.5468025  93.8330650  62.0924091  90.3324127  94.4757748  61.4574671
  65.5533981  71.2088728  45.4712725  66.0250568  70.4880047  45.0539923
  66.2326860  71.7103624  45.9221649  47.8835297 100.8808708  59.1430235
  47.9192972 100.5663204  60.0463581  47.1041203 101.4357281  59.1132975
 105.3841614  94.3768099   8.7326486 105.0866436  94.9180344   9.4639356
 106.1621307  93.9299944   9.0663393  61.7776585  66.8278313  76.9709396
  61.3992214  66.0531521  77.3867416  62.6537132  66.5514278  76.7019415
  49.7802687  66.6450834  79.6648932  48.9876938  66.8403053  79.1649437
  49.7521687  67.2516346  80.4048538  35.8444023  85.7551765  87.9146671
  36.5340471  86.3193130  87.5648403  36.1796927  85.4649162  88.7629318
  71.0886669  83.1983089  85.2427673  70.3917742  83.7198830  84.8445988
  71.5906811  82.8625965  84.5001221  89.0793037  84.6911526  72.5598335
  88.7520027  83.9679527  73.0947065  88.5186863  85.4320812  72.7899694
  30.9872755   5.6754390  44.9284036  30.6536993   4.9085037  44.4628198
  30.4677233   6.4051525  44.5910318  57.7740845  18.4317914  30.5126722
  57.6915726  18.2057945  31.4391382  57.9945549  17.6052324  30.0832231
   0.8700743  75.1240158  44.7072792   0.5821487  75.5927324  43.9239311
   1.8233249  75.2106810  44.7014284  78.6672783  69.1555929  88.5268784
  78.4801483  69.0206671  89.4558620  79.3284845  69.8475933  88.5137939
  79.2578745  86.9151020  85.9760284  78.7310362  87.4946117  85.4257107
  79.6741152  86.3125706  85.3596401 103.6304951  35.9259367  77.7739096
 102.7963638  35.4653502  77.6827002 104.2331123  35.4446244  77.2069693
  82.1447563  74.9762392  70.3256798  82.7213669  74.4420862  70.8719587
  82.7401543  75.5072546  69.7967625  88.2618523  62.9176760  76.7924309
  88.2632732  63.8311005  76.5062714  87.8733158  62.9412508  77.6669121
  10.7697090   3.1533376   1.0672529  10.9945902   3.8644878   1.6671903
  11.2189182   2.3873798   1.4246709  19.1451321  87.6021936  19.9422510
  20.0092182  88.0108598  19.9929578  19.0440998  87.1508458  20.7802923
  75.2619241 101.5081814   2.6408441  74.6543597 102.0150164   2.1021326
  75.2715777 100.6397226   2.2384603  56.2124634  68.5668707  68.9278269
  57.0975733  68.3488560  68.6357927  56.3435650  69.1627073  69.6654034
  11.1944135  24.1806976   9.9011285  11.4932331  24.9862758   9.4792516
  11.5722116  24.2161695  10.7799013  56.6747713  95.9221745  66.5036821
  55.8166170  96.2524033  66.2377024  56.5199947  95.5104733  67.3538494
  47.2557434  55.0088779   3.7783201  46.4242824  55.4674140   3.8993127
  47.3682007  54.5008174   4.5817239  65.4962063  65.2237177  77.6322365
  65.5071831  64.4934988  78.2510138  64.8409367  64.9753094  76.9802046
  60.4434443  99.4032955  68.9569569  60.0502872  98.6335278  68.5457230
  60.3114033  99.2673302  69.8952055  69.2070150  93.5097122  54.7419739
  68.9848089  92.9089260  55.4532480  68.4573841  93.4658051  54.1483784
  20.6909046   6.3232625  79.4061518  19.7525177   6.1462606  79.4719362
  21.0781632   5.4791940  79.1741896 105.1993749  29.4738571  20.4411085
 105.3665659  30.3872482  20.2087362 106.0265062  29.0261833  20.2631433
  11.4280018   6.7188350  14.4855459  10.6206402   6.9353620  14.9519212
  11.1599573   6.0770217  13.8279302  58.8438177  58.3217430  81.0582924
  57.9022789  58.2898188  80.8888340  58.9505339  59.0389824  81.6831207
  78.5774873  95.4459265   6.7727716  78.8938736  94.8689249   7.4679048
  77.6538204  95.5870464   6.9805105  69.0588713  69.0302467  48.4086847
  68.6951590  68.5456085  47.6676893  69.2125940  68.3638954  49.0784454
  74.9989080  64.2816496  87.5148487  75.4345846  65.1239061  87.6453018
  74.1423750  64.3884325  87.9285908  77.7323103  55.6469011  75.2209330
  78.0931377  55.0748158  74.5436192  78.2852793  55.4901838  75.9863710
  55.0573254  73.6698866  62.8907871  54.5190048  73.5663080  62.1061134
  54.7027493  73.0322313  63.5103893  30.7707294  15.7893983   2.6258810
  30.9119066  15.2692882   3.4169443  30.9852108  16.6850654   2.8866727
  71.9316053  53.7927961  82.3960114  72.3602009  53.8494253  83.2500172
  72.6455021  53.6271334  81.7802715  95.1806164  55.0553226  73.6616564
  95.0634956  55.7997608  74.2518425  94.4927883  55.1602888  73.0043030
  80.8883381  55.2140903  74.3057728  81.0164928  55.3552961  75.2437878
  81.1485291  56.0416651  73.9012337  71.5717125  92.2269821  78.5416698
  72.1035290  92.6753712  79.1992044  72.1909142  91.6658211  78.0748606
  76.0964251  89.3700314  85.3848267  76.4389133  90.2235508  85.1194477
  75.3574181  89.2150497  84.7965336  25.3126106   6.5229715  60.3377724
  25.1857910   5.9802450  59.5595741  25.5288372   5.9000219  61.0315990
 106.0446333   9.4734872  82.9084969 105.5013250   9.1947187  83.6456108
 105.9233927   8.7898649  82.2495747  52.7771854  59.3058825  85.2023983
  53.2714891  58.5172749  84.9787998  51.8941259  59.1361094  84.8743629
   6.6237698   4.4146455  77.4426317   7.3141823   5.0629533  77.3038149
   6.8594608   3.6868299  76.8673325 100.0462649  22.6461641  22.6518781
 100.6944487  21.9418804  22.6605566  99.7672317  22.7261154  23.5640104
  68.3749866  81.9611740  77.7679157  69.0972757  82.1278763  77.1623230
  68.7854576  81.5296459  78.5172653  92.3469639  81.3467979  87.5412083
  92.2491074  81.0854244  88.4568119  93.2309532  81.7102146  87.4890423
  64.9225378  88.3748913  83.2046318  65.4112196  88.9095592  83.8303661
  65.1343918  87.4725819  83.4437847  80.5472469  56.1447811  77.0514774
  81.3554955  56.3117456  77.5363445  80.1611519  55.3834009  77.4844408
  70.5254887   7.4336160  87.2193336  69.6056603   7.6974596  87.2423458
  70.5127095   6.5012659  87.4356651  67.4670601 102.9116440  66.8977165
  68.0913162 102.2469807  66.6065836  66.6139936 102.5759888  66.6223240
  75.1456594  84.3477345  64.1171312  74.7128010  85.1570702  64.3888617
  74.4294643  83.7697697  63.8539696  35.8986172  32.1586315  26.8361337
  35.9764561  33.1126300  26.8441541  36.6511568  31.8526641  27.3424013
  64.4166994  92.1658516  46.8793917  64.3458033  92.9775333  47.3817682
  63.7996960  91.5681553  47.3016500  79.2287540  78.9477730  74.7134686
  78.2975149  78.7931871  74.5549488  79.6130323  78.0721331  74.7561264
  46.8339332  11.4337388   0.0365408  47.4852833  10.7428543  -0.0844996
  46.2836346  11.1209670   0.7545717  75.7835007  67.7160358  79.3243694
  75.1651764  67.0408630  79.6037436  76.2861395  67.9214525  80.1126575
  66.5096617  78.4850311  77.8851461  67.3427010  78.6511946  78.3263540
  66.3093185  77.5712633  78.0879259   0.4524168   0.2242462   5.3684957
  -0.0265566   1.0454360   5.4801042   0.1570042  -0.1122483   4.5224817
  93.7965368  99.5691374   7.3418291  93.0008243 100.0098493   7.6399000
  93.4832119  98.8771322   6.7594297  70.1719713  87.9657841  79.1867590
  70.8472586  88.2647896  79.7957087  70.0251436  88.7126637  78.6063671
  53.5256958  62.4632120  88.0321503  54.3189716  62.7222776  88.5010147
  52.8404188  63.0268955  88.3911610  85.2212048  64.7921276  58.3807421
  84.3358994  65.1422119  58.2812357  85.4041958  64.3625069  57.5451756
  88.8934517  81.1167812  76.5212822  89.5845890  80.4551125  76.5486574
  89.2217827  81.8289375  77.0701456  54.0178394  86.7590427  81.5181160
  54.2910767  85.9654999  81.0578251  54.5122862  86.7428875  82.3375607
  73.5517168  83.2506561  73.8644505  73.8920069  83.6562538  73.0669975
  72.9262972  83.8879967  74.2092276  25.2114233  58.6124126  22.8713377
  25.5256018  58.0390350  22.1722276  25.9928306  58.8116542  23.3870275
  61.3794597  15.6957570  15.7237203  61.3489994  15.1965515  16.5398653
  61.2407669  15.0424377  15.0380285  91.0238384  90.1677111  30.5079420
  90.6130527  89.3046406  30.4569681  91.5444826  90.2328232  29.7073705
  90.0725651  77.3872375  82.5923634  89.9186134  78.3313894  82.6256371
  89.4525146  77.0210791  83.2229996  60.7836899  34.2447559  11.4182432
  61.4184555  33.5286037  11.3976247  60.7413086  34.5007984  12.3395879
  78.9199400  83.0839443  85.9521103  79.4259167  82.3246479  86.2413979
  78.1529093  83.0928898  86.5246582 105.0465679  65.6448174  70.3995609
 104.7403336  65.6195593  69.4930220 105.6607819  66.3785410  70.4245234
  85.9095955  92.8048038  65.0787830  86.5688038  93.2548141  64.5504189
  86.4056206  92.1581364  65.5807781  56.5172625  80.9369946  74.4917393
  56.3891840  81.8580151  74.7187519  55.8617353  80.4693508  75.0092697
  42.1486410  13.7605802  43.8246305  41.7740997  13.4782306  42.9902227
  42.3975214  12.9468814  44.2630155  89.5130705  95.5516699  34.6571119
  88.7602066  94.9898270  34.4733675  89.1530060  96.2738254  35.1719625
  86.3987637  68.0902147  55.6652069  86.5661812  68.9810419  55.3575897
  87.2693443  67.7142954  55.7956362  67.8121647  22.5591794   1.4481218
  67.8901848  22.3807899   0.5109270  67.9511913  23.5031310   1.5246446
  50.4553016  23.2833854   9.2367418  50.3718838  22.3466674   9.0583475
  51.1785301  23.5699455   8.6790235  16.5727695   9.4601480  30.7860716
  16.1850485  10.2586786  30.4279478  17.3256525   9.2853586  30.2214010
  16.9857725  11.8644945  28.9840562  17.9215893  11.6935626  29.0901811
  16.7847046  11.5563051  28.1004198  52.1870804  72.8983307  70.1278973
  51.9486809  73.3074188  70.9597874  51.5478802  72.1948195  70.0150824
  72.8113222  90.2516365  74.1673803  72.5583982  89.7054482  73.4231091
  73.6299086  90.6653881  73.8935995  67.2224092  52.4770260  87.3601055
  67.1626711  51.6016960  86.9773960  68.1065083  52.7732420  87.1436405
  76.6418409  73.9503241  79.0916300  76.2903976  74.8405647  79.0777540
  76.9101715  73.7846375  78.1878757  67.0939779  60.6568575  79.1029453
  66.4566851  60.4134464  79.7743940  67.0421886  61.6116238  79.0584660
  77.4464083  57.1788168  47.0626736  76.6529846  57.1015787  47.5925303
  78.1628513  57.0468950  47.6835871  17.9693159   5.6593696  20.3974874
  18.0117353   6.5445558  20.0357206  18.6317858   5.6509725  21.0883577
  64.2933655 100.9982681  58.1941271  65.0431728 101.0128212  57.5993109
  63.5298252 101.0332775  57.6179171  57.6147032  76.0875702  58.6493158
  57.6300907  76.6833973  59.3983078  56.7229509  76.1548615  58.3080149
  54.4843864  74.9344110  59.0608788  54.1626358  74.3701172  59.7639275
  54.7670555  74.3273640  58.3769035  72.7561712  66.2575769  73.3627176
  73.3634424  66.0501099  74.0729332  73.0367231  65.6998825  72.6371098
  55.5210304  70.2251530  61.5225220  54.9499702  70.8565569  61.0849667
  54.9279308  69.5413637  61.8338156  40.8932734  23.4942222  78.0500555
  40.4165602  23.9202142  77.3376608  41.8055201  23.7506032  77.9147291
  67.1092939  90.8767223  87.0422363  68.0436754  91.0532570  86.9327068
  66.7537355  90.9089279  86.1541080  62.1922636  58.9249277  84.7425079
  62.9484940  59.4821072  84.5584011  61.5939331  59.4878721  85.2337646
  62.0180559  79.3699074  76.7463398  61.9237709  79.7883654  75.8906317
  61.3684750  79.8049831  77.2985888  69.0580320  70.9722090  83.2008362
  69.9353123  70.7240868  82.9092026  68.6007404  70.1397419  83.3196163
  87.0611286  57.9943466  83.5395241  87.2907925  57.1351147  83.1856728
  87.2826767  58.6086130  82.8396511  26.2066102 100.7214832  71.6051960
  26.1906219 101.1782932  72.4462080  25.3744364 100.2495861  71.5730953
  57.6565059  14.6173326   6.5946539  58.6041340  14.4827072   6.5844495
  57.4155887  14.6944753   5.6714780 106.1133764   6.6121808   4.8594816
 105.4887030   6.4332858   4.1566236 106.2949464   5.7540456   5.2427156
  94.1001511  64.2790365  79.6425724  93.3351231  63.7339926  79.4584656
  94.1212368  64.3476582  80.5970764  67.9762459 100.2133083  52.6121473
  68.5899830 100.5456829  53.2671928  68.4496689  99.5030499  52.1789837
  43.3368238   5.1940338   6.8396814  42.7414974   4.9502651   7.5484808
  44.1758331   4.8054687   7.0873029  80.0119781  83.6166477  75.4632092
  79.8801422  84.2002201  74.7160244  80.5103588  82.8809166  75.1074743
 107.9510021  81.5289974  57.6033115 108.1506443  80.8791161  58.2771206
 108.8072586  81.8382740  57.3076534  71.2081003  37.7776861  85.4190350
  71.8033314  38.5271001  85.4015255  71.0778189  37.5537181  84.4975662
  23.8069115  97.1494749  15.3832777  23.6118088  96.5329006  16.0889681
  22.9588089  97.3214271  14.9741609  32.1705660  25.9812395   4.0762289
  32.0391115  25.0955955   3.7377126  31.8145975  26.5529338   3.3960207
  76.9901514  74.6861982  72.6624250  76.8375015  75.6288958  72.5972319
  77.1918774  74.5395756  73.5865688  93.9558125  73.3404016  76.2159538
  93.9362907  74.1624689  76.7059088  93.0796242  72.9724264  76.3305378
  62.0821651  48.1891338  -0.0277083  62.7915653  48.0435172   0.5982072
  61.5803703  47.3741142  -0.0148814  96.8351078  86.1752605  58.4699917
  96.0779381  85.8175659  58.9336634  96.6763592  85.9606647  57.5507641
  16.6424402  81.0344211   1.5584142  16.2783846  80.6490985   0.7614095
  15.9613165  81.6310874   1.8687208  54.5014843  51.0697738  10.1508482
  53.7707981  51.5741531   9.7931726  54.9109157  50.6658069   9.3857248
  15.0679859  17.6354019   3.6974008  15.3838095  18.5331003   3.8004739
  14.1633161  17.7324239   3.4001119 104.7660612   4.4997800  77.6017427
 105.0517868   4.5470632  78.5140800 105.3904270   5.0479902  77.1265030
 103.4517479  75.3999710  73.1725359 102.6247597  75.4920197  73.6456728
 103.4604740  74.4884300  72.8805685  48.2268238  81.7470932  40.2651882
  48.3129835  81.8539524  39.3178844  49.0642881  82.0485115  40.6173706
  96.2132000   3.9939798  55.5591059  96.9779037   3.4370054  55.7048559
  95.6057285   3.7547220  56.2590837  90.0738310   9.0572179  50.0386858
  90.6213211   8.6783994  50.7264233  89.2476629   8.5775770  50.0988245
  42.5059303  44.0751926  14.6240480  42.7399954  43.1480781  14.5804746
  43.3214506  44.5374671  14.4305093  64.0525675  74.3350792  61.0272980
  64.1922998  74.8770761  61.8037939  63.1225729  74.1103411  61.0562706
  53.4722503  46.5638629   3.9178140  53.1847843  45.6904689   4.1838701
  52.9161533  46.7815009   3.1697328  34.9960169   5.1740209   6.9346388
  34.8888239   5.9836236   7.4339254  35.6990656   4.7060815   7.3851831
  82.3317719  89.2324162  71.7486286  82.7807903  88.6013794  72.3111248
  81.5609360  88.7629795  71.4297581  53.3984360  30.6487838  24.5279939
  52.4651226  30.4739562  24.6487672  53.5379585  30.5637924  23.5848386
  85.4759954  99.2824963  36.6007478  85.0351213 100.0976637  36.8402536
  86.1831878  99.1959169  37.2399767  83.9608860  64.7044277  74.2724943
  83.6650944  65.4662895  73.7741899  84.9155712  64.7736645  74.2717505
  33.8326057  38.4450904  13.2166155  33.2519754  38.4369937  12.4556787
  33.4053263  37.8685466  13.8500650  66.2333775  70.3378630  85.7712841
  66.6179895  69.4617367  85.7978916  65.6357098  70.3598642  86.5186405
  90.4337597  88.8121796  81.1846161  90.7613945  89.0232754  80.3103638
  89.7196484  89.4329739  81.3291359  15.5427727  23.6830465   8.2405813
  14.8206409  24.2363016   8.5383470  16.0895714  23.5643760   9.0172155
  54.1061401  99.3760490  53.1260061  53.8092327  98.6272907  53.6431551
  55.0487232  99.2410278  53.0283594  64.5640707  57.1747255  80.2290916
  65.0177193  56.4905691  79.7367859  63.9348221  56.7011166  80.7731247
  88.4026051  96.1273003  67.7942896  87.5709820  95.6558418  67.8428268
  88.4379482  96.4588547  66.8970394  63.0151542   5.1490346  32.9458196
  62.1003803   5.4296438  32.9717310  63.5000404   5.9357730  32.6965101
  70.3155756  93.4497356  68.4743595  71.1763763  93.3358097  68.0715275
  70.4851055  93.9729404  69.2577791  82.1411133  57.3361588  60.1374817
  81.3139057  57.2799587  60.6158113  82.4497604  56.4315701  60.0856686
  84.2518902  98.2104683  88.4118652  83.6275482  98.3294582  87.6961327
  84.5483971  99.0962791  88.6207962  43.9097771  52.2724239  11.6271074
  43.4839710  51.4236537  11.5067155  44.7818741  52.0580379  11.9583566
  54.1781330  77.3124743  86.1899853  55.0904608  77.4034023  86.4649773
  53.6699486  77.6198816  86.9406414  80.9986210  96.6687775  81.2447071
  81.2085247  95.9745789  80.6200027  80.6482506  97.3780441  80.7058144
  68.1506157  92.5854111  62.1614361  67.9738951  93.5256577  62.1306419
  67.5985527  92.2611237  62.8729820  29.9366602  11.9407359   2.8342397
  30.8637079  11.8247262   2.6260145  29.9282631  12.5936786   3.5341127
  79.3612242  97.8172684  58.0363607  78.5946321  97.2548866  57.9254198
  79.3576622  98.3822060  57.2636652  58.7294945  68.0117122   9.2569025
  58.5922130  67.0646278   9.2774160  58.0453762  68.3403198   8.6736162
  77.4776888  77.5042057  66.7941236  78.0386019  76.8999815  67.2804594
  76.6107893  77.3930550  67.1844673  98.9211963  98.9639690   2.5103243
  98.3551286  99.7358015   2.5186403  98.7760233  98.5697248   1.6502531
  72.1841288  70.0842619  75.1439285  71.3166904  70.4684162  75.0166273
  72.6328135  70.6945372  75.7291412  13.7551174   3.6717046  86.0733604
  13.7584457   4.3779291  86.7194843  14.1319714   4.0652860  85.2863979
  92.9240036 100.2417850  61.9599819  92.0291805 100.5782223  61.9116545
  93.1523991 100.3010559  62.8876400  84.5050526  40.8575821  60.1695156
  85.3331947  41.2384272  60.4617023  84.6361923  40.6858683  59.2370176
  20.0595220  65.0216094  16.6897352  20.2012333  64.1550437  16.3086660
  20.1719793  65.6268779  15.9567602  98.0202293  69.1230297  75.4909945
  97.6757145  69.5571709  74.7105694  97.3538208  69.2719364  76.1617804
  81.0264801  12.3438467  66.1020660  81.5927480  11.6710676  66.4801359
  81.2400507  12.3400320  65.1690054   5.1629553  19.7686208  69.0137243
   5.2472982  20.6105817  68.5662651   5.9288702  19.2691530  68.7306404
  83.2897854  73.0609846  50.1189280  82.8499222  73.5142422  50.8381748
  83.8895035  73.7128687  49.7561407  75.7970142  50.0917435  87.9593945
  74.8777342  49.9679136  87.7231216  76.1877155  50.5083466  87.1912575
  76.9030842  46.5197841   2.7066381  77.2964462  47.1100513   2.0639188
  77.0320305  46.9601432   3.5466917  60.0073719  87.1614075  54.3046951
  59.1458988  87.1216869  53.8893461  60.4980373  86.4417171  53.9077997
  19.2768227  87.6504326  53.9750767  19.9668633  87.8019810  54.6209145
  19.1324936  86.7044163  53.9962959  49.1215786  68.6797420   9.8138292
  48.6901363  69.5043460   9.5899542  48.4245094  68.0251876   9.7703226
  60.9782776  20.2893821   0.6244333  60.9144577  19.3695918   0.8816106
  61.8608745  20.3767387   0.2644117  10.1818308  59.8310462   6.4612825
  10.3471931  59.3182079   7.2524126   9.2513546  60.0506774   6.5083559
  47.1658977  25.6196109  32.6510675  47.6149448  26.3664571  32.2550733
  47.6895126  25.4075185  33.4237726  81.0718727  84.2474365  77.8011847
  81.9917583  84.0884876  77.5896025  80.5962753  83.9875984  77.0121861
  78.9627504  67.4177933  51.2761879  78.9366961  67.6174068  52.2119808
  79.5583010  66.6716337  51.2069368  94.0644073  79.5809937  76.0111856
  94.3010807  80.4969215  75.8652496  94.8489285  79.1890907  76.3948059
  68.1450653  69.5585871  79.3805838  67.3992157  69.1547680  78.9368820
  67.7617216  70.2686977  79.8953915  63.4589481  64.3221903  76.3466215
  62.7523613  64.1921234  76.9791174  63.5178280  63.4892654  75.8786440
  11.1645374   2.1760477  86.2279892  12.0510922   2.5269807  86.1437607
  10.5962715   2.8874601  85.9327030  87.6899910  42.3947716  87.1837807
  87.9941940  42.9285955  86.4498043  88.4542751  41.8766499  87.4360752
  85.5562973  55.9495449  80.4435730  86.1206627  56.0306835  81.2124252
  85.9455204  56.5388870  79.7974968  86.3690948  58.4242439  46.2835836
  86.4846706  58.9992332  47.0400620  85.5642509  57.9410887  46.4707279
  96.8275642  76.4428997  78.1743860  96.8084335  76.1978292  77.2492886
  96.7223358  75.6152725  78.6436367  65.6744528  74.8640013  74.7388220
  65.5390692  75.7898426  74.9406195  66.3509417  74.8629045  74.0616274
  62.1302891  80.1111507  60.4122734  61.5717649  80.6100941  59.8161745
  61.5188456  79.6836567  61.0119534  45.7696613  52.3306266   3.3828218
  45.3454002  52.8560630   4.0611704  46.6754326  52.6399509   3.3717687
  58.7879419  82.6989460  66.0494518  57.9627657  82.3726177  66.4083767
  59.4500256  82.4257278  66.6844511  88.0843925  71.0800171  62.2732830
  87.4562740  70.3752708  62.1150494  87.5489044  71.8161297  62.5692892
  59.8610115  73.1224537  74.7032118  60.2490187  72.3240614  74.3450928
  60.5303001  73.7939644  74.5714569  41.9525179  27.5442354   4.1374834
  41.8537363  27.2093002   5.0287111  42.8983911  27.5619022   3.9917238
  90.6693649  73.8138962  76.3056612  91.3785362  74.1898870  75.7841825
  90.6589222  72.8879070  76.0634565  96.0052872  89.3029690  67.9954529
  96.0724545  88.5800171  68.6191988  96.9123363  89.5550442  67.8223801
   4.5818100  10.8739484  67.7231407   4.1694794  11.2094892  66.9271326
   4.5604763   9.9224390  67.6211166  44.7737646  64.7063875  62.0793962
  45.6734562  64.5998192  62.3883152  44.5713139  63.8795710  61.6416454
  46.4064106  16.8147031  22.7730329  46.0301384  16.0970298  23.2825430
  46.0147556  16.7228452  21.9044645  54.9412521   2.5480977  13.1035383
  54.6011242   2.9053155  13.9238699  55.8920654   2.5595085  13.2133348
 102.8473400  19.4989408  56.7524862 103.6369013  19.2760957  56.2593746
 102.1260999  19.2656339  56.1680079  72.7427435  92.7738667  65.4640436
  72.7253199  91.9196510  65.0324917  71.9776058  93.2329178  65.1175356
   7.1195326  98.9016893   9.6277292   7.0742235  99.5757559  10.3058298
   7.6203404  99.3072489   8.9199598  37.5421985  52.5447170  11.7942960
  37.9633650  51.9589225  11.1652620  36.6389498  52.6177303  11.4860113
  53.4583664  73.8399744  79.3841934  53.6794710  74.0220690  80.2975368
  54.2979956  73.6420155  78.9693880  75.4834986  92.6890182  70.4263592
  74.6236944  93.0840206  70.5710602  75.4858160  92.4535275  69.4985819
  79.1867495  92.1950817  74.3511963  78.9543772  93.1223488  74.4003105
  78.4550810  91.7422771  74.7705460  55.4715967  74.9513721  69.2449045
  54.8627186  75.0740957  68.5165930  55.9795570  75.7622290  69.2716551
  59.4686079  60.1158237  83.2525826  60.1312685  60.2447224  83.9311886
  58.6526775  59.9864864  83.7360764  13.9036926  17.7377788  15.7333620
  14.0670999  17.9347125  14.8110063  12.9500135  17.7466623  15.8148630
  89.9382401  97.8735065  70.5584526  88.9860249  97.7931213  70.5032110
  90.1718903  98.4550285  69.8349428  74.2169666  83.7204838  52.7526331
  74.3106413  83.7004662  51.8002367  74.2006969  84.6520233  52.9721689
   4.3092070  95.1309040   4.5110662   4.0673266  95.4151991   5.3924806
   4.9057303  94.3956592   4.6518095  23.5366520  46.8960658  42.7598055
  23.3525213  47.6577751  42.2101553  23.1819614  46.1549560  42.2687013
  62.8165007  84.8255157  24.8963165  63.2888126  84.6914101  25.7180023
  62.0521879  85.3468895  25.1417279  77.9229975  62.2109556  88.6328983
  78.7278986  61.6989231  88.5542393  78.2019091  63.0361843  89.0296936
  42.3971208  50.1420490  14.2287977  42.7570709  50.0585262  13.3457906
  42.4763187  49.2648784  14.6036871  96.5575981  54.3967676  65.6378984
  96.1636925  53.7495708  66.2228918  97.4575901  54.4864655  65.9512424
  36.1925396  44.3987361   3.7525900  36.0005316  44.7058574   2.8665598
  35.8567509  45.0896922   4.3236120  96.9611359  86.8817711  80.5116844
  96.3453484  87.1625996  81.1885643  96.7954350  87.4726486  79.7770882
  16.5058454  36.5700618  28.2784135  16.4960512  36.2790958  27.3665578
  15.6221947  36.3871757  28.5976846 103.7244438   5.8676160  53.8805485
 103.9755415   4.9498189  53.7764359 104.5531200   6.3463129  53.8612938
  63.4861454  47.2945873   2.1202619  63.9863190  47.3742381   2.9324873
  62.6193603  47.0007602   2.4005945   4.1419824  65.5865852  23.6729677
   3.8034090  66.4469615  23.4252699   3.6565908  65.3572647  24.4654615
  33.5457611  54.7743416  52.2986460  34.2047882  54.0957212  52.4448919
  32.7158189  54.3552351  52.5261974  69.9797964  91.8690014  57.0237160
  69.9299431  90.9249878  56.8734026  69.2321301  92.0612240  57.5896454
  57.0360518  67.6606512  84.5178223  57.2764349  68.1918955  83.7587261
  57.2125626  68.2249022  85.2706242  36.0412248  42.6670543   1.2988336
  36.6134533  43.0632583   0.6417139  35.2779373  43.2437698   1.3307626
 107.9479024  12.3843900  18.5166795 108.5832546  13.1003133  18.5130937
 107.3436067  12.6040021  19.2257841  61.7182446  88.8468266  70.9471083
  60.8332300  89.0526962  71.2481070  62.0665836  88.2553196  71.6142035
  67.8836727  94.2564774  71.9672108  66.9756031  93.9581585  72.0186234
  68.0641747  94.6246052  72.8321600  56.4068397  46.9805232   4.0638979
  55.4712280  47.1250907   4.2052038  56.4543899  46.1309997   3.6253889
  36.9044765  41.5450469   6.3605650  36.4606460  42.3102561   6.7262228
  36.7948469  41.6342441   5.4138525  66.8415499  86.8503475  85.8486843
  66.7610836  86.4448166  84.9853802  67.4186659  87.6009083  85.7078838
  68.4888744  79.2300987  66.1860514  68.6420059  79.8875999  65.5074692
  67.6117754  78.8945150  66.0008144  86.2398529  97.4815464  50.7013893
  85.8441067  96.6608429  50.9947681  86.7642689  97.7744293  51.4466667
  62.9307270  78.2472467  79.5947313  62.5003290  78.4563875  78.7657261
  62.7496815  77.3171997  79.7306395 104.7112846  90.2748489  79.9152136
 103.8940811  90.7456017  80.0789356 104.8668671  90.3842068  78.9770937
  86.9264030  66.4656973  52.0561028  87.5903511  66.7512751  52.6836729
  87.4202728  66.2574530  51.2630367  26.0354122  49.3027297  20.7744367
  25.6212744  50.1653663  20.7984789  25.4599174  48.7460605  21.2989957
  97.5658703  77.8192234  87.8112125  97.8593636  78.7275314  87.7399731
  97.5558949  77.4992943  86.9091129  70.5019140  66.2135649  85.9636307
  69.7937918  66.7490721  86.3214397  71.2256718  66.8270683  85.8370686
  17.8238329  53.2768909  13.4477289  17.9091438  53.0220119  12.5290353
  18.3557876  54.0687076  13.5269983  33.1483921   9.5857946   3.3418329
  33.4517702   8.6789838   3.2983644  32.1958860   9.5168344   3.4067590
  70.7890892 101.8858624  64.3060064  70.1371002 101.4614201  64.8636675
  71.4080143 101.1889648  64.0880871  44.7790241  74.2587996  54.6407843
  44.3628359  74.1397095  53.7870646  44.0667295  74.1527939  55.2713585
 107.0070862  16.0599912  86.0046291 107.8472780  15.8639730  86.4192200
 106.4950250  16.4871419  86.6913319  74.0606642  86.1952972  78.8990641
  74.2268229  86.3545990  77.9699516  74.9172831  86.2907791  79.3153811
  64.6326494  80.7803059  78.2280493  64.2025757  80.4755497  79.0270424
  65.0256681  79.9925804  77.8522062  77.3255539  74.1125822  81.5762901
  78.0157804  73.5649633  81.2022114  76.7968321  74.3786812  80.8240414
  21.3048347  68.8382522   3.6932333  21.6941389  68.0114166   3.4086187
  22.0503935  69.3719379   3.9681108  92.4097252  58.0356073  55.6972933
  92.2962761  57.7080345  54.8050737  93.1104755  58.6838770  55.6271458
  36.0287952  81.1738491  73.5551643  35.8329892  81.5504742  72.6972294
  36.2764454  81.9242859  74.0952969  22.0480236   4.3275539   1.3040502
  21.5917095   4.5501987   0.4926069  22.0412763   3.3706752   1.3278253
  90.4456139  99.4388103  68.4004259  90.1077938 100.2559853  68.7669420
  90.1135254  99.4235611  67.5028133  87.6538738  15.9754316  12.6787050
  86.9138130  15.4238073  12.4252279  87.3237118  16.4982263  13.4094007
  81.3002205  52.4900532  75.9710312  82.0123672  51.8871450  76.1845207
  80.9774017  52.1883345  75.1219177  25.6099495  43.4010784  19.7749193
  26.2858232  44.0066520  19.4704301  25.6458076  43.4624282  20.7294710
  66.0210022  46.6840736   8.5763414  66.5192779  45.8753768   8.6945017
  65.1083168  46.3988582   8.5328062  37.7623161  22.7476303   1.2103708
  38.0162700  23.6613408   1.0804994  38.0061325  22.5577203   2.1163137
  49.9547863  69.7292995  64.6547270  49.3413591  70.3340483  64.2373276
  49.4646788  68.9114571  64.7393322  64.0253782  91.0255718  65.4391527
  63.6523438  90.2028561  65.1225996  63.2652712  91.5657997  65.6550884
  51.1659225  38.4387294   9.6899660  51.6783699  38.3571044   8.8856275
  51.8111881  38.6500636  10.3646524 104.6118759  14.6679224  79.6266270
 105.4473995  14.4466604  80.0379372 104.6666645  14.2840970  78.7514639
 100.0081921  81.1452484  55.3433466  99.4446278  81.9105816  55.4568815
 100.5065823  81.0917091  56.1588049 107.1891617  -0.1429926  37.0875382
 106.7462848  -0.4598605  36.3003373 106.9626020   0.7859338  37.1323252
  50.0297785 101.9202805  79.0328312  50.5367041 102.7321434  79.0449047
  50.6689167 101.2420654  78.8142729  60.3119739  19.7597782  17.6928957
  59.6458324  19.7452585  17.0056684  61.1321529  19.9252693  17.2279794
  53.2544422  72.8560972  60.6868029  53.3052969  72.0047331  60.2522612
  52.3170853  73.0429411  60.7386303  55.8888626  89.1110516  65.5343771
  55.0395918  89.0208721  65.1021290  56.4585114  88.4946918  65.0741243
  53.8598522  97.0366851  10.1251657  54.1192421  96.5023223  10.8757646
  53.4781917  97.8244583  10.5124529  36.8652757  22.0357410  33.2124384
  37.7262148  22.2277585  32.8407629  36.5837177  22.8624765  33.6041887
  30.0895246  18.4001008   5.7165201  30.7591232  18.3119146   5.0382192
  29.6583113  19.2319242   5.5206831  12.3092970  94.5568839  11.8934972
  12.7488550  94.9757282  11.1535032  11.9009575  93.7763587  11.5189798
   9.6256241  29.0636245  14.0979917   8.7411627  28.7669555  13.8836534
  10.1860603  28.3161441  13.8896234  25.8395982  94.7962666  22.5583076
  25.9571600  93.8467598  22.5294280  25.1583791  94.9731064  21.9095397
 105.5675911  17.1957887  79.0645647 106.1806892  16.6751493  78.5456371
 104.9367307  16.5588487  79.4000530 105.6763099   5.0783838  71.0385418
 105.1638960   4.4169057  70.5736589 106.3845228   5.3010095  70.4343033
  24.5902952  33.5708705   8.9508779  24.7720846  32.6769534   8.6608846
  25.3566965  34.0730373   8.6739500  10.8283933  26.5831653  13.4677847
  10.0022158  26.1067096  13.3862074  11.3929876  26.2003080  12.7963026
  76.6983175  95.2902031  76.0222864  76.1994553  94.7262096  75.4312849
  77.6140308  95.1053238  75.8136845  72.0103455  86.0192204  75.0716686
  71.5156174  86.0889530  75.8881330  72.8569984  86.4194584  75.2697086
  29.6995506  81.0810831   8.3420999  30.3951225  80.4729393   8.5922582
  29.8309574  81.2227371   7.4046095 103.9582634  83.3973408  76.0944414
 104.5327377  83.7098122  76.7934227 103.5236645  82.6300049  76.4666653
  86.0688782  81.0056782  54.3393183  85.6260967  80.1701832  54.4880581
  86.3609409  80.9631920  53.4287548  48.5078224  20.9107915  23.9103086
  48.9270958  21.2444869  23.1171568  47.6187214  20.6870595  23.6352308
  17.4944077   1.5591730  75.1749039  17.9565010   1.6045965  76.0119438
  18.1505737   1.2385000  74.5561695  56.3868030  54.8279468  15.1643522
  57.0085319  55.4165069  14.7362478  56.0342678  55.3401653  15.8920820
  77.5416374  91.5764809  85.2361870  78.4075499  91.5566349  85.6436634
  76.9492531  91.8282318  85.9446621  76.5474796  79.2797661  83.3679104
  76.0406780  78.7653065  83.9961720  77.4271297  79.3174553  83.7434387
  90.1836179   1.5393938  60.6876278  91.1205601   1.4452947  60.5158091
  89.8663734   0.6414331  60.7838058  54.6677479  30.6719962  19.1162260
  54.9980625  30.2461807  18.3251436  55.3152832  31.3492290  19.3118818
  58.4116157  62.3774806   8.1936796  58.6709102  61.4599315   8.2779176
  57.5200542  62.3435584   7.8469808  58.1359180  58.1528655  25.1471193
  58.6836704  58.8844768  25.4316385  57.2720894  58.5407058  25.0071104
  32.3230896   0.3985704  82.1685886  33.1741962   0.2664102  82.5861740
  31.6865692   0.2267469  82.8625298  45.2465137  13.6120073   1.9063051
  44.5030578  13.2414953   2.3819215  45.1697525  14.5566837   2.0401914
  75.3594971  76.9701529  76.5181971  75.9240627  77.7065134  76.2830877
  74.6567154  76.9902325  75.8686399  21.9103584   2.0486368  72.1612263
  21.6614685   2.9236616  71.8635321  22.3383484   2.1953500  73.0047512
  45.0118049  45.0469867   0.5377824  45.5474266  45.5360309   1.1624200
  45.6393799  44.5131103   0.0505884  65.0527096  75.3975058  70.9933662
  65.9381819  75.2142334  71.3073444  64.9961710  74.9390364  70.1550102
  77.0180677  19.4471944  73.6515379  76.2631153  19.3927492  73.0656099
  77.6307796  20.0272287  73.1994581  96.1048222  97.8116417  77.2513485
  95.1847935  98.0053043  77.4309921  96.5625858  98.0564785  78.0555534
   7.1033272  38.8596527   5.9873636   7.8848060  38.4808532   5.5848272
   7.3460230  39.7663967   6.1748083   4.4009504 101.9875124  12.6806219
   3.7670813 101.4556101  12.1994550   5.0544367 101.3601187  12.9897554
  28.1828674  21.7860929  10.2149160  27.3384031  22.1972839  10.0304563
  28.3560356  21.9958822  11.1326559  11.6140423   6.6773523  59.2758036
  11.0034428   6.8422712  59.9942732  11.9992695   7.5331701  59.0876484
  90.5836487 101.9932175  86.2275600  89.7590637 102.1132374  86.6985989
  90.5206203 102.5867844  85.4792690 106.4235020  37.3309112  85.5769539
 106.8549442  37.6638794  84.7900486 105.9030056  38.0685663  85.8950520
  76.8497919  92.3745039  10.5633981  76.1043738  92.2023800   9.9881132
  76.6596197  91.8753317  11.3576849  31.2554916  53.5059730  26.0927923
  30.9890589  52.8883735  25.4117544  32.2050556  53.5759441  25.9944875
  93.5665512  90.0894356  81.4155674  93.4440041  89.2575169  80.9582615
  92.9123497  90.0773335  82.1142101  53.2822418  73.9778996  67.7218533
  53.6332273  73.3372974  67.1032476  52.8044224  73.4534740  68.3644247
  37.8120264  15.1520721  14.6212442  36.8562015  15.1701728  14.5732362
  38.0256113  15.7227985  15.3594072  30.9148846  13.3736337  42.2309208
  30.5199871  12.5529493  42.5254917  30.4782925  14.0492738  42.7497005
  30.0276789  60.6295196   2.4967058  30.4288324  59.7728435   2.3503740
  30.7534012  61.2494079   2.4239023  86.2042141  71.4577532  85.1972389
  85.8177471  71.6630983  84.3459415  85.6557369  71.9241142  85.8280277
  87.4147129  55.4798651  82.4618053  88.3113861  55.1690674  82.3368835
  87.0911980  54.9822998  83.2128048  27.9541550   4.8185266  78.2543802
  28.8004837   4.6461786  78.6670160  27.3479424   4.9264825  78.9872360
  55.0185474  67.4779025   8.5739000  55.9015354  67.1611492   8.7642152
  55.1056465  67.9453460   7.7431448  51.6092110  80.4427910  41.6223574
  51.4469242  81.1240768  42.2748566  51.4774561  79.6214056  42.0958519
 103.4512615  85.2147961  64.0525961 103.1922722  85.2344990  64.9738789
 102.6789188  84.8844814  63.5936832  46.1577473  36.6081060  64.5549774
  45.4915390  37.2758592  64.7177601  45.8149014  35.8199991  64.9763584
  61.4093161 102.4545383  63.9094448  62.1565008 102.9591179  63.5879803
  61.0972309 102.9462719  64.6690702  67.1943140  89.2758083  78.6827374
  68.1400108  89.1283321  78.6946344  66.9511700  89.3456936  79.6058989
  91.0899067  90.9601212  62.1185827  91.0982323  91.0750198  63.0688286
  90.8621407  91.8239498  61.7748642  50.2112564   7.0004360  11.4450224
  50.7520851   6.7236511  12.1847017  50.5992302   6.5624086  10.6874998
  35.6571373  33.5924140  35.3266866  36.2897428  33.1889621  35.9210451
  35.5502161  32.9541007  34.6214540  34.3431791  10.2440254  13.2011755
  34.8537906  10.3967658  12.4060781  34.1035541  11.1199132  13.5038908
   7.3916111  20.8123601  71.2634373   6.9563398  21.6034044  70.9456205
   7.6715813  20.3574575  70.4691315 101.6266918  71.3787317  43.6591434
 101.9962215  71.7444086  44.4628572 101.7434311  70.4330778  43.7504768
  66.1831840  53.5260288  21.1243303  65.7038959  54.1689769  20.6017072
  66.8872055  54.0280143  21.5349157  57.9448685  57.9018489   3.8528879
  58.6998066  57.6767341   3.3091695  57.1989425  57.8647987   3.2541807
  34.1315246  85.9481907  43.4445286  34.2339683  86.7150307  44.0081692
  33.8983965  86.3090801  42.5891638  87.7330494  79.2172384  74.7807455
  87.6222897  79.7090101  73.9670372  88.3478546  79.7404575  75.2950239
  14.1560230   3.1666578  72.5067568  13.7797127   3.5451234  71.7121553
  13.6770401   3.5857404  73.2217264  68.3687449  94.9982071  89.0161133
  67.5768757  94.9271870  88.4830761  68.4493494  94.1439247  89.4402981
  65.5443001  97.5900936  87.9979324  65.7321358  98.5242081  87.9064751
  65.2721024  97.4886990  88.9099979  96.8963337  95.1710606  83.3512878
  96.4273071  96.0029888  83.2868767  96.2297058  94.5407963  83.6244202
   6.0722790  31.3997758  67.0916224   5.8698282  30.9304346  66.2823248
   7.0017157  31.6161169  67.0169306  31.7595482  69.4232035  71.2919521
  31.1816812  69.9049997  70.7001972  32.3110557  70.0970459  71.6894484
  98.0122471  95.8257294  77.4746227  98.6701393  95.7267380  76.7864275
  97.3832226  96.4519882  77.1163511  53.3737263  55.1984588   6.9643743
  54.2104896  55.1314632   7.4243314  53.5149082  54.7311202   6.1410291
  17.5001297  23.5570539  72.9420567  18.3875904  23.8885320  73.0790615
  16.9568882  24.0739072  73.5370111 100.2107620  41.9461679  60.1231527
 100.1207638  41.4748240  59.2949200 101.0683823  42.3675537  60.0669575
  68.4955025  88.2258034  81.8018436  68.9508629  87.9170132  81.0185719
  68.1462049  89.0818405  81.5540028  72.4174452  82.5174618  57.5612116
  71.9403124  82.7497959  56.7645979  73.3401012  82.6050568  57.3219299
  78.4878540  71.5562010  71.4293385  77.7528954  71.0467768  71.7707443
  78.0819321  72.3300409  71.0386562  80.9492016  80.8657074  50.1527834
  81.2330627  81.3671875  49.3884706  80.0928211  80.5167294  49.9057150
  69.1098961  59.4433967   7.0925291  68.7231335  60.3021041   6.9214399
  69.2880615  59.0835372   6.2236269  80.3560162 100.4386520  60.8922386
  80.2178764 100.4500961  59.9451256  79.5014906 100.6613064  61.2616205
  28.9720497  10.8048261  76.8332434  28.1077061  11.1834253  76.9938564
  28.9478073   9.9562944  77.2755623  88.6892414  90.9012032  81.4854717
  89.0820503  91.7444420  81.7110634  87.8952503  91.1286354  81.0016537
  49.3449005  41.5515510   1.6378267  50.1773151  42.0131389   1.7391641
  49.5038971  40.6856529   2.0135553  86.4574432  79.8439455  71.8542385
  85.6665421  80.1738167  71.4277649  86.1363506  79.2169571  72.5023270
  36.4232620  30.3338233   2.5711591  36.2141308  30.9972373   1.9136007
  36.7241653  29.5800773   2.0636518  22.5979576  14.1632856  83.7108898
  21.7720375  14.5148481  83.3784866  22.3821316  13.2762445  83.9986706
  39.0891027 100.2958870  49.3377829  39.6049380  99.6423817  49.8100901
  38.7505794  99.8278618  48.5745096 104.4408703  79.6376324  64.9481249
 105.0285912  78.9158583  65.1714134 104.4410324  79.6593618  63.9911699
  77.7618488  47.1618453   5.4240568  77.7088245  47.4618236   6.3314874
  78.4088692  46.4566795   5.4423292  44.3756946  32.8438465  16.7211588
  43.5001549  33.1632987  16.9393499  44.7225651  33.4940616  16.1103113
  79.2702087  42.0713226   2.1050985  78.8091549  41.2510005   1.9298132
  78.5999855  42.7479736   2.0092447  26.0804209  56.4498893   3.3328970
  26.0990557  55.5631534   2.9729040  25.4658398  56.9231883   2.7720792
  93.7867092  24.4166196  60.5515051  93.7172149  24.7469152  59.6557856
  92.9167627  24.0681756  60.7464647 101.8638802  61.8775558  65.7291365
 102.4711227  62.5514030  65.4234886 101.0606098  62.3551464  65.9362411
   4.3698511 102.3313167  19.4906957   4.8606262 103.0951860  19.1875799
   4.9165640 101.9532373  20.1794584   1.2826382 100.4886436  24.0779257
   1.4725815 101.0498142  23.3261013   2.1019970 100.4650116  24.5722270
   2.1697556  95.6709194  72.5682211   1.4564549  95.8338642  73.1853724
   2.8717934  96.2555790  72.8537989  55.3540310  36.6547958  29.5850046
  54.6659168  37.3195735  29.5568140  54.8847374  35.8292762  29.7054632
  67.8199291  71.8406963  87.9984188  68.0625820  72.0558882  87.0978451
  68.2807779  72.4882030  88.5318851  32.9935631  40.9593765   0.3452737
  33.2606968  40.0901214   0.6440313  33.2172855  40.9720413  -0.5853217
  75.8388981  25.4574958   6.1254461  75.1253876  25.2933017   6.7420252
  76.5351757  24.8610250   6.4005144  56.7702246  98.7815571  52.3027706
  57.3875570  99.4370365  52.6275396  56.9162798  98.0177307  52.8608656
  82.0373154 101.8088341  77.0308876  82.3625469 101.1313152  76.4380789
  82.3267269 101.5268898  77.8986311  20.7691250  30.4685415  80.5557632
  20.0948105  29.7895730  80.5328560  21.4482460  30.1518358  79.9601746
 106.1956619   4.2448343  39.0219712 105.5178474   4.8726572  38.7716889
 107.0122837   4.6392168  38.7156582  89.9865341  76.2278080  71.1955166
  89.4667435  75.7447195  70.5531216  90.8852100  75.9339905  71.0461998
 103.4743475  13.3895029  69.8098660 103.1936191  12.6180566  70.3020906
 103.0190157  14.1197694  70.2289343  80.2247429  69.1943359  61.5739107
  79.9401045  68.2804489  61.5787029  80.3068733  69.4147539  60.6460619
  20.9097538  16.5286172  54.8812389  21.3255177  17.1823801  54.3191242
  20.5425987  17.0346464  55.6060648  86.3848289  41.9874755  18.8271959
  85.6071552  41.6717807  19.2873914  86.7992386  41.1950771  18.4857233
  57.2575554  24.4297162   7.2915609  56.4499077  24.9066249   7.4825914
  57.0116886  23.8064186   6.6079767  70.2112246  76.8161249  67.2337866
  69.7039557  77.5423050  66.8710661  69.8729515  76.0405636  66.7862225
  77.7376890  69.9471283  75.8481407  77.2341585  69.4743872  75.1854134
  78.2257605  70.6055021  75.3536129  44.0163883   7.9299632  14.4480283
  44.7791466   7.4761812  14.8065050  43.4586891   7.2298280  14.1088827
  86.4310360  98.9840317  81.4202881  85.6373501  98.9076042  80.8907127
  86.1374760  99.3937969  82.2340202  13.9018879  12.7106870  68.2619667
  13.9476261  11.7681802  68.4226418  13.7078056  13.0905927  69.1188431
  50.2556213  58.2367984   5.1466520  50.9867176  58.8091461   4.9139173
  50.5739006  57.7347556   5.8969076  26.8527778  21.1405937   0.6302984
  26.3671860  20.6240598  -0.0128405  26.8553957  22.0281736   0.2719267
  95.2021599  75.9375954  69.7350883  96.0230637  76.0598326  69.2582273
  95.1789188  76.6611433  70.3613234   6.1744343  88.2543755  67.4479485
   5.3680550  88.6852264  67.1644783   6.1252152  88.2590771  68.4038687
 105.9397030 101.7126083  76.8292809 106.0821342 102.6476479  76.6821814
 105.2690506 101.4691925  76.1911583  69.9762806  19.0201751  14.8413904
  70.1479038  19.6288053  15.5599649  69.0539345  18.7848083  14.9419840
  80.1818371  78.5615206  81.5736389  79.5787239  79.2630672  81.3280582
  80.9832287  78.7531567  81.0865307  92.8137970  87.9810524  79.5071220
  92.6984978  87.0359230  79.4088316  93.7121105  88.1439495  79.2194891
  17.9984554  52.6680938  10.7713754  17.3772940  51.9508354  10.6452043
  17.5446924  53.4401599  10.4333646  39.6770058   7.1010793  68.9992666
  40.3698216   7.4507917  68.4389687  39.0321980   7.8065790  69.0514755
 101.3679718  22.7127183  86.8101501 100.7916330  23.2863630  86.3051796
 101.3599800  21.8837751  86.3315964  30.8563646  33.8454715  15.6160028
  30.3178057  33.5010330  16.3284261  31.6209730  34.2201034  16.0533292
  45.4436287  33.8201515  12.2693594  44.8530754  33.4502593  11.6131170
  44.9091324  33.8899700  13.0603559  29.6674808  79.8780719  23.5009153
  29.0992054  79.1376010  23.7130506  30.4908403  79.4763366  23.2235773
  99.5802784  98.6453629  70.8575821 100.0093269  99.3315125  71.3688087
 100.1561832  98.5120583  70.1047230  37.6735386  63.4573451  12.6168401
  37.9725250  62.5950996  12.3281248  38.0284818  64.0639106  11.9669778
  98.5058975  83.4829330  56.3314629  98.9340782  83.6178398  57.1768570
  98.1162834  84.3318272  56.1221457  35.4414043  40.4578794  74.7084522
  36.1214886  40.3100122  74.0513039  34.8701820  39.6930231  74.6382618
  64.9092850  20.0090162   6.3457544  64.3060001  20.2870504   7.0349271
  64.8942074  19.0527669   6.3856657 100.2664471  89.7252750  52.9258347
 101.0665417  89.2325401  53.1082916 100.4951954  90.6341171  53.1205606
  14.2040024  10.1712144  64.3811655  14.9979553  10.6462968  64.1358376
  13.5507450  10.8555425  64.5267153  32.1508058  21.4650003   5.6801660
  31.3917002  21.4240209   6.2618120  31.7993006  21.2631456   4.8130281
  26.9331821  49.7748939  13.4290750  27.0075258  50.6552211  13.0606802
  27.7388033  49.6570579  13.9323862   8.3213482  49.5392240  86.9813442
   8.5084496  50.4277242  86.6783619   7.5516949  49.6345914  87.5423908
  77.1645473   4.1982378  82.2803974  76.3505243   4.1973222  81.7768097
  76.9799351   3.6391366  83.0350876  53.0497154  68.4643833   3.7017782
  52.1006759  68.5837261   3.6657388  53.2660946  68.0170242   2.8836782
  46.2605556  47.0982257  31.5125139  46.7131409  47.4023429  32.2992189
  45.3353390  47.0871631  31.7576463 100.9123516  86.1481285  78.1149530
 100.6493378  85.2832699  77.8001976 100.0873756  86.6119003  78.2583809
  72.5796747  86.5437603  61.9623852  72.3060417  87.4476814  61.8065166
  72.0719385  86.2680244  62.7255392  60.8808693  57.8407184   6.3763101
  60.8230194  57.3483745   5.5574854  61.5288719  58.5228912   6.2003381
 106.6136646  64.6621799  48.7374830 106.6344833  65.5245256  48.3225584
 105.9421921  64.1802359  48.2546902  80.5596733  81.2415886  73.9932728
  79.8304987  80.6660652  74.2241669  81.1133480  80.7092667  73.4220409
  24.0543804  13.6895002  70.6871986  24.7260819  13.0468286  70.9152746
  23.5786495  13.8389791  71.5042496  20.3145441  49.0959445  19.2513807
  21.0561260  49.6723453  19.0668161  19.8297628  49.0579120  18.4268911
  44.0205273  84.9348537   2.4753721  44.8552593  84.5460693   2.2140558
  44.0444740  85.8201209   2.1120889  91.1462101  41.6877548   1.7558439
  90.5792793  41.5124694   1.0047777  91.3451465  40.8222190   2.1129186
  70.0271473   0.9367860  79.0359449  70.7925282   1.4254774  78.7332869
  69.6015987   1.5221513  79.6624279  77.9888248  80.3652096  80.9805202
  78.2715464  81.0447788  81.5924740  77.4656534  79.7660351  81.5129757
  17.4575768   5.2378286  81.0211277  17.5340614   5.8252634  81.7729950
  16.7345295   4.6526540  81.2469482  25.5198940  72.4291603   4.5044477
  25.2724584  72.4167339   5.4290350  25.1836380  73.2636730   4.1777189
  17.2413956  89.4399738  49.6006727  16.4999043  89.3609333  50.2008247
  17.9787194  89.0618324  50.0798273  40.5734692   0.9056009  74.3476725
  41.3259850   1.4725984  74.5164061  39.8790703   1.5045274  74.0732288
   6.6309662  33.5342399   9.7460420   5.8894367  33.6966888  10.3291185
   6.7161007  34.3401424   9.2366083  92.9376698  50.5229473  77.3752165
  93.7950134  50.6523037  77.7807522  92.3264027  50.4944468  78.1112719
  31.8805631  52.5592891  21.5653188  31.6680511  52.3180477  22.4669130
  31.2549528  52.0686427  21.0322912  59.6012259  74.3702459  66.6683292
  59.7061205  73.4872293  66.3140583  59.3729019  74.9071980  65.9095287
  10.4298935  22.6626314  68.6803198  10.6263790  21.8649305  69.1715384
  10.1860294  23.3020700  69.3495512  58.1158050  52.7231113   4.6579893
  58.9997372  52.6275150   5.0125940  57.8706726  53.6248008   4.8655946
  64.1391087  94.4798756  81.5771389  64.2976522  95.2768230  81.0711956
  63.2161665  94.5333099  81.8252373  83.0891918  12.3884595  31.7880726
  82.9622577  13.0994905  31.1599350  83.5232280  12.8024877  32.5340104
 108.0759907  80.6568527  53.5925770 108.7246895  80.1685619  54.0995264
 107.2490025  80.2067757  53.7650537  76.8516970 102.4380970  71.1901236
  77.0883131 101.5416527  70.9521389  76.7099047 102.4052525  72.1361971
 100.6412697  70.7416391  72.8903723 100.9306526  70.1356840  72.2082376
 100.7544804  70.2549744  73.7068129  69.0172291  92.6205254  79.4021988
  69.9321318  92.5731373  79.1248083  68.9381599  93.4773445  79.8215294
  40.8778572  92.5073338  66.3485146  40.7951784  91.5694427  66.5210152
  40.0352192  92.7561951  65.9687042  62.0965847  49.4701187  31.9393404
  61.6413292  48.9216224  31.3005026  62.4954113  48.8482181  32.5479562
  57.1413946  69.2459726  66.0350275  56.9693804  70.0583649  66.5111208
  57.7698612  68.7757635  66.5829086  24.0053234   6.5219606  71.8520594
  23.8358460   6.8161310  70.9570932  23.3433876   6.9681562  72.3802423
  15.6415592  92.8783512  75.7596159  16.2779652  92.4815845  76.3544321
  15.5982529  92.2747993  75.0179386  59.9407944  60.1310054  25.8648451
  60.0810989  59.8982040  26.7826421  60.5233272  60.8755771  25.7148702
  52.3372231  12.1301473  73.9107466  52.3239193  11.3521589  73.3532524
  53.2598362  12.3824323  73.9478922  26.1947022  20.9445775  67.2913122
  25.6189976  21.5465082  67.7629948  25.5983505  20.3538431  66.8312788
  79.8979139  91.6088295  50.1709700  79.5111752  92.1756935  50.8382940
  79.4931173  90.7541370  50.3188515  92.7089500  66.3311148  88.0567932
  93.1403065  66.1673641  88.8954544  91.8222141  66.6036367  88.2927132
  96.1018562  98.6279392  38.3502626  95.6237602  98.1938648  37.6436996
  97.0134163  98.3676338  38.2178521  42.0106945   8.6524404  43.5313797
  41.4583168   8.8908876  42.7868938  42.0535431   9.4477762  44.0622663
 102.7566503  15.1469720  56.1323881 102.5918983  15.6825174  56.9084501
 103.4615873  14.5551122  56.3950539  74.7541475  86.5947914  76.0817623
  75.4528952  87.1674824  76.3980055  75.2101898  85.8217907  75.7490015
   1.7412014  71.1620132   1.3490446   1.8983765  71.1102191   2.2918375
   1.6004295  70.2544109   1.0794790  48.8838981  60.4539755   3.9267976
  48.2140301  60.8525231   4.4823702  49.3432509  59.8448834   4.5049245
  39.0457535  14.1432881  61.1538506  39.9957824  14.0524185  61.2274551
  38.7499046  14.2996192  62.0506620  27.2410226  14.2895973  63.3051729
  27.3219061  14.3038428  64.2588425  26.3263988  14.0565586  63.1458282
  84.1632416  71.9003402  42.4309111  84.9053147  72.4978172  42.5235415
  83.4264197  72.3714434  42.8199959  71.1321806  18.2917860   5.7552965
  71.9468569  18.7595394   5.5716093  70.8042573  18.0344155   4.8936327
   0.6520702  67.2362958  34.0290999   0.8990766  66.4082800  34.4409347
  -0.2010154  67.4473774  34.4084692  15.6189966  -0.1188451  74.3557119
  15.7324243   0.0660921  73.4234238  16.2411964   0.4626700  74.7926760
  32.8431654  23.3739710  69.4260454  32.2503710  22.8015494  68.9390516
  33.6689830  22.8911042  69.4591522  42.5056410  15.9687281  64.1680098
  43.2526302  16.5672398  64.1637325  42.0215750  16.1841309  63.3708191
  11.4773489 102.2246294  45.3545570  10.7506872 102.7480989  45.0166512
  12.0388056 102.0750420  44.5938826  65.1804781  16.9311035  75.0001192
  65.0950623  16.3216054  74.2670107  66.0934925  17.2168660  74.9688911
  49.3672037   3.0866209  66.7787123  49.9919748   3.7803811  66.5675545
  49.8069763   2.5642991  67.4495411  18.4330904   3.0057338  42.9774475
  18.7799239   3.2450703  43.8368988  19.2094851   2.8227589  42.4483347
  28.0682325   2.5887507  34.6609998  28.9013720   2.8825933  35.0294685
  27.7795076   3.3169517  34.1109157  95.5914822  97.4556248  69.2232132
  94.9224868  97.9128223  68.7136555  95.4120507  96.5270590  69.0755606
  15.0672461  77.8036939  63.1075954  14.7271706  78.0548536  63.9663744
  14.3025423  77.4774395  62.6332283   6.9221903  58.2483946  29.3453312
   6.6016270  58.1419741  28.4497046   6.1470391  58.1256472  29.8933339
  53.8415289  31.9699097  47.3372793  54.7188711  31.7601538  47.6574373
  53.9832401  32.6490903  46.6778374   6.3258111  22.6900887  47.3358583
   5.8586287  23.4731078  47.0445633   5.8775264  21.9667816  46.8975687
  66.9344615  77.4475720  10.9926183  67.4772309  77.5271943  10.2082117
  67.1148871  76.5664914  11.3203008  26.7610574   5.3895313  43.3594894
  26.6538572   5.3264260  42.4104071  26.2727356   4.6426725  43.7058640
  52.5649357   4.3495151  72.3600674  52.3508596   5.2645600  72.5419903
  51.7515993   3.9762142  72.0204163  11.3974702  26.7696071  62.2312021
  11.8232405  27.5653791  62.5501060  11.9453371  26.0567427  62.5596809
  85.5412962  88.3652913  82.9948044  84.7705986  87.9188441  82.6441765
  85.8350792  87.8065514  83.7143421  70.2004719   0.7298552  59.4433069
  69.5884466   0.6588849  60.1758480  70.0698233   1.6164869  59.1070843
  18.6325002  22.1999717  56.7200279  19.5322597  21.9016910  56.5870190
  18.1021917  21.6056013  56.1892509  18.9506149  53.9256287  66.8120575
  18.0358434  53.6664915  66.9228458  19.2036963  54.2811775  67.6639748
  33.4498947  76.4712456  18.1091459  34.0451710  77.2202065  18.1397493
  33.7544172  75.9535602  17.3638303   6.4027239 102.2656508  57.4087048
   6.9260479 102.8615014  57.9447365   5.6202627 102.0961353  57.9333496
 108.3777701   9.5536399  63.9550495 107.4661369   9.3925476  63.7117290
 108.8289130   8.7349486  63.7490225  21.3575627  80.8397948  57.6152420
  21.0084797  80.1721751  58.2057142  21.3278795  80.4328763  56.7493486
  39.0798879   3.7094370  32.3351598  39.6073246   3.1475210  31.7674518
  39.5082498   4.5642895  32.2908401  39.3957806  10.0353742  82.7585411
  38.7861347  10.4772413  82.1675110  40.0727558  10.6883216  82.9362965
  98.8295927  43.7102305  32.4603081  99.6141376  43.4866988  31.9595528
  98.1716576  43.0788933  32.1691632   6.5002000   6.0142010  51.3027906
   6.4686126   6.5994924  52.0595407   6.9221997   5.2203786  51.6314173
  81.3074686  94.0228259  30.7116461  80.6215825  93.5633039  30.2272582
  82.1120437  93.8269167  30.2315307   9.4098163  11.8577456  41.6311502
  10.2671874  11.4588058  41.7794514   9.5129848  12.3518002  40.8178282
  83.3980741  89.7431516  85.5235672  83.1904640  88.8454210  85.2643204
  84.2563536  89.6790718  85.9424686  24.9659634  11.3303244  60.9956646
  25.5635643  10.8317089  61.5528822  24.4884801  11.8959999  61.6025066
  18.5072590  90.6414293  52.0969343  18.5166432  90.3351580  53.0037642
  17.7313734  90.2321278  51.7139101   1.8277169  81.3503562  77.6770163
   1.6215469  82.2825395  77.6080322   2.7006508  81.3264905  78.0690002
  66.7961572  80.0792149   0.3770406  65.9426497  80.2859881  -0.0037520
  67.2037076  79.4876817  -0.2555983  68.6995854  81.3231074  63.8707399
  67.7465101  81.4045154  63.9061117  68.9387589  81.6788875  63.0149078
  14.2736161  63.9500332  50.1785612  14.7579241  64.7318649  50.4439306
  14.9241769  63.2480955  50.1953888  66.5283774  44.9299618   5.4463823
  66.0277389  45.7240990   5.2594621  65.8645223  44.2505768   5.5645521
   0.4670210  44.4386482  75.0651884   0.2002662  44.2258978  74.1708660
  -0.3451682  44.4089699  75.5708551  86.2017145  71.0610806  59.4194651
  86.9837251  71.5775405  59.6143055  85.9243359  71.3634264  58.5546637
  36.0862231   9.9152833  47.0052242  36.9564009  10.0592923  47.3770905
  35.9332824  10.6801438  46.4504004 102.0832004  59.4493519  48.5879135
 102.7652349  59.0115487  49.0972185 101.3329282  58.8566529  48.6330080
  27.2929566  48.9735853   3.4661729  26.6152601  48.3132130   3.3217199
  26.9608753  49.5029346   4.1912611  65.7024382  71.4884952  32.1030195
  66.5347718  71.2129214  32.4870927  65.8168958  72.4226287  31.9282968
  48.2849312  33.7647438  11.7659569  47.3348427  33.6485219  11.7736888
  48.4402084  34.4229460  11.0885429  32.1123028  47.2523022  88.3383083
  31.9970727  46.5449476  88.9728165  31.8303204  46.8749094  87.5050640
  91.5579989  69.1398393  61.4537621  92.4322953  69.0742027  61.0696697
  91.2419524  68.2368790  61.4855528  78.8621619  99.8819809  88.5406399
  79.1459277  99.6044733  89.4116688  79.4668933 100.5853886  88.3045292
  19.2421854  21.9222903  53.7126875  19.0552509  22.8529167  53.5893154
  18.3956730  21.5355730  53.9365196  30.6133890  15.5783141  64.0311050
  30.0625253  14.9489558  63.5656071  31.4983654  15.4056370  63.7098026
   0.2478529  98.3853640  73.4789371   0.2736236  99.2754137  73.1276846
   0.3016735  98.5006269  74.4276476  63.2449961  17.4035668  50.0265980
  62.2980261  17.5165236  50.1085806  63.4462404  16.6542280  50.5871534
  14.4775177  95.1775288  67.5412178  15.1774622  94.5407902  67.3967457
  14.8072077  95.9880506  67.1531582 105.3136172  98.7220072  34.6925688
 104.5130053  98.7133502  34.1679978 105.5976262  99.6360310  34.6810675
  59.8649979   0.9119299  61.6167355  59.4820976   0.0348223  61.6340351
  60.6988573   0.8002846  61.1601686  18.7555434  99.8244779  76.5805721
  18.4765984 100.5983490  76.0911417  19.6452166  99.6534907  76.2715769
 101.6308131  92.7911769  34.5145559 101.5569653  92.7082228  35.4652905
 102.4034109  92.2733842  34.2882490  93.6621370  93.9893024  55.1758003
  93.3716526  93.0788582  55.1215553  93.9526358  94.0944504  56.0817766
  81.1885419  81.4154064  58.3839273  81.4441862  81.7948877  59.2246819
  80.2369007  81.5145241  58.3558655  22.7002048   9.4402719  48.1221247
  23.0628133   8.8562304  47.4560595  22.3400593   8.8521647  48.7859440
   0.0527964  44.1483733  14.0672357   0.0130854  44.8801514  14.6829946
   0.8658705  43.6938330  14.2875345  73.0017112  28.1213406   4.3452795
  72.5974940  27.9822424   5.2017172  72.3348378  27.8428700   3.7176092
 101.5412726  89.3243586  44.3052912 101.0811725  88.5543012  43.9713049
 101.7294874  89.1130244  45.2197027  57.3976994  22.8019476   9.5343184
  58.3390856  22.6391983   9.4748509  57.2532368  23.5746002   8.9880848
   4.8923661  87.6901852  85.5676079   4.2827154  88.3803665  85.8287716
   5.4345442  88.0934726  84.8896408  75.8071496  68.9454447  54.0130663
  75.1673123  68.7413179  54.6951008  75.7802948  69.8992573  53.9372015
   8.6285971  68.2860258   2.2685964   8.0552982  67.6608351   1.8250902
   9.3081592  67.7446416   2.6702554  26.4076210  88.8991045  62.6804066
  26.0742213  89.5403074  63.3080530  26.5734698  88.1152021  63.2040691
  82.2305813  98.4716829  85.9910679  81.5091588  98.0505510  86.4584351
  82.4192514  97.8823828  85.2607536  19.5070851  29.9441195   9.8154193
  18.8768566  29.6847272   9.1432887  20.3374457  30.0259542   9.3463379
  68.2251256  78.7434517  50.3972912  67.8301873  78.1697880  51.0539246
  67.8169283  79.5961105  50.5475521  93.6688080 100.5436731  70.4224443
  93.7958398 100.1950951  71.3048220  93.0761447  99.9207126  70.0018501
   8.4116532  50.5037056  77.9438543   8.0980850  49.9623047  78.6682796
   7.6665999  51.0623442  77.7223825  48.5578251  22.8045893  62.0218277
  48.0773544  23.4963965  62.4765587  49.4705772  23.0919552  62.0448971
  19.4047737  14.2718005  65.0117683  19.2771816  15.1827610  65.2765369
  20.2189445  14.0093338  65.4412651 108.3198252  98.4859305  48.4735441
 108.4943285  99.1488432  49.1416216 109.1842380  98.2560619  48.1326866
  52.7446651  25.0151038  88.6544132  53.4370852  25.6609559  88.7946510
  52.0541191  25.4988599  88.2012558 101.6362586  80.7135235  24.9091268
 100.8911529  81.1569153  24.5035982 101.4215913  79.7825204  24.8509622
  30.9660006  24.5698428  57.2244787  31.3478971  25.4036403  57.4986458
  30.6239104  24.1860723  58.0318975  11.6996145   2.4523152  41.7912483
  11.4764595   1.8776354  41.0590076  10.8586264   2.8006959  42.0872259
  24.9368286   7.6679385  63.9211988  24.3119121   6.9812816  63.6883593
  25.7889175   7.2321862  63.9039660  35.5147911  97.7762394  66.4601135
  35.3527237  98.2690897  67.2645187  34.9576832  98.1968432  65.8051682
  32.9201150  18.9108062  84.8398876  32.3670816  18.1561887  84.6375561
  33.7169671  18.5313034  85.2103424 107.9530921  96.6075747  81.3145542
 107.0239296  96.7730402  81.4742851 107.9672112  96.0572087  80.5315304
 105.5907025  68.9862191  68.5064554 104.9294581  68.9911400  69.1985273
 105.1207151  69.2747389  67.7240896 107.1534171  90.5805778  67.2124815
 106.8826141  89.6693074  67.3242188 107.4903169  90.6223058  66.3175058
   9.4141031  90.4160654  40.7583809   9.7368599  90.3204178  39.8623300
   9.9944235  89.8637544  41.2822247 103.9793410 100.9543641  80.6671715
 104.5084109 101.4221913  81.3132763 103.1618419 100.7573033  81.1244392
  79.0067264 100.7312687  85.5506229  79.7278770 100.6039914  86.1670399
  79.1287395 100.0452649  84.8943138  40.7162237   8.1007844  85.7732201
  41.4696121   8.5697895  85.4145050  40.9533930   7.1762019  85.7015896
  19.3328381  23.7223077  44.6757126  19.3609762  23.3807349  43.7819719
  20.2156854  23.5766315  45.0156975   0.7743273  60.1219359   5.8439691
   0.5959711  60.8503809   6.4387758   0.2850113  60.3360125   5.0496347
  36.8857027  92.0777070  72.4431610  37.7981592  92.2766625  72.2332191
  36.9124247  91.1966764  72.8163910  63.4627581  11.7843950  68.2044458
  64.1202164  11.3804746  68.7708664  62.6655149  11.7969775  68.7340450
  89.7767332  88.6424815  75.3768969  90.3076293  89.3588816  75.0288296
  88.8749018  88.9545023  75.3022385  15.2172734  97.9445117  58.4577370
  14.4935585  97.4169194  58.7955427  14.8411537  98.4212195  57.7177954
  87.8385928  95.1813810  82.2229290  88.3052638  95.5481212  82.9738998
  87.1076801  94.6979033  82.6079559  25.8295894  46.2736225  30.5761600
  25.0346875  45.7595634  30.4343629  25.5684972  47.1751595  30.3882909
  16.9472182   9.9452925  57.9035807  17.1029198  10.0289011  56.9628382
  17.5936377  10.5254388  58.3058310   8.8552023  89.2959820  62.8917599
   8.8832546  90.1888155  62.5478220   9.7421337  88.9607822  62.7605200
  86.0437298  11.0122275  84.6422100  86.2963200  11.9332528  84.5778370
  86.8371391  10.5295169  84.4104195  67.2590207  65.1642671  25.2159650
  68.0237077  65.0227788  24.6578653  67.5169419  65.8781114  25.7991750
  14.7139120   0.2093272  57.0068359  14.7652578   1.1410034  56.7933559
  15.2154994   0.1213258  57.8173304  19.3860531   0.9581614  27.0804930
  19.7758162   0.1902230  26.6626573  20.0260377   1.6564921  26.9427109
  32.0267653   7.0585400  77.3321199  32.3911619   7.0443541  78.2171297
  31.0907459   6.9011688  77.4559450  18.3155800  87.4025320  62.0203352
  18.3213831  86.7125498  61.3569212  17.5295044  87.2299468  62.5385380
  65.2684021  32.2798443  39.7428608  64.8105192  32.9319811  39.2124891
  66.0432625  32.0538688  39.2283177 103.8175272  13.0770162  24.0556486
 103.1577133  13.4397796  24.6466501 103.7928699  12.1341684  24.2189367
  31.2201524  10.0558090  58.9245176  31.5987134  10.7936549  59.4025421
  31.2387776  10.3296328  58.0075073   1.5444888  32.2532725  26.7508388
   0.9628470  31.5432453  26.4791989   2.2060001  31.8260717  27.2950196
  41.5523529   8.5234624  65.7234478  40.6012678   8.6071092  65.6551313
  41.7513371   8.7805015  66.6237640  46.3771391  42.0612526  87.5464058
  45.6823635  42.5523090  87.9850197  46.2087870  41.1482000  87.7792454
  65.2523707  57.8666684  15.2140005  64.8530959  58.6966911  14.9534757
  66.0890363  57.8471061  14.7494180 102.3109355  86.0394596  85.2591991
 102.8601518  85.9484207  86.0378551 102.7396741  85.4952227  84.5987225
  71.1929893  23.6781955  76.3413906  70.2452755  23.5514426  76.2966013
  71.3001633  24.5568824  76.7056036  31.7727232  24.0651917  79.0701342
  32.4243116  24.1444802  79.7668219  32.2652245  24.2158294  78.2632971
  60.2382755  -0.0469835  76.8846273  60.4370070   0.7509985  77.3744869
  61.0162544  -0.5941416  76.9923162  55.0325775  20.6119514  52.8031349
  55.1180124  20.8645034  51.8838167  54.9898911  19.6558583  52.7858925
  54.7831177  71.5467837   1.1806734  54.6083258  71.3342491   0.2638776
  55.5251359  70.9907010   1.4181860 102.7088474  26.5406611  10.5450018
 102.0929168  26.3483646   9.8379762 103.5723566  26.4278176  10.1476915
  39.2728543   2.0721814  86.0112572  40.0970268   1.6093463  85.8603954
  38.6840749   1.4044455  86.3629627   6.7750002  96.7234479  54.7623444
   6.5280701  96.6370826  55.6831026   6.7144276  97.6621532  54.5851564
  72.5333691  85.6989657  33.7219167  72.6085540  85.9665119  32.8059483
  72.7854905  86.4765023  34.2200184  70.4297495   6.7812222  76.2085152
  70.1920271   6.4265424  75.3518200  69.5928478   6.9112039  76.6545391
  63.6340283  49.5389117   5.9445436  62.9413532  49.7038843   6.5842397
  63.3510469  50.0070092   5.1590212  15.8659720   4.1636363  74.7169971
  16.4911962   3.5042566  75.0179052  15.5880034   3.8543227  73.8548565
  37.3261523  31.8744183  45.9483576  37.1498942  32.1413875  46.8505192
  37.5987744  32.6800036  45.5091047  43.9066315  10.1203918  62.3473930
  43.1419706   9.7664422  62.8015375  44.3077946  10.7148659  62.9813480
  50.6491995  10.5216193  49.3314075  51.1607361  10.1804876  50.0650215
  51.2329149  10.4457152  48.5765886 104.4787059   9.7055185  78.7351704
 103.8434292   9.8675317  79.4325972 104.3294634  10.4116929  78.1064606
  21.7419386   3.9858440  78.7577915  22.6942968   3.9173207  78.8252401
  21.4768362   3.1912014  78.2946539  93.1468573  93.9551996  62.5389385
  93.6474266  94.2946409  63.2808590  93.8110580  93.6979788  61.8994808
  43.4152317   2.8119364  52.9770565  44.1228724   2.7525404  52.3352242
  43.3886051   1.9464250  53.3849907  24.3515849   2.9700774  78.8332844
  25.2530909   3.0634090  79.1411972  24.4357109   2.5994664  77.9547596
  10.1600481 102.2824434  55.2244329  10.4052521 103.1565921  54.9211645
   9.8715521 101.8267511  54.4336462  36.2713003   8.3634746  80.7350254
  36.6961980   7.5236011  80.5609417  35.8371782   8.2417995  81.5793991
  28.0038238   7.0424408  33.9699554  28.9117575   6.8424344  33.7421679
  28.0111456   7.1371692  34.9224281  97.9202725  20.2436113  40.5621433
  98.7949253  19.9043727  40.3720617  97.8506161  20.2053285  41.5160418
   0.8081568  27.4244452  70.4599190   1.3796085  27.8616476  71.0912132
  -0.0775751  27.5959325  70.7797670  29.4860291  15.3856087  59.0729666
  28.7857771  15.3868318  59.7255564  29.4978642  16.2802017  58.7326765
  53.1958294   6.3075548  46.0684347  53.1303263   7.1858913  46.4432240
  52.3322773   5.9206182  46.2126064  39.0783119  25.3579831  64.1127682
  38.5773277  25.0006008  63.3796072  39.9502158  25.5180407  63.7516594
  61.8892622   5.3832704  60.2424574  62.3879194   6.1618382  59.9946547
  62.5442028   4.7824442  60.5978394  56.2129830  57.4976632   6.4421423
  56.3343142  56.5871790   6.7114504  56.9737695  57.6885697   5.8935125
  28.0828762  26.0328865  75.1322031  28.3198404  25.3955746  74.4584703
  27.9628611  25.5099773  75.9249163  91.2243917  90.4104828  41.7245579
  91.3229003  89.9214016  42.5414610  90.3472748  90.7901501  41.7769909
  18.4545696   4.7729617  72.9931211  18.0168772   5.6100577  72.8384352
  19.0421498   4.9423909  73.7295151  82.1018982   0.2069966  75.6196451
  82.7947998   0.0477263  76.2605429  81.2905502   0.1451966  76.1237526
  22.7009702  23.5292172  50.6460238  22.5605440  22.7022123  51.1070824
  21.8759131  23.6915684  50.1886940  60.8858036  65.1683834   0.3773744
  61.4076399  65.6903925  -0.2320711  61.5178369  64.8496106   1.0216959
  81.4515018  32.6588321  65.3639412  80.7511330  32.8622842  64.7440004
  81.9443798  33.4753752  65.4449034  49.0340339  69.6487525   5.1961477
  48.5399483  69.2901686   4.4589098  48.4087979  70.2121392   5.6521185
  77.2977947  34.2191961   8.3416231  77.7292131  33.4888568   7.8980978
  77.2670625  34.9142149   7.6841791 102.3375406  75.8888351  59.1659832
 102.1168055  75.5169951  60.0199413 102.5551357  76.8023216  59.3515205
  13.6149908  98.7110554  53.2336903  13.8255526  98.2037549  52.4497652
  13.8187624  99.6154975  52.9955864  26.9929075  13.1332731  33.2077980
  26.1611056  12.8672612  32.8159142  26.8424058  13.0757213  34.1513395
  39.3741798   5.2847111  61.1350107  39.7864223   6.1221546  60.9229326
  38.4347939   5.4665214  61.1079597  57.8979086  46.6345706   0.8996542
  58.1037472  47.5561327   0.7428510  57.7659820  46.2665990   0.0259073
  91.3870897  98.8582431  81.3597202  90.5606761  99.0226056  81.8138790
  91.2615814  99.2367532  80.4895401  48.1188917   6.0472864  66.6515207
  48.3593082   6.2174779  65.7407713  47.2462320   6.4295030  66.7443132
  75.6619740   2.7837637  67.3076439  75.0158739   2.1282382  67.5704622
  75.8169603   3.2983238  68.0997562  99.2599001  82.8135287  74.7144747
  99.6534529  83.6053740  74.3479633  99.9914017  82.3482572  75.1202536
  24.5318699  34.5686769  26.8548036  24.3767405  34.4127536  27.7863908
  23.9679551  35.3114510  26.6391230  25.2467085  91.1211549  79.3619871
  25.1940514  92.0038747  79.7284079  26.1468722  90.8441721  79.5329285
  72.1340561  13.5490596  31.2470078  71.7913532  13.3176911  30.3837252
  72.8677416  12.9493105  31.3820624 105.6766000  48.5488402  22.1457887
 106.5697875  48.2911622  21.9176388 105.4298248  47.9552256  22.8549814
 101.8558763  61.1257532  23.4251650 102.8052019  61.2384870  23.3771856
 101.6351579  61.3368252  24.3323381  29.1945648  17.4149716  23.0748653
  28.7051916  18.0662787  22.5723243  28.5447359  16.7497885  23.3017731
  30.0898194   4.0777269  18.6355007  30.7106519   4.1724938  19.3578720
  30.3037143   4.7960174  18.0400681   7.7172877  61.9930398  39.3077493
   8.2569433  62.5803553  38.7785411   6.8397785  62.3733746  39.2682219
   1.8466569  99.2437403  59.0443993   1.2183143  99.8762985  58.6961365
   1.3137747  98.6309551  59.5511150  84.8204782 101.3177041  86.7920017
  84.7010949 101.1940931  87.7336502  85.1122560 100.4635440  86.4733982
  60.6819215  89.7104727  66.5221405  61.4691486  89.7266637  65.9778547
  59.9708285  89.9336576  65.9214973  93.1478085  77.5226509  63.5595942
  93.8466277  77.0713197  63.0861139  92.7206542  78.0649005  62.8964663
  10.4672313   3.0662674  38.0063343   9.7767240   3.5468510  38.4629202
  11.2742865   3.5225177  38.2445145  59.2083739   7.0171192   2.1013696
  58.5665153   7.0450285   1.3918169  59.4201349   6.0884884   2.1963937
   0.7474781  94.1475063  83.9801121   1.5272571  93.6885582  84.2924309
   0.4577996  93.6392813  83.2224751  40.4657929  85.3702643   6.9799192
  40.7340621  84.9883774   6.1442049  39.6373870  85.8095625   6.7875917
  48.0841398  32.4841738  51.1931324  47.6970577  33.2257438  51.6584015
  47.4805880  31.7589092  51.3542128  75.1570200  38.9772573   5.4539068
  74.7463225  39.8029128   5.7105310  74.4891142  38.3136907   5.6265695
  99.2191257  98.9975767  86.2505627  99.0502276  99.1598152  87.1786785
  99.1063752  98.0525663  86.1482239  29.6935965 101.9822831  66.5356255
  29.0063311 101.3919023  66.2268305  29.3156220 102.4081812  67.3050261
  51.9312143  23.1582475  74.5783281  51.4314747  22.8754425  73.8124895
  51.5537310  24.0066171  74.8107290  94.5641532  88.6700772  53.8979530
  94.7665539  87.7988111  53.5571289  94.8336782  88.6367713  54.8158169
  52.6929855   8.8564229  47.0881176  52.9979753   9.3625510  46.3350916
  53.1054258   9.2772424  47.8424644 102.1246138  88.4135686  87.7288532
 102.0304623  88.8590812  86.8869019 102.4385848  87.5380467  87.5027657
 108.9765142  62.2216788   7.1218832 109.0593265  62.9840806   6.5490682
 108.7382625  62.5870231   7.9739339  51.5733957  29.4073868  86.1785507
  52.1597290  29.8991990  85.6036091  50.7545471  29.3428969  85.6870651
   2.4879092  20.8221531  46.8413925   2.3143879  21.1829758  47.7108335
   3.1619251  21.3944244  46.4747286   1.5882827  85.4742896  72.7230787
   0.6629754  85.2443909  72.8078461   1.9455124  84.8145389  72.1286488
  26.8185377   4.2307591  29.4510603  27.6143718   3.9827883  28.9805412
  26.1390519   4.2531326  28.7772441  87.3400559  64.4327556  69.6477985
  87.7885737  64.4226991  70.4933500  86.4152231  64.5431553  69.8685408
  37.1176839  36.5401387  65.8840084  37.8025532  37.0104432  66.3594055
  37.5654531  36.1691976  65.1236582  34.8654923  71.5953281  27.5180490
  35.4191175  71.3716939  28.2661874  35.4588241  72.0225385  26.9002493
  57.6989174   7.4551541  70.6122494  58.1381273   7.7746183  71.4004564
  57.9085493   6.5216517  70.5829239 102.3101066  77.9167464  14.2691286
 101.5945505  78.4901240  13.9944513 101.9817518  77.0315674  14.1114099
  24.6001339  60.9404421  46.4146757  25.4842925  60.6284666  46.2218761
  24.2810369  60.3494740  47.0967054  36.7957544   3.3094189  58.2212305
  37.4397254   2.9088226  58.8052320  36.3000536   3.9046454  58.7835646
  30.0184369  25.0964832  37.1830511  29.5254517  24.4081020  37.6295185
  29.4671226  25.8750534  37.2612262  49.5888233  37.5862932  51.8888283
  49.9170494  37.7736616  51.0094023  50.2396727  37.9726982  52.4747610
  29.0345120  53.1779909  58.9190769  29.7032857  53.8628006  58.9164400
  28.4701085  53.3972549  59.6604300  30.5635190  41.6168022  74.9017668
  30.8051991  40.7005787  74.7662640  31.3214850  42.1127272  74.5922852
   7.6936413  63.8596522  70.3906631   7.2575928  64.3492304  71.0880899
   7.8966690  64.5183503  69.7264862  30.0735617  33.8699698  65.5825090
  29.9868965  33.1560946  64.9507618  29.6135068  34.6052647  65.1776361
  36.0726285  13.8532877  52.4964237  36.6552520  13.7735593  51.7411566
  35.4034305  13.1837797  52.3544216  56.9347286   3.7467423  46.8431282
  57.8419209   3.5769990  46.5893126  56.9668055   4.5881805  47.2983027
  10.6359221 102.0592251  70.5968666  11.5854765 102.1746168  70.6324100
  10.2958800 102.6689173  71.2517548   0.4361917  98.1515648  78.4725332
   0.4828311  98.4433587  79.3829775  -0.4015111  98.4891172  78.1554508
  53.1111717  23.0624318  70.6318951  54.0399790  23.1651330  70.4245234
  52.8854036  23.8550305  71.1187696  75.2675629  20.7284570  62.5210857
  75.7221127  20.1143622  61.9444513  75.3748369  21.5796971  62.0966911
  69.7455953  62.0828691   0.1846941  70.5796026  61.7974022   0.5577524
  69.8583268  63.0218008   0.0365980  54.1711998  35.5679178  60.8243275
  54.9496984  35.0338316  60.9821939  54.4962263  36.4681959  60.8150101
  45.3717709  34.6501279  78.8735342  46.1076355  34.7625303  78.2717800
  45.4235029  33.7341905  79.1466904  65.7748127   6.5456688  86.2374973
  65.0155354   7.1145630  86.3643265  65.4247427   5.6581622  86.3150501
  36.0022330  32.7467299  63.1735229  35.2435994  32.2371030  63.4581089
  36.4979029  32.9071474  63.9765215  33.7695622  31.1608124  63.2459784
  33.1665111  31.8977690  63.3432150  33.6204791  30.8453369  62.3546410
  93.4716343  94.5267942   2.4089105  92.6185821  94.9608639   2.4199064
  93.3594059  93.7934091   1.8041093  84.9997066  68.5444417  15.7604463
  84.8657535  68.2995823  14.8448427  84.1221546  68.5321155  16.1425264
   8.8663731  40.4904130  13.3753164   8.9754734  40.7870105  12.4717958
   9.4165001  39.7097030  13.4392126  52.0113993  21.9470453  50.6365442
  51.7093897  22.3015356  49.8002672  52.7730036  21.4135337  50.4094934
  43.6774778  32.2827649  77.4266672  43.3313274  32.1134305  78.3028746
  43.3314705  33.1446171  77.1948862  70.8849787  39.7928598   9.5102937
  70.2318786  40.4003361   9.8576696  71.6644334  40.3314486   9.3738992
  88.0040811  67.3413077   5.5249174  88.1891512  67.9241684   4.7885378
  88.5240434  67.6947477   6.2466867  52.0319843  28.4597111  38.3861351
  52.3619318  27.9110765  37.6745415  52.4376965  28.0990338  39.1745138
  62.4819708  22.8164959  60.8682966  62.9900885  23.3413672  61.4868116
  62.2665024  23.4230900  60.1598883  29.4992186  94.9401616  47.9333210
  30.3699852  94.5452582  47.8880548  29.6151663  95.8180462  47.5698566
  93.9107488  76.3881805  10.1586492  93.0213093  76.7262104  10.2628858
  94.4413399  77.1630981   9.9737032  41.4031172  36.6344380  64.4120693
  40.8816099  37.3724675  64.0965176  41.5065718  36.7977357  65.3495502
  28.3625174  25.3471708  45.2550507  29.2785501  25.0757909  45.1961184
  28.3280993  25.9074116  46.0304070  11.8330324  39.5328426  84.7066784
  11.8211460  38.5757160  84.7064114  11.4885545  39.7764111  85.5658913
  55.1892519  12.2826123  62.9770803  55.3851271  11.9138467  62.1157598
  55.0904322  11.5201211  63.5472345  59.0351009   5.0520325  70.5686665
  58.5167122   4.8253363  69.7965813  59.7367573   4.4011718  70.5856037
  42.4624777   8.9418906  68.1705046  42.3881197   8.8404375  69.1194057
  42.7065802   9.8590404  68.0460882 108.6551180  82.7605998  80.2349281
 109.0669384  83.4385227  79.6991491 108.3108869  83.2313906  80.9939289
  26.3461113  31.3056827   8.7664419  26.0833192  31.0931611   9.6619910
  27.0396423  31.9574523   8.8686228  43.1286001  35.8858275  55.6328917
  42.8329706  34.9832964  55.5134344  44.0839672  35.8292365  55.6152916
  17.4658680  14.3785691  67.7751875  16.7505550  14.1391492  68.3644581
  17.1526301  14.1308951  66.9052649 105.8458446  84.7584775  14.0169294
 106.6550802  85.2327421  13.8260229 105.8991073  83.9679792  13.4798010
   4.7369221  17.3222256  60.0213671   4.8724872  18.2642245  59.9189425
   4.3139347  17.2325742  60.8753443 109.1677974  97.3675182   7.3727949
 109.5948147  98.2204035   7.2923525 108.2333111  97.5591209   7.2936781
  28.9213896   6.8019587  47.5565243  29.6665263   6.6327453  46.9800091
  28.1594276   6.7728549  46.9779062  60.1845884  44.5808744  10.6246543
  59.4663572  43.9911985  10.3951752  60.9184885  43.9989376  10.8220756
  25.4067397  31.5196776  61.9445801  25.9128046  31.3293409  61.1547089
  25.9897304  32.0596504  62.4782324   9.8938061  63.7046300  58.0299091
   9.7653700  62.7694737  57.8711033   9.9083496  64.0961038  57.1565437
  62.3931837  27.1340728  88.9843655  63.0393839  27.2191095  89.6853828
  62.8664589  27.3838973  88.1907463  49.3459225  40.4176378  64.4511747
  49.0211916  40.5854416  63.5665178  50.1267862  40.9659386  64.5276976
  57.6313400  14.2558253  68.4585381  58.3417559  13.8786232  67.9396391
  56.8564510  14.1676760  67.9035521  44.0127420  33.3807182  50.8841801
  44.1607523  33.2848167  51.8249893  43.0618286  33.3336496  50.7852983
  25.7775427  89.5666241  46.4110613  25.0891949  89.7057592  45.7606363
  26.2877680  90.3763746  46.3967848  66.5317202  40.4253531  88.0344009
  66.6326857  39.7557402  87.3579025  65.5877495  40.5762959  88.0830002
  40.7342815   2.0548522  48.4154034  41.6160536   2.3365909  48.6589956
  40.7956791   1.8569414  47.4809027  81.8149090  33.2627130  81.7588997
  80.8978081  33.2521892  81.4849377  81.8074894  32.8780150  82.6353645
  20.1577975  93.5039466  42.5295687  20.5795313  92.6640057  42.7108669
  20.8717371  94.1410022  42.5556850 101.2647747  31.3733914  21.5708788
 101.6204952  30.5126694  21.7919023 100.6390737  31.2005189  20.8674200
  20.3134705 100.8589127  38.7778640  19.8926998 100.8731363  37.9182243
  20.9286715 101.5918935  38.7555623  26.3053681  85.7610821  37.1634507
  25.7500435  86.3639807  37.6577806  26.5965248  85.1185285  37.8104281
  30.6328249  20.8944917  72.4944210  30.4695129  20.3888512  71.6982508
  31.5472651  21.1677670  72.4212503  52.8986311   3.3289608  56.8864441
  51.9923449   3.5522914  57.0985794  53.0742836   2.5352129  57.3917580
  13.3740568   2.7571219  49.9356270  13.9206362   3.3305418  50.4729128
  12.4816144   3.0706367  50.0822115  69.3259119  78.0598381   0.2110632
  69.8605107  78.2115200   0.9904440  68.7173127  77.3675516   0.4690988
  62.7210808   3.1528497  51.4788532  63.0501461   3.9494181  51.8952990
  61.9678926   3.4446859  50.9652710  63.6870098  28.0380464  59.0244436
  64.0139627  27.1735239  58.7755775  64.1711855  28.2571697  59.8205566
  33.1042981   8.7274218  46.7700291  34.0330315   8.9349061  46.6668940
  33.0841565   8.0472451  47.4432182  37.6036334  49.4576120  53.2750511
  38.0845642  50.2285004  53.5761642  36.9767976  49.2776012  53.9756966
  60.9163857   1.3961339  42.8394222  60.9123039   0.4542065  43.0096817
  61.8312502   1.6005839  42.6458979  11.7739559  68.4158193  75.5968046
  12.5129153  68.6620604  75.0404501  12.0851637  68.5672270  76.4892483
  28.2310200  12.2870171  60.6816387  28.7954211  12.5331867  59.9487782
  27.5654626  11.7203581  60.2915573  30.8960462  19.6931422  40.9617662
  31.0595322  20.3276086  40.2639437  30.4350352  18.9745522  40.5289555
  33.4202076  95.1501631  64.8455286  32.6786686  94.9391388  64.2782402
  33.9517714  95.7561909  64.3293858  29.4504547  42.0770597  78.5677433
  28.6650705  41.5492105  78.4235907  30.1679587  41.4434862  78.5689545
  41.9135094  15.6048810  57.1857786  42.4466562  14.8306370  57.3661423
  41.3860512  15.7218492  57.9759264  62.1068668  14.9888313  87.0463181
  62.0008802  15.3623295  87.9212475  62.6078606  14.1855884  87.1878719
   0.3950957  31.4877582  83.5903263   0.4716548  32.0230103  84.3801785
   0.9295939  31.9430375  82.9397392  39.1089916  39.9434566  55.4350710
  38.6128569  39.8642349  56.2498140  39.5223880  39.0875411  55.3221893
   5.5816543  31.7816710  45.8081627   5.7346135  30.9124875  46.1787796
   4.6828166  31.7476726  45.4807997  35.3063941  10.1656199  69.5050430
  34.9751973  10.2328587  70.4006004  35.1220584  11.0208464  69.1166639
  32.2925091   0.0790775  52.5607014  31.6943097  -0.0327742  53.2995367
  31.8485165   0.7019040  51.9852066   5.9162175  34.7739959  72.6289463
   6.2201344  33.9768744  73.0630684   5.9356629  34.5609140  71.6959667
  65.2056694   8.9164937  77.9797935  64.6875334   8.4378535  77.3327446
  65.2442694   9.8110712  77.6414537  48.3606672  10.9503126  70.0613070
  48.7138653  11.2727046  69.2321253  48.2396126  10.0112069  69.9211025
  16.5715337  19.3278933  81.7935276  16.4228189  18.4086800  82.0152569
  16.6770995  19.3307400  80.8421707  44.8876667  43.9291477  67.3079824
  44.2139006  44.1951513  67.9336929  45.0300694  44.7046375  66.7652416
  59.4358158  15.3980005  65.1446629  59.6677017  15.1518321  64.2491961
  60.2627897  15.6760609  65.5383968  56.4955639  63.7311736  21.3243444
  55.7057201  63.2229736  21.1396558  56.2901913  64.2095628  22.1275861
   9.4809510  89.1189050  83.5057259   9.4724919  88.8833951  84.4334602
  10.0177170  88.4429811  83.0919170  23.5714269  25.6406736  81.6826248
  23.3932877  24.9168897  81.0820961  22.7054644  25.9501886  81.9482231
  44.4514084  30.9513140  65.3111887  43.9982271  30.3133440  65.8624172
  45.3318739  30.5917335  65.2029753   2.8415594   8.0821091  75.9860468
   2.0739293   7.5553119  76.2084436   2.5155428   8.7276226  75.3589439
  47.3478937  18.1766915  68.1332636  46.7759228  18.0040479  67.3854208
  47.6068544  19.0924323  68.0303621  53.1257010  19.6212399  48.4055805
  52.4726629  19.3169391  47.7753639  53.3508921  18.8412344  48.9126444
   2.1242300  41.1892080  83.6971855   2.5091147  42.0626640  83.6252499
   1.2313120  41.2931156  83.3683491  36.3742447  15.9496868  45.7619715
  35.4370832  15.7958937  45.6423569  36.5360260  16.7892575  45.3316450
  22.5605656  90.7243954  54.6596527  22.1425749  91.4067160  54.1343403
  23.4979130  90.8467614  54.5091772  16.1950995  98.6138835  75.5476093
  16.4694763  97.7326511  75.2938795  16.9012238  98.9319282  76.1101580
  77.3213863   8.5925710  62.1451664  76.5222454   8.8097817  61.6651440
  77.8939199   8.1944543  61.4894676  50.3682374  73.1499198   3.4054430
  50.3723894  74.1065505   3.4381826  51.2737249  72.9000357   3.5895212
  27.8588295   0.8059455  81.5268421  27.8453350   0.9603336  80.5822659
  27.3440170   1.5243784  81.8943405  38.1861734  13.5936236  58.6322737
  38.7354016  12.8290915  58.4588575  38.3705235  13.8191044  59.5440865
  18.7318016  77.8372752  46.7557478  18.1980921  77.7607094  45.9648466
  18.4193016  78.6368715  47.1790886  50.2654123  10.1943111  66.2041235
  51.1941767  10.1686680  65.9739637  49.8437643  10.6105816  65.4523468
   0.0532509 101.4089665  58.4019232   0.6904055 102.1203009  58.4672546
  -0.2051829 101.4027969  57.4802923  21.9346189  32.9342341  79.0560198
  21.4422679  32.2782326  79.5494604  22.0963264  33.6363554  79.6861839
  42.8670765 102.1859406  68.7625647  42.0347000 102.6525035  68.8380957
  42.6210858 101.2973072  68.5055590  51.4909744  43.0168295  82.2606754
  51.1021662  42.1991539  81.9500828  52.4324226  42.8444338  82.2741413
  35.3734326  12.5372350  75.7921028  34.4345164  12.7170002  75.7436037
  35.7866025  13.3961821  75.7041693  37.7074528  13.1500471  69.9230099
  37.9425764  12.3671150  70.4209709  38.4924388  13.6970294  69.9519682
  26.9158006  29.6744347  14.3293703  26.0433936  29.3928885  14.6048105
  27.1218181  29.1165757  13.5793173  11.8610216  80.1501643  82.3452473
  12.2200371  80.2344500  81.4619350  11.5246941  79.2547809  82.3826504
   5.7822777  81.2743603  55.4139328   5.7136036  81.9638835  56.0742903
   5.4083134  80.5007206  55.8356714  48.0645227  25.3897643  56.3325214
  48.1978273  25.5954099  55.4072237  48.4804296  26.1134577  56.8010473
  42.7023554  44.6757078  28.2380104  42.2735405  44.7381973  29.0915012
  43.0866861  45.5412865  28.0991173  37.7060628   1.9154236  64.0567303
  36.9607592   1.4864546  64.4771385  38.3734679   1.2318673  63.9971066
  25.6075978   7.9796940  79.8277092  25.6556177   7.5450099  80.6791687
  24.6976018   7.8678781  79.5526886  30.5796981  21.3300037  84.5431232
  30.5423808  21.4932442  85.4855633  31.2109160  20.6166863  84.4484043
   1.7112066  98.0114835  88.9346886   0.9848000  98.2246651  89.5204544
   2.2846152  98.7768199  88.9758492   2.9324153  48.3592463  70.2033329
   3.0098015  48.8608980  71.0148668   2.0647481  48.5818720  69.8659515
  48.8825178  11.1464143  77.4906492  48.0159187  11.0650897  77.0923710
  48.9867687  10.3447175  78.0031395  47.6728773  13.1971943  61.3044643
  47.1504593  12.3961878  61.3456964  47.0632076  13.8935971  61.5485144
 107.0574474  27.3571372  85.8978748 106.4120252  27.5855827  86.5668106
 107.7845247  27.9606938  86.0505486  47.6705419  86.8509057  10.7839925
  47.8029870  86.9474485  11.7270525  46.8015181  86.4578441  10.7031686
  36.7373919  35.4705691  74.8442221  35.9574938  35.0991488  74.4318676
  36.4160609  35.8593655  75.6577396  46.7052555   7.4267632  78.9045668
  46.5688467   6.5951204  79.3584347  45.8835459   7.9027808  79.0247059
  52.7440405  34.3350697  73.1222725  53.5681868  34.3872023  73.6063147
  52.6669168  33.4124327  72.8793192 103.4445547  19.6513608   4.6061857
 103.0078768  19.8397663   3.7754972 103.7747501  18.7585094   4.5060976
  40.8073092  22.7218509  33.7095237  40.3356266  22.8372216  34.5344090
  40.1431894  22.4081182  33.0957222  71.4800978  29.4321322  51.0170603
  71.1265755  29.0653396  51.8274450  71.0891485  28.9010811  50.3232479
  48.5788679  11.9543087  64.5968866  47.6436329  11.9104958  64.7960138
  48.8566732  12.8046632  64.9374056  17.1346772  41.3513660  64.0225172
  17.1092725  42.1335697  64.5736504  17.2603703  40.6288910  64.6377134
  34.5344853  10.8687305  59.3257523  33.9460397  10.2490425  58.8945293
  34.4327044  11.6807866  58.8293266   2.2141052 102.0773481  29.1764164
   2.6418020 102.0184091  30.0307202   1.4273406 102.5980856  29.3378663
  14.6392092   4.8729507   0.3176744  14.3567547   3.9665262   0.4395158
  15.5647405   4.8702852   0.5618436  48.2997656  14.5753860  56.2291479
  48.8719416  14.3828666  56.9719696  48.8412142  14.4031894  55.4588175
  91.5653347  87.0764735   8.6685808  92.5060295  86.9077709   8.6150129
  91.1587213  86.2625244   8.3712824  14.1629339  71.4141928  73.6600113
  14.2260100  71.6411959  74.5877647  14.8035980  70.7130562  73.5408974
  15.9317709  90.2588104  62.9988575  16.1389805  90.2207934  62.0651293
  15.0911547  90.7148360  63.0392742  50.1078558  28.9244366  60.8568954
  50.2524137  28.0571508  60.4785395  49.2854834  28.8411283  61.3395977
  35.5566931   6.0555840  68.0711317  34.8810911   6.1983526  68.7340117
  36.2193894   5.5261534  68.5147190   5.5273796  83.4915732  68.0831051
   6.1235167  83.0522715  68.6896229   5.0008656  84.0662002  68.6388206
  44.1530657  17.2854817  50.2582407  43.5645533  16.6129637  50.6011724
  45.0097990  17.0621908  50.6220818  14.6224524 101.1444302  88.2196712
  14.3884302 101.9828789  88.6177444  14.7730709 100.5602120  88.9627934
  37.4918938   2.3863254  69.0362406  37.4915934   3.3420476  69.0894175
  37.6290917   2.0963120  69.9380732   8.4923292  77.5253951  71.4193869
   8.8696409  76.6517960  71.3159990   7.6034523  77.4448525  71.0734844
  45.5606556   2.2966917  88.7483501  44.7108650   2.6948276  88.9369678
  45.3893042   1.3549542  88.7486935  32.5442815   0.3714415  79.2071486
  32.2530079   0.4037278  80.1183891  32.7649522  -0.5480642  79.0586710
  14.9825073  97.5677877  24.6522045  14.7029854  97.0303523  25.3933287
  14.4437243  97.2660392  23.9208412  71.9278193  18.3411443  49.6868515
  71.5025043  18.0292869  48.8880491  71.2103128  18.6740232  50.2259302
  83.5915874  95.8141973  11.3993604  82.7912258  95.9551552  11.9051130
  84.1447471  95.2808025  11.9700964  63.1757879  18.8059473  87.0813465
  63.8123274  19.4783998  86.8387413  63.4059381  18.0515075  86.5390491
  58.2299376  17.1614158  80.6969547  58.3780575  17.4606085  81.5940475
  58.1331301  17.9667830  80.1887798  50.3147602   3.3124179  71.1091757
  49.4596577   3.7399888  71.1561728  50.3322506   2.9064691  70.2425003
  15.2274919  12.2961748  58.0130959  16.0431242  12.6161325  57.6276064
  15.4022026  11.3768423  58.2144308  10.7331539  85.4355346  69.2108393
  11.6415335  85.7373272  69.2088079  10.2755524  86.0570466  69.7770119
  43.0182600  19.2942083  71.6876268  43.6845303  19.8699105  72.0629692
  42.5496197  19.8463917  71.0617638  75.4295301  17.0286036  69.8355818
  75.3025723  17.2893906  68.9233828  75.9182787  17.7531159  70.2260160
  43.9019537   3.9026931  82.8382969  44.7600269   3.5768685  82.5666714
  43.7474632   3.4907734  83.6884022  33.9974403  19.9876642  78.5173178
  33.1013513  19.7127151  78.7113762  34.4305515  19.1919124  78.2084036
  54.0235615  19.9605465  59.2834234  54.2624378  19.8851466  58.3595800
  53.1722546  20.3980994  59.2757511  45.6109381  25.8073163  71.7903090
  45.6288338  25.1894736  72.5211859  46.1986780  26.5133882  72.0591164
  46.6402435  11.5963244  58.5113192  47.3434305  12.1257722  58.8874102
  46.3905954  10.9959090  59.2137527  93.8162588  98.6264255   2.4612005
  94.4903015  98.1314733   1.9954450  93.1242441  98.7572267   1.8129404
  75.4474735  31.5051413  70.9053183  75.6843901  32.2786427  70.3936577
  75.7457352  31.7044234  71.7927647  58.3935785  35.2352548  58.6411095
  59.0479517  34.8671031  59.2348194  58.6344290  34.8959231  57.7790880
  40.5185890   8.2186800  76.4016962  40.4815912   8.8755089  77.0969915
  40.4441166   7.3811799  76.8591642  71.4381026  62.4709859  13.4013040
  71.2981604  63.3881953  13.6366232  70.5877446  62.1745172  13.0769117
  58.6960983  18.8932669  42.0263815  58.5892868  18.1501949  42.6202393
  59.0756750  18.5138202  41.2338066  69.2933369   4.9095666  74.1349125
  69.7212172   4.0953410  73.8699865  68.3615398   4.7504649  73.9843369
  78.1501913  18.4831679  53.2517767  77.6591444  17.9677892  52.6118612
  78.2633924  17.8940356  53.9976597  78.3904194  40.2547303   0.2969892
  79.2212175  40.1627794  -0.1694434  77.9416298  39.4215455   0.1533754
  53.9323997  34.9211645  56.7739630  53.6754036  35.4088759  55.9914494
  53.1043291  34.6457672  57.1672583  71.3503313   5.4663360  33.4221649
  72.1066189   5.4302204  32.8365397  70.6527996   5.8480799  32.8892970
  52.5999260  28.9551640  30.2786803  52.7686119  29.8472023  29.9752903
  53.4354687  28.5018992  30.1661968  27.9158974  41.0950232  74.9445820
  28.8714147  41.0526180  74.9069118  27.6784158  41.7411041  74.2794371
  13.7086606  17.5160754  81.5401459  13.7385631  17.6314211  80.5903912
  14.5749509  17.1785271  81.7678165  62.1790838   6.9489342  41.7167473
  62.5774765   6.5374005  42.4836588  62.4313784   6.3861358  40.9847403
  33.8876320  75.1395952  34.6691465  33.6823345  76.0471617  34.4446325
  34.2701985  74.7759806  33.8706112  99.3614029  78.0292395  18.5262258
 100.0799059  77.3973444  18.5524805  99.5774816  78.6073497  17.7945573
  65.6380749  18.7214923  82.6585102  66.5321016  18.7116873  82.3166752
  65.2514601  19.5182133  82.2951984  29.2644548  45.6797886  67.0811176
  29.5538092  46.5813541  67.2214079  30.0702691  45.1943970  66.9042253
  98.5981359  75.1518284  86.2855721  97.8047242  75.2414834  85.7576561
  98.2961979  74.7667419  87.1082401  19.2677534   9.6582079  69.2086411
  19.7584975   9.5344037  68.3961916  19.9225473   9.9534112  69.8413563
   8.2234418  33.8492346  53.8426399   7.7011859  33.0644584  53.6764908
   9.0455949  33.5177779  54.2037964  13.0695416  94.0080511  59.2572260
  13.9821745  93.7418764  59.1454983  12.9765154  94.1553186  60.1984453
  71.5378284   6.1009473  46.1730289  71.8393135   6.6910177  45.4822636
  71.0913706   6.6721684  46.7980194  15.3874910   6.0705763  84.5563793
  16.0923183   6.4213127  84.0119267  14.6588051   5.9394884  83.9496994
  26.0121180  93.5092001  55.5538940  25.1725460  93.4908473  55.0945234
  26.1797501  94.4386785  55.7094574  23.9210296  23.4402657  31.7286229
  23.7695789  22.5367045  31.4513659  23.0516005  23.7700438  31.9557118
  98.4940090  96.4510315  61.7939997  98.5796633  95.5793952  62.1801949
  97.5521054  96.5655833  61.6677999  15.6610609 101.4139090  72.7297974
  14.9156595 102.0031326  72.8456545  16.3557745 101.7985914  73.2642317
  53.1327592  60.4828223   8.4700353  52.5327801  61.2179825   8.3443601
  53.4718322  60.2979705   7.5941999  45.6063223  25.1533318  42.7041245
  44.6801758  25.2346325  42.4763632  46.0380077  24.9362063  41.8778467
 104.4295659  78.6496364  49.4681120 104.5537152  79.4994198  49.8908281
 105.1956310  78.5489975  48.9030886  30.8090973  34.2138076  68.2578087
  30.3325939  34.0602231  67.4419737  30.4182911  33.6025095  68.8821650
  38.3497524  52.9495525  33.4699774  37.9391050  52.5976562  32.6801872
  37.6565433  53.4536695  33.8960767  18.4269263  86.5450977  78.3455849
  17.9909874  87.3446881  78.0508900  17.7384592  86.0442649  78.7830877
  18.4400917  81.7894184  45.2203274  19.1889597  82.1591269  45.6880283
  17.8751303  81.4411198  45.9100628  39.0450072  52.9115343  74.1455555
  39.8192239  52.5058174  73.7554121  39.3716478  53.7197781  74.5408773
  88.4282017   5.2837950  27.6628804  87.8697395   6.0611975  27.6613045
  87.8398037   4.5657367  27.4296045  57.5218725  13.4710693  52.1046019
  57.7869081  13.0655706  51.2790346  56.6654301  13.0884707  52.2952747
  47.8637123  19.5176864  54.9802256  47.5002432  19.8328876  54.1527128
  47.7729225  20.2586341  55.5793810 106.3466572  77.5240806  19.3445547
 106.3491653  78.4787348  19.2748220 106.9562124  77.3344257  20.0577886
  53.7563896  31.4531493  61.3024616  54.4772863  31.2552524  60.7046556
  53.1750917  32.0212531  60.7969141  51.3954235  92.5745117  66.1099863
  52.2457672  92.1399485  66.1755180  51.3215519  93.0796318  66.9196939
  16.6861820  49.9759150  52.5921774  17.6300395  49.9335003  52.7456903
  16.3231552  50.2941656  53.4187126  27.8364205  36.5261722  30.5779457
  28.5909438  36.2553596  30.0548911  27.9544568  36.0809541  31.4170408
  44.1270733   2.7367496  42.6568270  43.7861252   3.2992858  43.3521938
  43.5463238   2.8967443  41.9129467 105.8899836  40.5797815  59.8183584
 105.9901453  40.6566572  60.7671928 105.0447507  40.1461172  59.7010946
  48.7901688  28.1629968  75.0474262  49.0039873  27.6189423  75.8053970
  49.1344738  29.0282369  75.2688837  72.6508808  29.7764540  75.1075172
  72.1178341  30.1739717  74.4189882  73.4245777  29.4462037  74.6508360
  84.7963594  57.3559716  31.0660989  84.3523859  57.1719226  31.8938882
  84.5332121  58.2497635  30.8467252  34.4044113  43.5779190  52.4054337
  34.0115571  43.1106997  53.1427288  34.1770625  43.0509281  51.6393900
  61.4121103  31.7234659  54.9255514  62.0444441  31.3979411  55.5661917
  61.9297743  31.8783927  54.1354561  23.4307362 101.8633590  46.5355587
  23.8043047 100.9982701  46.7037868  23.3978058 102.2814727  47.3959827
  50.8073616  35.1893950  76.6310596  50.0590992  34.9553084  77.1801901
  50.4174280  35.4871035  75.8091402  51.0436153  52.0293093  78.9453077
  50.6998777  51.2062645  79.2926884  51.0449457  51.9066381  77.9960012
  33.5947943   6.7273808  69.7025633  33.9085460   6.5751338  70.5939722
  32.7522278   6.2747490  69.6646261  23.2252288  17.3405349  58.2018709
  23.6718869  17.0358396  58.9917374  22.3064947  17.4151385  58.4599257
  52.3268414  33.5047817  53.5880470  51.3858604  33.4476590  53.7539339
  52.5018740  34.4435310  53.5221243  65.1122379  39.8702002  66.2325239
  64.8405838  39.9897480  67.1425486  66.0212231  40.1695061  66.2126207
  51.6395378  20.0761533  38.3441520  51.1256075  20.6024766  38.9566016
  51.6925240  20.6126666  37.5532174  96.1797546  84.9871400   8.4058054
  97.0262502  85.3058579   8.0925996  96.3999008  84.3603304   9.0949209
  65.5253552  71.8647387  14.8802335  66.4418386  71.6774061  14.6772630
  65.0889753  71.0146609  14.8239381  92.0111370  18.6502528  55.8830357
  91.7109585  19.1898787  56.6144228  91.4367104  17.8847313  55.8986235
  48.1880379  43.3694220  72.7237606  49.0494776  43.7847853  72.6834822
  48.3720827  42.4576807  72.9497814  62.8743458  33.2795787  62.3247051
  62.7762413  32.4619675  62.8126764  63.8190556  33.3738256  62.2027254
  48.1461430  48.2651329  55.1967955  48.5311031  47.3933268  55.2861786
  48.8289165  48.8611603  55.5047083  62.9114962  24.9008656  47.7292109
  62.8360558  24.6159101  46.8185282  63.7077665  25.4317069  47.7488899
  66.5525817  95.1900127  20.6656511  67.4931477  95.3035095  20.5289514
  66.3470124  95.7631710  21.4042051  61.2715006  38.4145379  58.7713480
  61.4551735  38.8635015  57.9461670  60.3178358  38.4384966  58.8499451
  48.7631798  46.1517477  64.4306326  48.3101845  45.4609585  64.9142027
  49.6872473  46.0304022  64.6488333  34.2761493  28.8842130  57.0400190
  35.0330520  28.3572245  56.7838621  34.3465734  29.6780849  56.5098858
  20.8685970  35.6378174  44.1689873  19.9769175  35.9645224  44.0489674
  21.4284801  36.3773012  43.9324951  57.6041673  74.4753626  13.0559118
  56.9258856  73.9957955  12.5803239  57.6228546  75.3379872  12.6414735
  37.0430970  43.0597496  66.4506435  36.4090133  43.4855795  67.0275640
  37.5797009  42.5262070  67.0368385  41.5970898  12.1033108  56.1746931
  41.2450981  11.3185203  56.5947342  42.1262932  12.5215781  56.8538332
  73.0531979  20.3043199  82.4166965  73.6491013  19.8028934  82.9732132
  72.3938799  20.6474257  83.0198669  54.7243738  35.9930015  67.8389120
  54.2521572  35.8958054  68.6658335  54.0917015  36.4020586  67.2484589
  54.7653818  29.3367243  40.1139975  55.0799751  29.0885949  39.2446899
  54.2165709  28.6021948  40.3887749  70.0174236  23.2951045  54.3555975
  70.5785036  23.8886070  54.8547697  70.3758097  23.3163047  53.4682751
  54.0185452  37.1400476  87.2045135  53.5171270  37.6895714  86.6021633
  54.7813702  36.8627429  86.6971397  70.5155516  18.4310770  73.2553244
  70.5250359  19.3240142  72.9106426  71.0977602  17.9432881  72.6728058
  69.4459437  85.4266432  16.6946180  69.8962783  84.9516728  17.3930700
  68.7792276  84.8157099  16.3808019  13.1898654  63.4121847  88.7390900
  14.0728652  63.6442375  89.0266609  12.6551223  64.1714096  88.9711666
  87.9237556  29.2885137  83.6098480  87.6652145  28.3938003  83.8309288
  87.5022125  29.8312140  84.2761898  28.4916496  43.5850096  73.0086136
  28.3138847  44.4954920  72.7727032  29.2740250  43.6284018  73.5583735
  47.8954363  47.9635143  77.1638012  48.2733583  47.8500128  76.2917233
  48.0626774  47.1319580  77.6073980   6.6523200  48.4143925  85.0302505
   7.5197995  48.7551069  85.2484894   6.0676855  48.8198948  85.6705666
  34.7856188  30.1929784  53.0729818  34.9087262  30.9727788  53.6142635
  35.2000666  29.4881225  53.5706234  39.4545054  14.1009676  41.9601250
  39.0310454  14.7450948  41.3926649  40.2700758  13.8835120  41.5086985
  85.6812286  27.9423881  70.0761557  85.8997345  27.5901341  70.9389448
  85.7096767  28.8922429  70.1910305  14.3697143   0.3142544  84.3234634
  14.4663143  -0.4557409  84.8838234  13.4305179   0.3648338  84.1457367
  72.8196621  38.8909459  80.6059456  73.0888128  39.7490644  80.2781868
  73.1009483  38.2765913  79.9279547  59.2221975  35.2281356  62.9005384
  59.7286701  35.1879144  62.0893049  59.8617506  35.0538993  63.5910749
  51.1967611  45.0655699  76.5436125  50.4360962  44.4891548  76.4703465
  51.0589504  45.7308674  75.8693552  37.6893878  31.1313629  51.3090706
  38.5017705  30.9196091  50.8492613  37.4185753  30.3052640  51.7096376
  18.3172059  34.0454292  74.6993780  18.2641184  34.7964287  75.2904940
  18.8307273  33.3971381  75.1812983 106.6161035  74.0985229  13.3348997
 106.6998647  73.1675604  13.1286962 106.0209869  74.1252854  14.0841348
  82.2671318  40.1531315  65.8815193  82.3512268  40.8849955  65.2703428
  82.8653526  39.4875264  65.5419064  51.5540600  43.3192062  51.2373304
  51.9159842  43.4734774  52.1099377  52.1434784  43.7887430  50.6471205
  12.7174091  21.1423087  62.4965000  12.7300429  20.3929615  61.9010639
  12.6988053  21.9061232  61.9198942  28.7224340  34.5589328  72.1598673
  28.5220075  34.9480367  73.0111361  29.6345019  34.2780185  72.2336960
  38.2810760   1.7606616  81.7383957  38.6861610   2.6237196  81.6531372
  38.9929104   1.1894085  82.0268250  28.4507918  25.3765273  80.4627419
  28.0687499  25.1002741  79.6297026  28.7936497  24.5701957  80.8481121
  43.0382919  20.0303888  82.4297237  43.9883757  19.9139702  82.4340534
  42.8165627  20.1558900  81.5070629  51.8518711  89.0346490  61.2253141
  50.9701229  88.6764967  61.1229324  51.7249275  89.9832927  61.2392473
  67.1217775  37.0812559  80.0796318  66.6400957  37.5784516  79.4185638
  67.5733566  36.3983154  79.5837450  44.4265366  43.2108879  77.2882795
  44.6149969  44.0667486  77.6732779  44.2206192  42.6514721  78.0372000
  58.2409191  38.3391881  58.5690546  58.1375360  37.3968172  58.7012720
  57.3507929  38.6596966  58.4235048   3.8236105  15.9712732  30.1671791
   3.5303262  15.8612239  31.0716701   4.5937279  15.4074335  30.0948215
  56.2223530  52.4553537  68.0912209  56.5793610  53.3410883  68.1563616
  55.3472900  52.5763273  67.7226257  36.5406513  46.0334539  72.9647541
  36.8858004  46.9209576  73.0619097  35.6585360  46.1565733  72.6141119
  40.7195616  17.2010648  30.1690269  41.5664291  16.9209361  30.5162692
  40.1933384  16.4017856  30.1473761  43.9765835  49.3258190  67.2056198
  43.0759048  49.0209627  67.3154926  43.9024734  50.2788448  67.1557856
  75.1526070  17.5948453  67.1167231  74.7560692  17.8829622  66.2945414
  74.8866796  16.6793835  67.2030163  53.7428188  33.8203764  43.4309196
  52.9311323  33.3992457  43.1479931  53.6693573  33.8659191  44.3842077
  63.1784344  43.1576633  23.7668443  62.6435566  42.8297806  24.4897771
  63.7568426  42.4275064  23.5465050  23.4491968  12.0775437  44.8516941
  24.2211843  12.1921813  45.4058838  23.7753606  12.1946502  43.9594316
  40.9136057  23.1490254  68.1809521  40.4563332  23.6887050  68.8258362
  40.2610922  22.9848862  67.5001287  54.1658068  58.9465952  66.6480541
  53.9275837  58.1692171  67.1531916  55.0590277  59.1487265  66.9264984
  12.8495146  97.6314740  47.1089697  13.3162714  97.3750197  47.9043293
  12.8736855  98.5883494  47.1150684  40.4892921  17.8722537   8.1129354
  40.4955816  18.5406756   7.4278051  40.2456188  18.3464253   8.9079309
  36.4073515  28.5704017  36.8406391  37.1027207  28.5533166  36.1830664
  36.8191576  28.9542580  37.6147842  58.8034153  26.9371963  74.4949579
  59.0097761  27.6944923  73.9470959  58.9161491  26.1841345  73.9149380
  50.5104876  47.2201109  74.6959686  50.8308268  47.3822689  73.8086557
  51.0184050  47.8159666  75.2466106  91.1038017  23.9682031  80.8094883
  90.9311390  23.7052345  79.9054575  90.2354717  24.0742087  81.1980820
  45.3707504  45.2608442  79.2157841  46.3108635  45.4311562  79.1573572
  45.2945375  44.5560694  79.8589897  87.6763414  82.8210547   0.7189233
  88.5009645  83.2557848   0.5015810  87.9397081  81.9743231   1.0793646
  35.2955079  17.8515029  66.8018723  36.1873174  17.5098550  66.7371655
  34.8947287  17.6358783  65.9597826  42.6651669  46.8803072  64.9750280
  42.3793173  47.2874260  65.7928133  43.5019732  46.4692354  65.1918268
  50.0551319  34.3003464  61.7898846  49.6265078  34.9109435  62.3896217
  50.9887123  34.3942904  61.9791889  12.6498425  60.4623795  82.7243805
  11.7905259  60.1849747  83.0419540  12.5499749  60.5097103  81.7735863
  16.5689480  19.3821239  70.0442028  16.3917089  20.0897789  69.4244862
  15.8102405  18.8032413  69.9701071  60.3485321  65.6842401  11.4555032
  59.4865774  65.2939835  11.6002996  60.4638695  66.2889197  12.1885069
  37.6749253  41.6682196  68.7898731  38.6279416  41.6418839  68.8752985
  37.3951864  42.3235750  69.4290066  82.0887779  74.7980502  13.9161928
  81.6111015  74.9555185  13.1017835  82.3120426  73.8677123  13.8868578
  23.3479500   7.0187467  78.6851263  23.0880189   7.0702928  77.7653360
  22.5210667   6.9940251  79.1666698  71.3388252  36.5464997  71.9317627
  71.3061571  37.3068833  71.3512611  70.5403566  36.0579729  71.7317200
  54.2973042  32.2176456  52.2236395  53.8304806  32.6512980  52.9379606
  55.1988411  32.1437860  52.5367022  73.1063604  33.6024404  71.8997526
  73.0255747  33.6440587  70.9468794  73.9355659  34.0414739  72.0892286
  55.2961206  30.4616785  75.4095554  56.0777617  30.0334477  75.7586718
  55.4119587  30.4341912  74.4597864  62.0851086  50.9498646  16.2489088
  61.5705990  50.7411933  17.0286329  61.4956068  50.7676369  15.5171259
  43.1817961   3.2229772  48.8600159  43.3959770   3.7356746  49.6394396
  42.8975296   3.8723782  48.2168198  53.2095432  44.4128084  70.0024605
  54.0990305  44.6804333  70.2335930  53.1705236  44.5077562  69.0507793
  58.8424349  27.9487801  87.8442192  59.1366529  28.8423729  87.6676941
  58.8070488  27.5336385  86.9824600  39.3212509  10.2359653  65.9008551
  39.2932868  10.9216881  66.5681124  38.4133172  10.1464021  65.6112576
  77.1072960  32.1522355  73.9879131  77.1398163  31.8873978  74.9071693
  78.0029345  32.4218416  73.7845039  55.2976513  15.1083148  34.3971682
  55.8141994  14.9193180  35.1805496  55.8261871  15.7389855  33.9081550
  43.7447500  47.5193501  88.9844990  44.1588020  47.6197863  88.1273460
  43.1232882  48.2454920  89.0368462  36.2870407  43.7386703  55.4310703
  36.0357475  44.5050573  55.9465599  36.0448980  42.9918289  55.9786320
  36.1869955  35.2849650  89.2167282  35.3226185  35.0941491  89.5809746
  36.0628343  36.0903668  88.7145901  59.5921421  40.1858854  66.6860056
  59.3718672  39.2632055  66.5580416  60.5306578  40.1842022  66.8741846
  82.5348448  82.3024466  14.9882944  83.2561897  82.4639419  15.5964239
  81.8974136  81.8041113  15.4997404  52.0445204  49.9214029  60.1123333
  51.3671303  50.4530907  60.5302811  52.1836567  50.3365707  59.2611504
   9.4600893  89.4048881  75.0908184   9.8698260  90.1075231  75.5954504
   8.9424492  88.9192318  75.7330179  83.2994007  67.6277116   5.8427293
  83.2235979  66.7147341   6.1201437  83.0817627  68.1345895   6.6249998
  63.7934542  14.3290389  81.7265320  63.6552763  13.7471962  80.9791374
  63.6507750  15.2080011  81.3753891  64.2311859  38.3015060  87.8234005
  64.6443605  38.1900001  86.9672012  64.7913361  37.8114271  88.4253025
  77.1841955  39.2814255  77.2777319  76.9593143  40.0450897  76.7462492
  76.8571663  39.4933772  78.1520081  33.4513165  98.0169847  49.7738552
  33.9623095  98.8052433  49.5901012  33.0691124  97.7771168  48.9296865
  72.1142267  88.8630155   7.2370680  72.6978587  88.2525804   6.7865331
  71.8704818  88.4098413   8.0441911  57.3626757  40.5474901  39.1167903
  57.7840233  39.7685075  39.4799495  57.3593855  41.1764145  39.8383641
  33.3780075  98.3051436  73.0861568  33.0306126  98.1733345  73.9683008
  33.6126639  97.4265586  72.7873993  55.3930759  18.2949650  74.3239737
  55.1663351  17.7962422  73.5390568  55.5644608  19.1806090  74.0038252
  56.6525984  25.7183695  43.4547472  56.3260078  26.5704799  43.7436724
  57.2035646  25.4157281  44.1766024  48.4388733  27.1955323  70.1142120
  48.0040789  27.5908017  70.8698225  48.0869722  27.6691985  69.3605328
  48.3186531  22.6835942  70.7361507  47.4900198  22.3082638  70.4382849
  48.9805031  22.2772789  70.1765966  86.7040920  29.4149137  62.0848846
  85.8604527  29.0531158  61.8135786  87.2925663  29.2241025  61.3544607
  64.0258503  25.2564549  62.1004725  64.0192747  25.7598019  62.9146147
  64.9517775  25.1911092  61.8667507  20.5122232  27.1675253  71.0452557
  21.3201070  27.1845627  70.5321598  20.6155372  27.8779960  71.6783333
  46.7429901  82.1688091  60.4771757  45.9953858  81.6852151  60.1258087
  47.4186112  82.0875417  59.8039913  59.0410709  15.4514599  23.9728141
  58.3281708  15.7957709  24.5108247  59.2965364  16.1861789  23.4149981
  50.6152678  45.3014708  81.0025787  51.0449696  44.6242666  81.5250587
  50.3416538  44.8502493  80.2039814  69.7617817  30.5144453  71.0390234
  69.6313095  31.3562155  70.6024122  70.5758429  30.1752496  70.6668854
  52.6965284  45.6328392  61.4558077  53.4316826  45.1260710  61.1108875
  53.0825472  46.4701223  61.7130756  36.9654783  12.4410669   7.4899156
  37.9124626  12.5799600   7.5025804  36.6797384  12.6576845   8.3774145
  25.2394272  88.3728599  32.3292017  24.4364907  88.0501138  32.7382922
  25.6653143  87.5876652  31.9852209  37.2486567  28.0253386  58.0209875
  37.8383899  27.9162717  58.7670088  37.5191808  28.8516307  57.6206255
  43.1707907  14.4562316  83.1327915  42.8439856  14.3296683  82.2420597
  43.0952978  15.3983927  83.2840061  75.1487637  29.1566896  63.0343676
  74.5910406  28.3788395  63.0233097  74.7505713  29.7275901  63.6914444
  55.6400013  24.0943933  70.1683664  56.0722113  24.3958902  69.3692875
  56.3423395  23.7022758  70.6872082  65.7442116  75.9641221  17.3688848
  65.3914522  76.2716821  16.5339048  66.3500952  75.2629187  17.1292074
  37.6576900  16.6323733  67.1204329  37.4377179  15.7767785  67.4889469
  38.6125731  16.6262734  67.0541334  41.1667633  24.4601560  50.5564165
  40.3436041  24.1886330  50.1503181  41.8432760  24.0094423  50.0510311
  50.3723383  18.8324559  61.7817402  49.8312569  19.4781387  61.3272524
  49.8495007  18.0307531  61.7696667  37.0747232   8.1733626  71.4466286
  37.6429820   8.9087498  71.6758013  36.2980199   8.5811448  71.0636425
   7.6053009  76.3171080   4.4017465   7.9141007  77.0724180   3.9013631
   8.2383404  76.2266376   5.1140077  53.4773540   6.7720473  74.8778677
  53.5392857   7.3175776  75.6619549  54.0156317   6.0057628  75.0761032
  62.3064995  38.9306974  65.7010412  61.5615892  39.0271854  65.1077223
  63.0093813  39.4308996  65.2863216  62.3032808  40.1373959  68.0417109
  62.3866558  39.6007562  67.2534895  63.1966972  40.4230690  68.2325745
  53.3022261  71.9397354  52.1326494  52.6047373  72.1891403  52.7389002
  52.9131460  71.2550688  51.5885162  20.7810093 101.0902039  42.4226189
  21.2938000 100.4051944  42.8516197  20.7310654 100.8143248  41.5073967
  35.0091195  39.4123793  65.2905750  35.0517845  40.2517366  65.7487106
  34.5075798  38.8451171  65.8761549  89.3706440  90.5514005  15.6772764
  89.5843338  91.0267070  14.8743684  90.0746893  90.7785800  16.2846811
  73.5860300   8.2411212  47.4471331  72.9879761   8.4810358  46.7393208
  74.0922260   9.0364313  47.6129055  58.9380598  72.5593233  48.2128668
  58.4975529  72.3895788  49.0455580  58.2303381  72.5881958  47.5690269
  30.8734465  19.8698938  61.1002922  30.5344129  19.0838122  61.5284967
  31.5848923  19.5519114  60.5444479  19.9722506  98.8760700  49.4791412
  20.1024176  99.8220514  49.5455313  20.2221085  98.6624279  48.5801649
  70.6967853  97.5404957  24.4051321  71.2916898  98.2903650  24.4093473
  71.2317203  96.8121460  24.0895612  45.4601812  45.5250311  63.0186176
  45.9645653  45.3086042  62.2344017  44.5493412  45.5278921  62.7243471
  63.3945560  46.3836908  68.0582523  62.8669977  47.0801783  67.6673317
  63.3537340  46.5519857  68.9996576  62.5703764  43.9724922  67.4505997
  63.4524584  43.6239386  67.3214865  62.7058029  44.8984909  67.6516485
  69.8891258  44.0144634  70.0514078  68.9723444  43.7464666  70.1140261
  70.1735020  43.6968660  69.1943836  79.3982792  47.3686743  65.9492826
  80.2683544  47.5575447  66.3007450  78.8447714  47.2644472  66.7232323
 101.9702625  95.2233791  65.1727152 101.5310478  96.0661507  65.2870131
 101.3274384  94.5768070  65.4641771  94.7607422  14.5054758  31.1180592
  95.6753254  14.4847143  31.3997364  94.2802906  14.0887582  31.8334222
  18.0512940  43.0226755  68.1688881  18.2678067  43.3817816  69.0293503
  17.7055870  42.1494675  68.3538628  58.0430603  71.7035675  60.7249117
  57.4277782  71.5724277  61.4463425  58.8460255  71.2694454  61.0130310
  75.2403164  46.6158962  60.1605129  76.1649942  46.5524769  60.3996277
  75.1317596  45.9804058  59.4529819  69.3900776  60.5796099  57.7228689
  69.3020916  59.6998692  57.3560619  68.4892988  60.8754492  57.8544378
  95.6218719  70.3811979  63.3287525  95.6625652  69.5583153  62.8414726
  95.0481319  70.9411335  62.8057623  73.2354689  76.8043947  84.3138504
  73.3842897  77.1601343  83.4377575  73.4733915  77.5180435  84.9057293
 106.3231373  51.8755341  51.0888004 106.6425705  51.1339760  50.5747128
 105.7909489  52.3812485  50.4745865  72.7558184  51.8340778  60.3811455
  73.1481981  50.9610033  60.3843260  72.1637297  51.8333054  61.1332512
  38.7063249  34.8440544   2.4732359  38.2998833  34.1803829   3.0305250
  38.3368477  34.6862308   1.6044386  93.9690781  57.8437281  77.7707815
  94.1391945  57.5387669  76.8795538  94.2232895  58.7664986  77.7607918
  71.4410480  50.6312744   0.7868536  70.9721359  50.4171363   1.5933855
  72.0064339  51.3656131   1.0262735  65.6708622  82.7170658  60.1007700
  65.2800560  81.9893932  59.6170282  66.5814018  82.4540138  60.2347803
  78.3730491  30.4876033   4.5560701  79.3108352  30.2960674   4.5457990
  78.0008968  29.8975936   3.9006097 104.4480133  55.3540325  50.4762554
 104.8440552  54.5775318  50.0807428 104.0447426  55.0328159  51.2827444
   3.3871208  74.4170046  45.2565432   3.6991822  75.0480652  45.9050846
   4.1633068  74.2010450  44.7396994  74.9131632  84.0758228  34.1485953
  75.3547859  84.9154568  34.2759371  74.0776062  84.3040371  33.7411690
 100.3494167  77.4069214  31.9678283 100.9359360  77.5521088  32.7102232
 100.0679970  76.4966154  32.0593762  82.5421047  65.4690790  41.0821533
  82.0518589  65.4307652  40.2609205  83.2856178  66.0407495  40.8908033
  95.7424927  83.3640480  72.9104614  94.9482536  83.7003613  73.3255768
  96.3217354  84.1237640  72.8509474  65.1054001  86.7152786  44.7621489
  65.3160095  86.1606312  44.0109873  65.1600456  87.6086998  44.4229937
  48.8009501  84.0056896  66.9163799  49.3626356  83.2623863  67.1360111
  47.9541540  83.7896156  67.3068666  85.9303474  54.1853714  50.1275063
  86.3876915  53.4854221  50.5934906  86.4406395  54.9726629  50.3172684
  78.4260798  85.1771927  82.2897911  78.9239264  85.3502750  81.4907742
  79.0814829  85.1876068  82.9873371  85.3674507  89.9456215  61.9417143
  84.5659161  89.4640923  61.7370272  85.1245499  90.5160618  62.6709795
   1.2341057  56.8244028  84.8669052   2.1196877  56.7636061  85.2250576
   1.3463818  56.6884375  83.9260864  86.5647507  68.1110334  75.4604816
  87.3539543  68.3532333  75.9449673  86.7859745  68.2767534  74.5440578
  55.3264484   1.3925088  77.3397827  54.6404038   0.7344354  77.4517012
  55.0054894   2.1568788  77.8182602  40.3406748  35.0937549   7.6233156
  39.9874863  34.3445388   7.1435506  39.6916851  35.7860652   7.4978216
  60.9495068  85.0390720  60.7631207  61.6189289  84.9980068  60.0801706
  61.4378834  84.9581909  61.5823793  95.8732033  81.2156582  40.3418684
  94.9529743  81.0684872  40.5603933  95.9551430  80.9164906  39.4363189
  83.0237103  61.4836407  67.2206783  82.6227474  61.2697124  66.3782454
  82.3266697  61.9148254  67.7150917  21.6532588  64.4766760  86.4011574
  21.6759300  65.2428198  86.9745255  22.1879697  64.7257710  85.6473255
  78.1327391  51.6718483  53.7400675  77.4595213  52.2910118  53.4578466
  78.6469793  51.5010500  52.9510069  74.2554188  75.5425978  69.9078655
  74.9234009  75.7553053  69.2561102  73.5708189  75.0939846  69.4115782
  65.4379797  93.4310341  51.0932827  65.3302526  93.6347294  50.1642323
  64.6498346  92.9390621  51.3235664  83.2590580  93.6728096  41.1581945
  83.7365818  94.4905853  41.2976265  83.3940125  93.1760597  41.9652033
  83.1548405  95.4566479  51.7390823  82.5064850  95.0519848  52.3153734
  83.0065060  95.0470543  50.8867598  98.8161755  58.8611269  82.9123688
  99.2678261  59.5122766  82.3754787  97.9152298  58.8674212  82.5891018
  76.1611509  85.5350876  73.8432837  75.2905607  85.3837204  73.4753275
  76.7639971  85.2807045  73.1446409   6.6753422  71.2615490  86.4058685
   7.0903336  71.8275452  85.7549763   6.6134678  71.8051291  87.1913147
  79.9687338  76.0384703  59.2153406  79.6246958  76.8949890  59.4687939
  79.5777798  75.8673000  58.3585501  95.8964062  92.5537682  54.1606236
  95.1204681  92.3411083  54.6792078  95.5516720  92.9909897  53.3820152
  95.4599762  39.5680213  39.8076844  95.5620193  40.3651571  39.2876935
  95.1860619  39.8784614  40.6707191  76.0069275  82.3124886  82.0050812
  76.0984230  82.3033142  81.0523129  76.8503141  82.6341629  82.3236084
  87.4303055  86.6711521  62.5205898  88.0222130  87.3399448  62.8649855
  87.8976917  85.8464146  62.6531935 100.3573990  38.7955070  49.2893076
 101.2373924  38.4249520  49.2219305 100.1316929  39.0413380  48.3921719
  93.6770058  66.0095501  47.0297527  93.3698082  66.4018202  47.8470564
  94.5988655  65.8092260  47.1918917  81.8489933  64.4207478  66.4118576
  81.6434669  64.1784525  67.3147917  81.3234234  63.8246155  65.8783531
  83.6331749  92.6500702  57.3936462  82.8957939  92.5108910  57.9878998
  83.9585590  91.7697716  57.2054338  98.2204533  92.9122066  33.8086271
  97.8725338  93.4390259  34.5281053  99.0178108  93.3691502  33.5409665
  66.2176991  38.0507517  85.3195763  66.7488146  38.0005503  84.5248222
  66.4998436  37.3012996  85.8439255  78.5966539  68.2315683  64.7478437
  78.8828659  67.4740791  65.2582502  77.6919270  68.3783340  65.0238085
  31.8548950  21.9834510  18.7628229  32.4727091  21.5166894  19.3255479
  31.8899902  21.5153638  17.9286153  80.6829453  36.2711096  67.5364351
  79.9093199  35.8476591  67.1643925  80.4900360  36.3437080  68.4711790
  47.8954300  28.8329116   7.7700765  47.9408821  29.4303600   7.0236070
  47.0663341  29.0468398   8.1979330  69.2403746  60.1299286  83.8256931
  70.0411892  59.8592854  84.2747784  68.5371971  59.6917391  84.3050194
  84.6232986  69.2467880  28.0366898  83.8514996  69.1184282  27.4852538
  85.0976849  69.9667263  27.6208997  85.0657463  43.5584450  78.0396748
  84.6984482  42.7775002  78.4537458  85.5559444  43.2233858  77.2888947
  67.7777004  70.9484768  27.5918698  67.8842115  70.9941435  28.5420299
  66.8309307  70.9016514  27.4589610 100.8373070  53.1149340  39.8898530
 100.0209522  53.5785675  40.0765228 100.6513214  52.6122761  39.0967727
  26.1671385   0.4635469   8.1349428  25.5059227   1.0932390   8.4221990
  26.9997772   0.9217111   8.2490881   1.3527619  63.1531715  62.6184368
   1.7441403  63.9688683  62.3058796   1.6988980  63.0454874  63.5043430
  74.4176674  54.1218424  75.7741213  74.3471003  54.3896055  76.6903973
  74.9206161  53.3078527  75.8005190  86.1044312  62.3524666  51.4861488
  85.4325771  62.0387268  50.8808279  86.7093754  62.8497553  50.9357166
   9.4562756  33.3255696  51.1752987   9.3364369  33.6744165  52.0585728
   8.9418255  33.9076495  50.6160498  84.3042183  50.5640841  49.8476553
  83.8189507  51.0683107  50.5007267  84.1002083  49.6510267  50.0499678
  76.5679693  82.8802776  66.1933041  76.2405396  83.6281395  66.6930246
  76.1790943  82.9837990  65.3248024  82.8268051  75.9450340  40.2671337
  82.9994011  76.8235350  40.6057739  83.1335545  75.9731483  39.3608522
  91.0798359  95.7400990  30.2340627  90.8224487  94.9700832  30.7410645
  91.9330597  95.5103207  29.8660445  83.5283089  47.5639963  54.8487043
  82.7615452  48.1249428  54.7318792  83.1800270  46.6729212  54.8184299
   1.2810551  25.5143690  29.5437741   1.8516575  25.6972432  28.7973118
   0.4758107  25.1757598  29.1524172  90.3277397  37.2900701  51.3826466
  90.5516338  36.9331551  50.5231619  89.7691250  38.0433774  51.1910486
  75.6869316  75.2725983  65.3672314  75.5714703  75.8901453  64.6450615
  76.5615034  74.9075460  65.2327013  86.8023682  64.4224215  73.2880497
  87.1631241  63.6807108  73.7737942  86.3274574  64.0231752  72.5591469
 100.7887554  50.7912254  30.7746673 100.1724815  50.1214075  30.4783916
 101.5689087  50.3009939  31.0340166   8.0888306  42.3949242  87.2815037
   7.5157772  42.6129293  86.5464401   8.8503395  42.9637432  87.1684170
  73.4106716  22.1247283   6.1277254  73.3301719  22.3076908   7.0638235
  74.1333851  22.6806013   5.8363207  51.9383144  94.5469666  72.1999502
  52.5694609  95.0267410  72.7363348  51.2632942  94.2663002  72.8178596
   4.0382134  82.0522022  58.1401157   3.1112324  82.2722912  58.0479050
   4.4620644  82.8841114  58.3510733  35.7868443  12.4859441  38.6352682
  35.6238327  12.9162706  39.4746017  35.4924355  11.5847219  38.7669921
  31.0388120   3.5747043   0.1476915  31.6546711   3.6098949   0.8796175
  31.4547809   2.9918519  -0.4875224  89.7421265  90.1203632  69.1200304
  89.8845196  89.2185879  69.4076967  90.6187916  90.4500008  68.9224625
  77.9630566  66.8692636  47.3062658  77.4504423  66.4473677  46.6167307
  77.4340725  67.6215506  47.5717211  60.7824119  14.5312349   7.1885164
  61.3065037  14.6687976   6.3994463  61.4035591  14.1905633   7.8322275
  52.8190407  38.0099574   7.4419458  52.5541576  38.5172931   6.6746957
  53.6202606  37.5631610   7.1687086  98.7843800  56.0944748  50.4105759
  98.2159901  56.1338329  51.1797380  98.1809807  56.0462809  49.6690798
  90.5066204  92.4811268  64.4707727  89.6265602  92.7375317  64.7464228
  90.7350063  93.1083870  63.7847614  85.8939648  71.8050432  74.5780706
  86.5439415  72.4384689  74.8822498  86.3911343  71.1941338  74.0341568
 103.1098270  38.7884712  40.4952049 103.7176323  39.5003366  40.2950811
 102.4408436  38.8458323  39.8130083 106.8177986  63.2740498  63.2675266
 107.3360920  63.1071377  64.0547609 105.9241390  63.0357504  63.5141420
  88.0609688  34.2827121  16.6864545  88.9572414  34.5907108  16.8208463
  87.5275501  35.0768749  16.7179067   0.4429375  68.8280296  60.6608772
   0.2825104  69.4633818  59.9631500  -0.3962101  68.3822632  60.7764769
  14.1319405  57.3243666  77.9398823  14.6012436  58.0898428  78.2715988
  13.8080822  56.8831205  78.7251520  72.8655100  74.4700718  40.1234436
  73.0812216  73.5627079  39.9080539  72.4847507  74.4240332  41.0004473
  23.3355030   6.8811599  17.0588739  22.7791962   6.8732253  17.8377779
  22.8329405   7.3745433  16.4106233 108.0658649  10.3120912  53.1070232
 107.6116012   9.9395002  52.3513412 108.5331463  11.0700620  52.7557898
  93.8741302 101.5919018  50.7319307  93.0837345 101.9254017  51.1565351
  94.5721626 101.7493725  51.3676834  79.8267841  86.1180305  79.9389458
  79.9370241  87.0548725  80.1014519  80.6273746  85.8581734  79.4831324
   4.4439923  70.7330418  73.0653381   3.6740052  70.8459520  72.5080299
   4.0891777  70.6532001  73.9507580  44.5017704  18.9867965  29.1176469
  43.5951027  18.9115564  28.8200910  44.5983967  19.9075166  29.3608816
  88.3615112  80.0034237  82.4921799  87.8859043  79.2954206  82.9266357
  88.3594227  79.7604942  81.5663147  47.6113272  85.4472446  71.1818933
  48.4911299  85.6073189  70.8405066  47.7551746  84.9825382  72.0062685
  74.9000597  65.5046368  69.0584755  74.9946880  66.3772726  69.4402933
  74.9936628  65.6440830  68.1161213  43.3872185   4.8344053  51.2516165
  43.2389031   4.3200601  52.0451403  43.7595139   5.6581987  51.5662527
  80.0612259  96.8268299  69.8623610  79.4154692  97.3250484  70.3633642
  79.5487976  96.1554623  69.4119024  34.1524013  37.5746623  20.8346803
  34.6638855  38.3378784  20.5661066  34.7354540  37.0887748  21.4179380
  63.0515655  19.4984666   4.1962202  62.9249367  19.5272533   5.1445730
  63.0047497  20.4138795   3.9204366  73.6944485  85.9355545  69.0637350
  72.7492952  85.8047295  69.1398668  73.9669561  85.3221416  68.3813143
  58.9042997  68.0177593  62.1308041  58.9342928  68.7844181  61.5584660
  58.8348770  68.3806419  63.0138254 101.1725616  54.1496277  84.5628357
 100.6155872  53.5007334  84.9928951 101.6244316  53.6597300  83.8757801
  92.3692306  19.1191903  10.3497846  91.4365944  19.0869466  10.5628259
  92.3942550  19.2154161   9.3977697  59.8133549  51.2072460  17.9961069
  59.6690258  51.9284049  17.3834570  59.2094597  50.5230800  17.7072485
  16.1417710  68.8780403  56.7514896  15.9604012  67.9403162  56.6881990
  16.3778721  69.0149355  57.6689577  95.7479477  74.9337292  55.0043344
  96.3125706  74.1874647  55.2056360  96.2672234  75.4729080  54.4077873
  90.1357460  74.4939041  86.4227676  89.8283482  73.9648676  87.1588802
  89.8323822  74.0232849  85.6464195  92.6541519  81.4789772  70.5358982
  91.7169857  81.4177799  70.3509474  92.7014446  81.6699219  71.4726686
  15.8591042 101.1035612   8.8576086  16.3975868 101.1241606   8.0665071
  16.1248741 101.8811109   9.3485506  78.3955288  98.5956192  74.6933842
  78.5437870  97.8390789  75.2607536  78.3502436  99.3399048  75.2935696
  70.7079268  69.8285151  63.1937075  71.3644457  70.5181980  63.2914352
  70.7937908  69.3017673  63.9883089  57.2112703  70.6350136  78.9797974
  57.6053667  71.0212278  78.1976461  57.9477787  70.4952002  79.5749760
  54.5983839 100.2055359  46.6953945  53.7904930 100.6579685  46.9379807
  54.9217463  99.8357391  47.5169230  73.8183355  57.6473999  80.0621796
  74.7345734  57.5917912  80.3335571  73.3240080  57.3468733  80.8247757
  74.6244478  63.3047438  72.8319407  74.8526239  63.7285280  73.6593294
  74.2614985  64.0086889  72.2943878  26.9177281  55.4189110  73.1322670
  27.3219715  56.2287378  73.4437084  26.6208111  54.9779129  73.9282513
  67.9956341 102.0644283  23.3824587  68.4974623 101.4844418  22.8097320
  67.0993519 102.0119572  23.0505562  70.6902552  85.7419777  77.5676489
  70.6015205  86.5670013  78.0448151  70.0172663  85.1743984  77.9433823
   2.1770035  98.5023212  86.3574028   1.9721352  98.1420517  87.2202301
   1.6372334  97.9945755  85.7515335  25.7052647  50.8422661  59.9844837
  25.4985176  49.9418306  59.7340631  25.8775650  51.2879753  59.1550922
  90.1055145  88.3998680  58.4449387  90.5105877  87.8265190  57.7942324
  89.8448467  87.8114414  59.1534758 106.8187523  92.9764938  42.9482508
 107.4271679  93.6837578  42.7341461 106.2905407  93.3242512  43.6667871
   1.0702931  61.3446808  80.5601883   1.1979328  61.5233421  81.4918613
   0.6914936  62.1515322  80.2112865  39.3442425  28.3173696  10.3011663
  38.8352522  27.5078098  10.2590807  39.6826633  28.3412591  11.1962278
  98.3991241  49.7158718  58.5468054  97.6575089  49.1140699  58.4830379
  98.0452538  50.4857349  58.9921284  66.6859707  34.0091030  21.4681871
  65.7750400  33.9048759  21.1932809  67.1263870  33.2251636  21.1399992
  52.0667553  89.9992561  71.6063643  51.2750387  89.6954060  71.1624146
  52.4175358  90.6795692  71.0315943  88.1834030  85.7872200  83.7717628
  88.8298035  85.1068211  83.9600754  88.2946777  85.9717560  82.8391361
  29.4293175  19.3602098  37.3365283  30.2414093  18.8759054  37.1875882
  29.0992889  19.5502580  36.4583540  70.3324318  72.6498699  55.4622889
  70.9071922  73.3926105  55.6472874  69.7174215  72.6344681  56.1956072
   4.8848091  66.0743570  68.8511086   4.7302090  66.9294596  68.4496927
   5.7264935  66.1678648  69.2972660  91.4466190  61.4219856  57.0260334
  91.5714359  61.0452795  57.8970957  91.2578773  60.6700039  56.4646721
  88.3357906  67.6382113  33.0148506  88.7522316  66.9773149  32.4616575
  88.5349369  68.4701204  32.5853229 103.9319134  86.5740585  47.1253300
 103.8267994  86.7220020  48.0651665 104.6590233  87.1432209  46.8731213
  85.5811310  86.7313290  64.7511482  86.0231590  86.9739914  63.9375448
  86.2222099  86.1993408  65.2225685  87.5469971  79.2848921  64.6683025
  87.8641701  78.9957094  65.5238771  86.7043972  78.8430357  64.5633554
  99.0069199  67.4065065  59.9589586  98.7293339  67.3613501  59.0440035
  99.5959663  66.6598845  60.0676632  76.5274239  83.4336662  50.3188753
  77.4082756  83.7595272  50.1341057  75.9501791  84.0002441  49.8070097
  17.6406918   0.6147970  54.2835188  17.0243225  -0.0962054  54.1080332
  17.7862892   0.5777086  55.2288532  94.5560551  95.9628201  53.4245014
  93.8161755  96.5511608  53.5750389  94.2615032  95.1165771  53.7611628
  64.7697973  69.8264360  64.3797159  65.5434132  70.0399876  64.9013901
  64.6759653  70.5643702  63.7773180  85.9984016  87.1540451  36.7290139
  86.3204956  86.3581371  37.1521044  86.7667770  87.7218437  36.6703081
  65.9512901  81.0473633  64.2126226  65.4440784  80.9501362  63.4067011
  65.5234051  80.4615116  64.8370600  22.3561058   5.0126279  59.5225668
  22.9838810   4.9546064  60.2428198  22.6110802   4.3093790  58.9253616
  84.4155407  73.9333057  84.0951252  83.8563061  74.6961546  83.9483356
  84.5911884  73.5927486  83.2179642  64.5675325  95.6511688  37.6465583
  65.0943565  96.1645031  37.0340419  64.3141413  94.8727322  37.1505189
 107.6960182  89.7864819  74.5064688 107.8420067  90.5803394  75.0209570
 106.9488430  89.9978352  73.9467525  90.3316307  43.1622505  66.4139366
  90.5684090  42.2408104  66.5193605  91.1484051  43.6381531  66.5643549
 104.2018414  65.9374952  61.7049503 105.1484680  65.9019375  61.5675640
 103.9123154  65.0297070  61.6137171  83.8742718  37.1550361   0.9719045
  83.0583462  37.3570434   0.5139787  83.7674698  37.5501720   1.8371732
  86.0615540  67.4090767  78.2143736  86.1692429  67.6396894  77.2916269
  85.8223248  68.2320833  78.6405945  32.2291718  14.8170579  59.7091150
  32.8448162  15.3876604  59.2490768  31.3656673  15.1251520  59.4340372
  96.5761471  91.4822197  38.1355762  96.1221886  91.8962669  38.8695502
  95.9566307  90.8302975  37.8078127  36.6785264  98.5524178  77.9969645
  36.9415951  98.6346912  77.0803070  36.3627386  97.6522446  78.0756474
  70.1384497  78.3766842  59.7312593  70.4815388  77.4868679  59.8134184
  70.3115702  78.7796402  60.5820751  87.2121906  34.5313549  63.5681295
  87.3681259  34.6382546  62.6297855  87.0807457  33.5902548  63.6833954
 102.7411556 102.1239662  66.8604755 103.1053257 102.8290844  67.3956633
 102.2007751 101.6176033  67.4669504  12.9399357   4.3646158  74.8472357
  13.8102303   4.3287862  75.2441359  12.4939594   5.0730146  75.3114605
   0.6178986  34.1489863  76.2320185   0.9403454  33.7940931  75.4035807
   0.5501496  33.3878279  76.8084574 101.6046333  76.7119265  74.6835136
 101.3096619  76.1576986  75.4060507 101.1620712  77.5484276  74.8271894
  76.6650009  65.9365034  41.8330956  76.0398579  65.2343178  41.6532135
  76.3483572  66.6773176  41.3162136  61.7557192  83.6722565  16.0454023
  61.1595917  84.3496990  16.3646758  62.6274157  84.0561008  16.1404645
  16.3823376  14.7272027  54.6298695  16.1188088  15.3463663  53.9491177
  15.9011993  13.9257444  54.4239616  33.0463251  24.9893419  13.1906946
  32.9129204  24.5749465  14.0431745  33.1533607  25.9193031  13.3905752
  90.7320690  81.7199039  67.8388262  90.5543137  82.6595688  67.7979755
  90.4300308  81.4565754  68.7081146  90.2921581  74.9896383  59.1073704
  90.9422874  75.4658890  58.5908890  90.6548119  74.9737167  59.9930716
  44.2700348  20.5210794  52.6425934  44.1017017  20.6459821  51.7086267
  43.8792572  19.6710027  52.8448105 101.1901665  56.9262981  61.3145256
 100.2447987  57.0065069  61.1877060 101.3624573  57.3923016  62.1326876
  83.4091473  92.7135944  65.4311085  83.1908512  93.5798740  65.0873852
  84.3297291  92.5893021  65.2001762  51.0745811  79.8245764  52.7726412
  50.2219534  79.7261333  53.1963968  51.5827656  79.0737820  53.0797052
  89.5896626  53.5946465  54.9633360  89.9889660  54.0748739  54.2379570
  88.7557220  54.0394306  55.1147985  76.8948174  58.3819866  74.8082018
  77.3958969  57.6811504  75.2253056  77.2872305  59.1885662  75.1423836
  64.4076204  49.3972063  26.4188361  65.0645590  49.7844219  25.8402801
  63.6525869  49.2392778  25.8520794  22.0476017  99.9184492   5.0241525
  22.0566902  99.7514275   5.9666212  21.5181027 100.7098272   4.9262483
 106.7412376  75.9937286  51.6706657 106.7328072  76.1403179  52.6165390
 107.2513485  76.7236853  51.3197041  90.6757641  69.8816156  32.0228481
  90.9814644  69.8503256  32.9293823  91.4296913  69.5976925  31.5059161
  72.3794079  46.3612318  14.9273789  71.8303156  45.6172371  14.6799874
  71.8053818  46.9181538  15.4532766  72.4958992  64.8877621  88.5791397
  71.7974234  64.9791574  87.9310608  72.3253202  64.0440178  88.9977455
  76.0341930  82.9413223  61.7427969  76.2019110  81.9998360  61.7842150
  76.2401676  83.2601833  62.6215076 102.2723484  43.6200142  65.4807901
 102.1271706  42.9206371  66.1179876 101.4851093  44.1616964  65.5361748
 102.9729652  89.0459633  56.4225912 102.3238277  88.5010433  55.9777117
 102.5008011  89.4230843  57.1649313  68.9347076  64.2963886  44.5592976
  69.8668385  64.3606234  44.7672224  68.7312841  65.1191711  44.1144609
  16.1007271  24.7334016  54.0649176  15.4869137  24.2494501  53.5124159
  15.6131516  24.9060167  54.8703384  78.8303757  87.2078228  52.9652643
  79.1439390  88.0324078  53.3367014  79.5222521  86.5770245  53.1643295
  97.3583603  56.2820959  34.5616198  97.1865845  56.6033936  35.4467726
  98.3089256  56.1754608  34.5257854 106.5640736  68.2914543  52.4867058
 105.6400871  68.1948042  52.2561836 107.0011425  67.5720787  52.0309639
  39.7956451  81.5969268  18.8900621  40.1454529  81.2386123  18.0742986
  38.8518890  81.4480487  18.8318021 102.6568890  64.8883772  64.1139221
 103.0298424  65.5707788  63.5558319 103.0683231  64.0792131  63.8102579
  56.0625076  81.7260742  60.5067348  56.3743544  80.8911705  60.1575565
  56.1795807  82.3456001  59.7865200  87.1582031  64.3380642  66.5142107
  87.0613956  64.4725323  67.4569607  86.3096428  64.5876455  66.1482954
  82.9520798  74.4174623  73.3920956  82.1934032  73.9436245  73.0513382
  83.6178112  74.3255568  72.7104807  71.7716789  70.8639431  82.9219627
  72.2467184  71.6746807  82.7395344  72.2233105  70.1994610  82.4016476
  74.2414188  72.5520945  36.9607592  73.4403467  73.0760336  36.9612026
  74.6029139  72.6664877  37.8396630  80.4120827  67.3685741  39.5638537
  80.3530598  66.9427395  40.4190779  80.2964115  68.3000278  39.7515893
  66.1061558  17.1801082   6.1616953  66.6710171  16.4130107   6.0683115
  66.2221416  17.6639358   5.3439577  73.5137224  99.7767830  66.2605381
  74.1909456 100.4355812  66.1069679  73.0833483 100.0593090  67.0675039
 108.0213833  80.4560757  84.8103905 108.0173969  79.7340584  84.1819763
 107.5788307  80.1039219  85.5826378  86.6101933  53.1967068  58.5089111
  85.8430195  53.6656809  58.1806755  87.2924805  53.8654423  58.5681343
 108.7442970  69.9732304  39.5500088 109.1277695  70.8261490  39.7542262
 108.0230522  70.1716995  38.9528036  71.9995451  98.8499641  68.6745501
  72.1483946  97.9187584  68.5104036  71.0915661  98.9976597  68.4100008
  92.4475502   2.5300516  63.5103226  91.8077492   1.8185152  63.5347223
  91.9557976   3.3038534  63.7853622  14.5796143  87.7444935  78.8643503
  14.3496071  88.5077763  79.3941879  14.6506916  88.0846596  77.9724598
 106.5541553  76.3760996  54.6642542 107.3479939  76.0185337  55.0619936
 105.8848000  75.7112646  54.8261070  89.1354275  81.0546112  50.6078672
  88.9651394  81.5293026  49.7942877  89.7079659  81.6355705  51.1087847
  87.3193359  58.7822104  72.8149843  86.7210388  59.1198349  73.4815264
  87.1763039  57.8357840  72.8220320  33.7345156  15.8789626  17.3432882
  33.5498508  16.5652410  17.9845102  33.4050163  15.0770942  17.7490766
   0.4600273  95.8045387  63.8342428  -0.3076042  96.1108208  64.3171167
   1.1148106  96.4903164  63.9653873 106.3033676  89.5793247  70.6931973
 107.0071602  90.1406097  71.0185623 105.7528400  90.1634693  70.1717281
  72.0215845  89.5111561  87.5605106  71.7185211  89.5568657  88.4673214
  72.2593546  90.4121780  87.3417377  41.2604809  59.4774294  62.2708130
  40.4012537  59.0610504  62.2031021  41.7797327  59.0691757  61.5780354
  80.1437092  91.1280727  86.7146397  80.4927349  90.2390957  86.6503811
  79.7150993  91.1558628  87.5700569  69.8378706  89.3343735  54.4342709
  68.9707375  89.3307400  54.0289354  70.4447889  89.4325447  53.7006187
   5.7545792  41.6146374  59.9274063   6.2357556  40.8068609  59.7479486
   5.0058209  41.3353777  60.4542828  76.1409187  58.8822460  88.6733437
  76.3753510  58.4129429  87.8727055  75.8103609  59.7269821  88.3677578
 102.6579285  71.2262964  76.6613007 101.7126369  71.0784292  76.6893578
 102.9588795  70.7108641  75.9129763  93.0663300  63.1902790  44.5924139
  93.7617397  63.5198498  45.1616430  93.5117054  62.9661560  43.7753201
  74.9551773  97.2064114  77.1723795  74.3884659  96.5988541  77.6477146
  75.6081533  96.6463184  76.7526722  71.0775709  50.4152870  56.5447760
  71.1535597  51.3417959  56.7729044  70.9322643  50.4127121  55.5986738
 100.3372955  87.0583439  43.4324694 100.6194019  86.8477058  42.5423670
 100.2857780  86.2107754  43.8742876  31.6454824  29.9058334   4.5212896
  31.5520414  29.3398658   3.7550123  32.5708565  30.1505557   4.5268781
  34.5795425  70.4102508  12.9679163  33.6881670  70.6108753  12.6825674
  35.1315864  70.6723586  12.2311838  34.6829971  46.6976158  13.4832819
  34.9021038  47.4507419  14.0319402  35.4191765  46.0964385  13.5966547
  84.0234756  85.3697205  59.0139866  84.4437027  84.5629978  58.7159204
  84.4797134  86.0661030  58.5416174  74.7877026  97.5812721  68.1746721
  75.3294945  97.7384186  67.4013662  73.9726877  97.2195435  67.8266191
  65.1339149  79.2762423  66.2652445  65.2281570  79.4563103  67.2006178
  64.5554161  78.5146904  66.2250328  20.2240785   8.8586322   1.3092382
  20.3624567   8.2510177   2.0357950  20.3954634   8.3372346   0.5250127
  51.9434977 100.0632286  61.8116474  52.0229578  99.4458866  61.0844517
  51.4672852 100.8073330  61.4431953  58.6588001  88.5179043  49.9817085
  58.4707594  89.3255138  50.4598713  57.8178549  88.2629395  49.6021795
 108.4196377  93.0247593  77.5674009 108.3051968  92.1898651  78.0213833
 109.3561172  93.0655670  77.3735428  93.0256367  89.9620342  75.3520441
  92.2841835  90.3628445  74.8983622  93.0891323  90.4421043  76.1777210
  68.1588888  67.4773693  63.1436872  67.6894140  67.4288940  63.9764404
  69.0048790  67.0663309  63.3213902   0.5228173  69.0874243  63.3602619
   0.5008065  68.9971542  62.4075794   0.1305519  68.2776070  63.6867046
 101.3939476  69.9489546  48.9414263 101.1865807  69.1335773  49.3979263
 102.0981121  69.7129488  48.3375311   0.7551680   7.4507154  63.5333729
   1.3557348   6.7259801  63.3592844   1.0573492   7.8179182  64.3640852
  68.6438990  80.8824348  56.8212700  67.7885628  80.9909916  56.4055204
  68.5416126  80.1137543  57.3824310  81.3961983  92.3688984  58.9621592
  81.4075947  91.9327641  59.8141479  80.8822823  91.7871094  58.4021235
  16.0978638  66.2404394  55.4251528  16.9088398  66.1881876  54.9193525
  16.1642205  65.5259037  56.0586119  94.6075058 101.9266129  41.6350460
  94.6880722 102.2880745  42.5177050  95.2707481 101.2374973  41.5969706
  93.5792923  89.0696239  65.7659101  94.3049717  89.1425037  66.3858318
  93.9783287  89.2278481  64.9103594 107.5051568   2.2015611   9.1727598
 107.9369018   2.9820196   8.8253362 107.6665924   1.5255252   8.5146196
  15.1948105  95.6525993  46.5137243  14.9460923  95.9416294  45.6357574
  15.6435238  94.8188400  46.3732576   5.4242455  51.1526251  80.0256538
   5.5916153  51.5317583  79.1628218   6.1660420  50.5671597  80.1779938
  72.7981853  67.5409889  86.2296772  72.7154541  67.4355698  87.1774483
  73.1691027  68.4162426  86.1175060 102.3496628  47.5426626  82.9572582
 102.4583054  47.8939009  83.8410282 102.8319073  46.7158794  82.9671478
  26.0324907  74.0199137  64.3852377  25.1784492  73.6285019  64.5686531
  25.8283687  74.8429775  63.9412403  10.2718483  52.5984287  48.7892532
  10.6938111  52.0092392  48.1639242  10.9775292  52.8699732  49.3762064
  88.8287067  34.5009089  82.1266651  87.9621696  34.4498134  82.5300598
  89.0947151  35.4127288  82.2452354  70.4207214  40.6884471   1.6083009
  69.8038467  40.0450412   1.2594183  71.1681541  40.1682559   1.9032247
  83.5755539  70.6630325  89.0898323  84.0640163  71.4690542  89.2570686
  84.2418385  70.0306416  88.8207912  31.3286257 102.5253677  45.7407618
  30.4947281 102.9356956  45.5116749  31.2644291 101.6384315  45.3865719
  66.7270517  69.0966797  61.6559935  67.3569298  68.5136604  62.0797539
  66.3347769  69.5898151  62.3765278  73.3444786  88.6420918  57.5611877
  72.5895786  88.2124043  57.1590328  73.6805391  89.2235661  56.8791485
   0.1040493  39.5968843  42.5663471   0.8876644  39.9306846  43.0031204
   0.1374375  39.9791408  41.6894245  70.6771469  59.5475483  86.1695576
  71.2000561  58.8142920  85.8452988  71.1323309  59.8347902  86.9610882
  81.9857025  79.7014523  72.0469236  81.4610291  78.9713001  71.7185593
  82.3812866  79.3688536  72.8526068   5.2071225  48.3960581  74.3565512
   5.1768242  47.6708269  74.9805355   6.0924851  48.3634329  73.9942026
  95.6199074  51.4553118  78.5862398  96.1507607  52.1889400  78.2760382
  96.2535095  50.7612705  78.7681627  97.7868557  32.4700356  69.6231079
  98.1943703  33.2618713  69.9740458  98.3714676  32.1921611  68.9179468
  96.4934715  10.5253116  11.6242845  97.4476799  10.4772369  11.5659006
  96.3212951  10.7736532  12.5325353  86.2359905  56.8315554  75.6648684
  86.1660767  57.6645899  76.1311293  85.3392029  56.4983320  75.6340313
 108.7410069  85.5580235  55.8723783 108.7302494  85.1034737  56.7146969
 108.6091423  84.8655510  55.2248240  83.2272228  28.8043586   4.9881990
  82.6320442  28.3743659   5.6022890  82.7172645  28.8935653   4.1830785
  90.1491451  90.5733204  88.1269550  90.7528019  90.2878189  88.8127518
  89.9281693  89.7714043  87.6533222  39.6371422  97.8622606   5.4956014
  40.5938015  97.8600529   5.4636343  39.3821583  97.0316389   5.0940092
  83.4771729  84.2329121  74.5151186  83.8669014  84.3134499  75.3856707
  83.4398746  83.2898140  74.3557119  94.2420934   2.5939001  79.3383932
  94.8535084   2.0598520  79.8455381  94.3577360   2.2980989  78.4354210
  78.9243673  16.3471902  55.3239059  79.2903017  16.8315996  56.0639524
  79.6608518  15.8406461  54.9814987  24.9088894  77.6208210  88.2045841
  25.3266083  76.7667198  88.0938911  24.8972164  77.7608252  89.1514111
  12.2969567  65.3586102  84.4591618  13.0394398  65.9586191  84.3888474
  12.6868092  64.4866848  84.3959045  86.6725826  81.7234898  67.7187824
  85.8136177  81.5608883  68.1086302  87.2819519  81.2295341  68.2673264
  51.9120296  22.2692529  15.0195463  52.2377762  22.3388902  14.1221769
  51.1104473  22.7923910  15.0246389  51.7538595  82.5988674  53.5791492
  51.6921282  82.6836300  54.5305872  52.1087742  81.7209435  53.4394264
  41.5247784  43.9382947  65.2521086  40.8686981  44.4043172  65.7703829
  41.8352184  44.5864881  64.6198845  86.1655712  66.7211771  67.8254986
  86.7876053  66.3478231  68.4499311  86.6722679  66.8344879  67.0213509
  91.1765575  87.4006939  85.6282616  91.1386967  86.6008568  85.1038074
  90.6244850  87.2153378  86.3879299  90.5301571  82.8479099  80.6760120
  90.7816029  81.9466400  80.4742241  91.3611031  83.3164501  80.7548809
   1.9444214  83.2913780  40.5613518   2.2381626  84.1669846  40.3098345
   1.2568413  83.4462547  41.2090302   0.7194554  89.6435738  72.5497961
   1.3970410  88.9965820  72.3535633   0.4989945  89.4884682  73.4682608
  72.2951508  79.4782257  86.4256954  71.3413572  79.3978024  86.4192581
  72.5368881  79.3882036  87.3474789 102.0794106  71.7610025  51.4938259
 102.7603149  72.0027256  52.1216631 102.2983265  72.2523642  50.7020712
  77.2191986  34.1904823   1.2761362  77.0907863  34.1837016   0.3276212
  77.9479584  33.5876361   1.4234884 107.6759338  43.5560131  64.1231441
 107.7463245  42.7948427  64.6992540 106.8066502  43.9136410  64.3039179
  99.4333172  91.0704231  62.8064871  99.5023727  90.1194382  62.8906441
  98.7159729  91.3112926  63.3926821 108.7447453  83.7796688  53.5635567
 108.9625740  84.0228081  52.6637411 108.0807209  83.0962276  53.4729290
  15.6027088  19.3548883  57.3324966  15.7066498  18.5799993  57.8847408
  16.2271175  19.2257226  56.6185904 105.1943874  96.6311169  69.0759993
 105.1046085  96.9375515  69.9783659 104.6680355  97.2432232  68.5616922
   7.2712075  96.1653614  42.2541380   7.5905739  96.1715508  41.3518095
   7.7859150  95.4834175  42.6857138  10.7082020  80.9525967  61.4790249
  11.0466801  80.1255894  61.8221331   9.7992073  80.7617760  61.2476158
  64.5817709  87.5055695  50.6563377  64.2485380  86.8935204  50.0001526
  65.0874043  88.1440353  50.1534224  90.6614017  79.4827890  66.3480330
  90.7180500  80.2228260  66.9524860  89.8299599  79.0604210  66.5637732
  88.9634895 101.9873142  68.2918978  88.9351845 102.9372501  68.1776619
  88.0640697 101.7457771  68.5131121  73.0744505  93.3565903  80.4818630
  73.9574575  93.0208111  80.6360722  72.8880739  93.9006615  81.2470245
  50.7804260  10.3402437  39.3780231  51.6193352  10.6104101  39.7514892
  50.1712284  10.3631795  40.1159811  63.4682140  11.5325082  72.0881128
  63.1452236  12.4307836  72.0173168  62.9808674  11.0494531  71.4207363
  32.1915184  82.2511482  82.0271492  32.2491490  81.3280773  81.7804909
  32.7388989  82.3247814  82.8089237 100.3196071  38.0159200  60.9145355
  99.4343780  38.3729375  60.9861898 100.8590006  38.6054243  61.4415741
  28.7964020  10.7537664  53.2688713  28.1608257  10.5007661  52.5993395
  29.5461330  11.0849393  52.7744436  86.5466595  83.4849453  48.8677025
  86.0865784  84.1872311  48.4079838  86.2033463  83.5180759  49.7606039
   6.5505419   5.9453023  48.4486771   5.6582556   5.8770288  48.1089830
   6.4428291   5.9822095  49.3990850  96.6775249   3.2541765  83.2466316
  96.8430208   3.7455476  82.4420166  96.4418291   3.9218057  83.8908005
  37.8973351   3.8461126  66.3419199  38.0371151   3.2773698  65.5848026
  37.2159538   3.4056486  66.8497992  57.1899366  95.5937958  50.4899740
  56.8093061  96.4525414  50.3058100  56.7462778  95.0002384  49.8840952
   9.8916184  96.8943501  79.0852833   9.8909317  96.0465622  79.5296907
   9.9808918  96.6781425  78.1571007  71.2348890  84.7154903  81.6026115
  72.1166372  85.0820446  81.6688061  71.3299131  83.9680576  81.0122299
  70.9880733  92.2758579  74.6565819  70.5297995  92.0522881  73.8464928
  71.6651249  91.6046143  74.7418165 107.1944237  45.3126717  12.4166429
 107.8967857  44.9063158  12.9243779 107.1584225  44.8031473  11.6071236
  81.5926075  61.8108606  73.1614542  80.6818581  61.6967773  73.4330273
  82.0631313  61.9978905  73.9737701  54.9117432  13.2310689  74.9196243
  54.4732914  14.0776266  75.0052261  54.7798405  12.8062261  75.7671738
  91.0563850  83.8227463  55.7320595  90.9053898  84.4085503  54.9902678
  92.0093155  83.7648392  55.8014202  11.0070454  75.1084232  73.5735416
  11.1581837  74.1678810  73.6671829  10.6741940  75.2099133  72.6818371
  29.8898468  22.9276765  59.2241669  29.5022640  22.1064676  58.9214754
  30.8109341  22.7161325  59.3760681   6.1573635  80.9404087  52.3224640
   6.9438683  80.5336189  51.9589281   6.3940846  81.1554241  53.2246637
  89.9801731  93.9095879  56.7422771  90.1009750  94.7765446  56.3549566
  90.7093430  93.8175106  57.3555136  14.5966564  97.7834988  50.0203657
  14.1614949  98.6186790  49.8490906  15.2689301  97.7201462  49.3419361
 103.7478828  73.6677742  76.8972111 103.4819126  72.7864075  76.6351414
 104.3058586  73.5318136  77.6629829  40.5964718  28.8784708  53.9235163
  41.4950237  29.2036546  53.9791727  40.4442749  28.7543500  52.9866791
  79.0806866 102.3006439  76.9379950  79.0973186 102.7272129  77.7947283
  80.0003529 102.1225357  76.7412281  73.4966946  65.1594162  71.2134123
  73.9237928  65.2897453  70.3667545  72.6995087  64.6714687  71.0069418
   4.3255841  97.6174450  59.0953255   3.6249672  98.1932735  59.4015837
   3.8714634  96.8414783  58.7668514  35.9521256   2.4797262  74.4516850
  35.4558907   2.2446550  75.2357244  35.4780350   2.0605482  73.7335253
  65.4417499  51.2102977   7.7016027  65.1352867  50.7193366   6.9391878
  65.6702408  50.5379287   8.3434255  69.8400164  86.0536671  63.6481380
  69.7191525  86.5880108  62.8632164  68.9734125  85.6873322  63.8242722
   3.4319531  92.3204327  66.2386131   3.7194096  91.4134407  66.3432837
   3.5898434  92.5166702  65.3151417  44.9961090 102.5449181  22.0512152
  44.3831635 102.2605228  21.3732433  44.4378281 102.8270245  22.7757668
  67.6243067  99.8560905  76.7401457  67.4345589 100.5232716  77.3997593
  66.9674492  99.9992943  76.0587740  96.3775921  90.6732750  80.6282520
  95.9331226  91.2530994  80.0098038  95.7963181  89.9169254  80.7075882
  11.0427055   8.3175577  72.2984982  10.7817326   8.4142030  73.2143497
  10.2711449   7.9504217  71.8670654  92.8599380   1.1480058  60.2340317
  93.3217548   1.9673170  60.0560141  93.3673214   0.7338632  60.9320831
  50.9069904  66.2497512   9.0459879  50.9863457  66.9625560   8.4120805
  50.9791550  66.6784564   9.8987634   2.6301609  64.2791557  52.1627140
   3.0888211  64.5515108  52.9575062   2.2405564  65.0847912  51.8230247
   8.9500843 101.4782810  73.5397720   8.5764157 102.0093441  72.8365088
   8.6142002 100.5965900  73.3784294  46.1546192  29.1050161  46.5897703
  45.8058319  28.8351263  47.4393225  47.1016464  28.9936937  46.6733551
  26.9463978  16.6646398  81.1761093  26.0642490  16.4103616  81.4470100
  27.5191078  16.2957490  81.8485355  55.5385002  60.0038997  18.2942159
  55.5096992  59.0772907  18.0558736  54.8148235  60.1152316  18.9107473
  97.4152756  74.6219397  82.2587395  97.9137993  74.7945309  83.0574417
  97.0522022  75.4732275  82.0143604 100.4857610   1.6568292  63.2644320
  99.7301744   2.2424901  63.2163048 101.1556219   2.0858301  62.7320147
   1.4188038  83.4556961  32.3113108   1.9553124  82.6641178  32.2689295
   1.0688816  83.4604454  33.2022429 108.7649425  24.6905605  27.1660669
 108.3499416  24.0110294  26.6348035 109.4282421  25.0723306  26.5911634
  73.9747810  79.0118599  66.4003277  73.9295578  79.2459583  67.3273611
  73.6837769  78.1005096  66.3689613 103.0513763  45.3095150  88.4915352
 103.3219433  46.1148405  88.9325428 102.9676342  44.6671009  89.1961765
 101.0330486  62.9530859  85.8329391 100.9240532  63.6087322  85.1441193
 100.6103516  62.1678209  85.4852104  98.3275700  89.2492485  75.8298063
  98.3692837  90.2045822  75.8724785  97.5105381  89.0656567  75.3661442
 105.3007603  98.4212685  64.5534420 104.9774742  98.5330486  65.4474354
 105.1054573  99.2532825  64.1223431  50.9733925  13.7992204  75.4253626
  50.1922665  13.5474123  74.9327374  51.6642914  13.2302202  75.0860691
  12.4448811  92.9928589  41.9755363  12.3872410  93.7778473  41.4308357
  13.3565556  92.7123260  41.8956852  32.3132095  17.1004594  35.5902243
  33.1244145  16.5994943  35.6750584  32.4398193  17.8595079  36.1594701
  85.3039074  87.2469044  42.6807022  86.0571098  86.9194698  43.1723404
  84.5991707  87.2957802  43.3266115 107.6654625  98.9362621  57.2059155
 107.7296543  99.8737335  57.0235348 106.8241119  98.8359451  57.6512194
  23.7383210 100.6864834  40.1889181  23.6140667 100.8920193  41.1154985
  23.4240567 101.4636898  39.7269464  69.4524670  79.9095297  82.6931763
  69.4960928  78.9559555  82.7640152  70.3017139  80.2126598  83.0143166
  94.0268326 101.7529202  65.9558296  94.5572090 102.4759388  65.6209135
  93.1400299 102.1096897  66.0062027  92.4179100   8.0184568  67.9868603
  92.7057384   8.8967527  68.2358313  91.6402839   7.8605093  68.5221910
   4.8499546  11.4415277  71.9608164   4.7434244  11.9835485  71.1790943
   4.8150358  12.0618547  72.6889706 107.7338982  96.8993473  65.3813362
 107.1008015  97.5245571  65.0284386 107.8002548  97.1237469  66.3094902
  68.6962494  75.8606044   2.6833494  69.5278248  75.6259719   2.2714384
  68.1056484  76.0321895   1.9498785  15.0057732  80.2518559  66.0929632
  15.5672489  80.9708977  66.3826990  14.1869770  80.6758976  65.8360577
  15.9321365  32.3419870  83.9904690  15.3206787  31.8896211  83.4093380
  16.7955360  32.0302595  83.7191772  94.3356133  69.9918127  84.3251419
  94.7684765  70.3100538  85.1173401  93.4008884  70.0513935  84.5225525
  88.1034445  12.3664583  87.3609543  88.4680246  12.7814783  88.1426716
  87.5866197  13.0552686  86.9430256 104.3272018  84.0581036  67.9985523
 104.2418385  84.3185329  67.0814228 103.8487053  83.2312393  68.0582714
 100.5996227  87.7625942  56.0367823  99.8917103  87.5710297  55.4216433
 100.2179432  87.5999069  56.8993855  66.3658508  19.8807374  17.9804285
  65.4904255  20.1963178  18.2046373  66.3650688  19.8312513  17.0245130
  13.1798779  79.7122526   3.2380038  13.6967789  79.2043257   2.6126570
  13.6261021  80.5576706   3.2867739 100.9742283   4.8049463  63.1274509
 100.3408693   4.7940553  63.8450670 100.4401897   4.8930467  62.3379755
  10.5472409  86.7498589  61.9011784  10.8912979  86.1288261  62.5431871
  10.8575856  87.6034164  62.2034216 106.6283703  69.7473717  84.1724110
 107.4501896  69.3109035  84.3967628 106.4251137  69.4364786  83.2902145
 101.1066532  81.1649227  32.6891756 101.5617657  80.3468323  32.8887820
 100.8229160  81.4952946  33.5415721  32.7838456 101.5201664  83.5970974
  33.3701931 100.7814693  83.4335136  32.1661793 101.5021229  82.8660774
  63.0954552  72.7450275  85.5099201  62.8655100  72.2136879  86.2721825
  63.5275269  73.5162258  85.8770752  87.9162121  73.0795288  59.7700739
  88.7523937  73.4978962  59.9750376  87.2653580  73.6037397  60.2367783
  81.4584637  59.0853977  81.3928223  81.2027645  59.0807867  82.3152256
  82.4035454  58.9341021  81.4055061  18.2883581  26.9372121   1.4478643
  17.4659284  26.4483444   1.4770754  18.0862936  27.7714292   1.8715150
  39.2465649  24.5474065  43.0894375  38.7933407  23.7229265  42.9131937
  39.4685707  24.8886217  42.2231150  55.3855228  92.0141697  51.8793678
  54.7673702  92.5955391  51.4365053  55.3171587  92.2515774  52.8041363
  46.1062393  11.5176214  64.9912119  45.5405960  10.7823862  65.2272511
  45.5338154  12.1154893  64.5104599  31.2703190   1.7599023  87.6142311
  30.9326134   1.4546216  88.4562492  30.5767593   2.3209489  87.2671986
   5.9918318   0.2743829  67.6374197   5.5200539   0.6104387  68.3994770
   6.9151650   0.4182924  67.8447342  69.6364387  46.6786662   1.0111387
  69.0335735  47.3430053   0.6773145  69.3085941  46.4763729   1.8873937
 103.6006927  70.5090332  67.2399807 102.9475880  71.0361195  67.7002811
 103.0915642  69.9780846  66.6275167  30.6113561  27.7696983  14.7057016
  31.2474903  27.4133912  15.3258665  30.5526670  27.1083204  14.0162332
  59.6702099  86.0608959  87.9547501  59.5383739  86.6927433  87.2479057
  59.9022675  86.5957451  88.7139130  59.9711561  81.3871670  68.2497835
  59.4732475  80.6458378  68.5943794  60.7172108  80.9875107  67.8026676
  82.8908920  69.1452312  41.0212421  83.1337452  68.9438963  41.9249678
  83.3351421  68.4770536  40.4993153 108.4834862  96.3142395  58.3659458
 108.3324242  97.2357941  58.1558514 108.6915493  96.3125706  59.3002558
  75.9948015  73.3005428  70.6417942  75.5415583  73.9337826  70.0851917
  76.2151814  73.7918425  71.4331770  61.2605079  28.2143585   7.6840360
  60.5208572  27.6077024   7.6505048  60.9683498  28.9163391   8.2654913
  31.3768444   0.1161207  59.0360928  32.1637878   0.6157220  59.2536783
  30.6573544   0.7339204  59.1660738  78.9408859  40.9369937  17.6255186
  79.6038040  40.5508033  17.0531232  78.1203922  40.8380214  17.1425779
  94.9504566 101.1573410  35.5332184  95.0757599 101.8530941  34.8878789
  94.4500542 101.5705776  36.2368274 102.5803089  77.0718336  39.8898911
 101.6536617  76.8347168  39.8535466 102.9309559  76.5569925  40.6166744
  42.2297367  32.6106635   2.3680551  43.0674824  32.4030773   1.9541509
  41.8027529  33.2108299   1.7567308 105.6625652  86.6776657  62.3863173
 105.7305527  86.3431835  61.4920425 105.0436211  86.0875607  62.8163433
  52.8365660  75.4333353  65.1949072  53.3001184  75.0234079  65.9251833
  52.1322918  75.9326649  65.6083059 104.1813564  77.4892807  84.4686699
 104.0842247  77.7532482  83.5537243 103.9253521  78.2635880  84.9698162
  13.8097988  74.3001795  64.6156025  13.5279118  74.1772032  65.5220509
  13.0545079  74.0333605  64.0916014  78.7865719  29.3640987  30.5450113
  79.6427997  28.9634506  30.3947027  78.4429821  29.5312873  29.6673830
   3.7909184  27.3224081  41.3822556   3.9810238  27.9801763  42.0511627
   4.6368609  26.9121564  41.2025213  74.8385223  57.9488651   1.1926611
  75.0128063  58.6640540   0.5808122  74.5496448  58.3846370   1.9944627
  87.2188091  89.9094200  68.9783287  86.7536259  89.7630596  69.8019886
  88.1432056  89.8039818  69.2033243  78.7283134  92.8305721  52.1822977
  78.3824110  92.4739933  53.0004883  78.0172873  93.3702278  51.8366909
  17.1937046  11.3853372  69.8530626  16.4672241  10.7798589  69.7052288
  17.9625664  10.9228910  69.5195580  67.2049713  91.9022560  74.8365116
  66.8866205  91.8362617  75.7368088  67.8233290  91.1770535  74.7473621
  91.6853142  50.1138115  86.4130497  92.5629807  49.8017788  86.6334343
  91.4595222  49.6457243  85.6092167  51.9003185  41.1387912   2.8485258
  52.1772083  40.3227130   2.4318845  51.4424404  40.8595745   3.6413820
  34.9850416  92.2055531  39.2046595  34.6349216  91.3407993  39.4187832
  35.7835889  92.2768402  39.7276068  63.5907444  28.0435602   9.1045053
  63.1732353  28.4594098   9.8588236  62.9288372  28.0801717   8.4140260
 107.6114464  45.6457758  76.2520504 107.1012688  45.3694725  75.4907274
 106.9559288  45.8398676  76.9220161  75.3868437  84.6919441  58.8147545
  76.2486982  84.2798996  58.7542963  75.4874277  85.3590965  59.4937468
  58.2240375  44.1537372   4.6436937  58.4606632  44.9077884   5.1837499
  58.9531502  44.0599719   4.0306432  37.6976738   9.1216386  68.3761978
  37.5114880   8.5774244  67.6110840  36.8354473   9.3795980  68.7021732
  70.0316000  72.6873827  69.5915699  69.0804863  72.7885103  69.5544243
  70.1737690  71.7417669  69.5488024  36.3295349  20.0411979   8.2188089
  36.0584530  20.9277955   8.4569128  37.2857841  20.0656263   8.2536848
   6.6577755 101.3099670  44.3257093   7.2416912 100.8918190  43.6929131
   7.2454487 101.6955185  44.9755001  84.3813705  94.5213413  74.3930054
  84.8863125  94.4993782  73.5801220  83.4746265  94.6363163  74.1086960
  79.8910236  65.6617355  34.1396022  80.0378513  65.7396507  33.1969452
  79.2745209  64.9347067  34.2266893  87.3179340  65.0176954  83.5517025
  87.6418972  65.5520344  84.2767906  86.3788223  65.2002573  83.5205746
  59.1322374  85.7838917  46.7543030  58.4954357  85.7684517  47.4687815
  59.8109293  85.1655483  47.0249748  88.3758736  81.3975620  72.8093004
  87.8873920  80.7411671  72.3125458  87.7661896  81.6867828  73.4881783
  39.5600853   1.8296159  78.8647652  38.8729153   1.5829385  78.2457495
  40.3605232   1.8458665  78.3401012  54.5003208  11.9102756   6.3787801
  55.1338657  12.1540824   7.0536192  54.6779617  10.9856502   6.2063272
 105.3156948  84.1450977  50.8806944 104.4728374  84.5973206  50.9170532
 105.3066254  83.6888790  50.0392580  60.5639347  80.7395164  11.8883188
  60.3993210  81.6050617  12.2624452  59.9039825  80.1750938  12.2909601
   7.5168190  14.9340356  45.8217907   7.8575001  14.0448869  45.7238579
   6.5713511  14.8190988  45.9172726  97.4165916  73.7476587  66.2831926
  97.0860767  74.5535564  66.6800833  96.6393185  73.2009268  66.1684370
  73.9764547  64.0807819  78.1693840  73.9158583  63.3957291  78.8351679
  73.4476185  64.7992992  78.5162210  59.7667980  92.0394325  83.2162666
  59.4681215  91.2928963  82.6969337  60.2111912  92.6068974  82.5864124
  97.8486633  78.3335733  80.7444763  98.7817383  78.1200171  80.7442951
  97.7362728  78.9153957  81.4962006  71.6335545  16.5509618  82.4571896
  71.9316349  16.0133947  83.1909466  70.9095631  17.0646680  82.8151894
   1.7700135  76.1590767  41.5951395   2.1219002  75.5084133  40.9876537
   2.5308167  76.4577723  42.0933151  96.4089870  79.2707920  67.2632885
  96.3280487  79.2203474  66.3108540  95.5153275  79.1549826  67.5860739
  33.0805645   2.9690851  80.8298016  33.6673031   2.3389543  81.2480354
  32.3752937   3.0972494  81.4641476  91.1565590  85.3506660  83.6411285
  91.2145805  84.3980026  83.5683060  90.4687595  85.5967045  83.0225563
  61.1248360   2.5229848  65.8776999  60.4049835   1.9792665  66.1977100
  60.7992325   3.4199632  65.9528494  14.9669823  61.6151897  25.1477201
  14.2248377  61.3201229  24.6200998  15.6904682  61.0475437  24.8820455
  14.2458115  21.4954866  50.5625486  14.8582993  21.3970674  49.8335743
  13.6908588  20.7169736  50.5158758  91.5604877  85.7089996  51.0075951
  92.4566460  85.7329750  50.6720829  91.0160255  85.5955124  50.2285480
  38.0748711   1.7637266  22.3952913  37.1828709   1.7484487  22.0484066
  38.0353031   1.2197698  23.1819153  97.1851429  61.4114944   1.8949087
  97.2553428  61.2878505   0.9483297  97.8990253  62.0111553   2.1117265
  97.5398159  85.5368042  68.0766249  97.3779392  86.1165524  68.8208866
  96.9986439  84.7667122  68.2507467  26.5683136  41.8972219  65.7381868
  26.0415134  41.1051286  65.6318903  27.4735699  41.5865148  65.7239246
  30.2140843  83.5561371  20.8157420  30.7269512  82.7708626  20.6245875
  30.8296238  84.2792988  20.6958175 108.2280731  98.6503124  70.9001207
 108.6031342  99.4775772  71.2021112 107.6905155  98.3494473  71.6327524
 105.8454037  99.8430920  69.8013639 106.3062000 100.6049824  70.1526833
 106.2225246  99.0982246  70.2695370   6.3513314  80.6401825  58.3298159
   5.6602036  81.2899494  58.2018709   5.9692704  79.8196411  58.0184221
  14.6440827  92.2925472  38.1854987  14.6411740  91.5224552  37.6170063
  15.5715023  92.4770451  38.3340979   5.6613480  84.4186783  59.3305111
   5.5257927  85.3637886  59.3984222   5.2193199  84.0574932  60.0988817
   4.6270024 100.1106739  34.7151875   3.8422142 100.6580830  34.6889424
   5.3486382 100.7187557  34.5548248   8.5984097  15.4424585  83.8235760
   9.4355545  15.3065217  83.3798027   8.0019150  15.7223237  83.1292439
   1.5419136  53.6304617  34.9053812   2.3412453  53.4221172  34.4217634
   1.8493592  53.9053154  35.7691884 106.2040234  50.3989363  34.7598338
 106.8931961  51.0458755  34.9106741 106.3554764  49.7280073  35.4255247
 108.0207157  83.7224960  82.9608154 108.5318756  83.0096531  83.3439827
 107.3727989  83.9397717  83.6310577  92.6201344  56.8303585  86.0910988
  92.6898861  56.3204908  85.2840137  93.4555626  56.6892624  86.5365028
  56.1392292  60.4309360  22.6524789  56.8575653  60.8977596  23.0794580
  55.6652340  60.0120918  23.3709009 106.2840271  78.3051395  37.6223159
 106.2390327  78.2117510  36.6707468 106.9397736  77.6634645  37.8952146
  80.8118153  73.0727911  72.5591516  80.4345894  72.5343180  73.2548380
  80.6464863  72.5777388  71.7567682  99.7813511  92.7229977  85.5868340
 100.4764271  92.1003056  85.3738403  99.6949863  93.2633972  84.8015022
  44.9849472  10.0771535  52.6788950  45.4040299  10.7056726  52.0910549
  44.6381054  10.6116975  53.3931732  37.4738178   6.3064397  82.6509476
  36.6565380   6.3991941  83.1405258  38.0005989   5.7040418  83.1761742
  88.3146858  98.7516880  84.6632290  88.9955425  98.7301350  85.3356838
  88.7319565  99.1757965  83.9134026  97.9164600  91.5760136  69.4249487
  97.9643440  92.3339939  70.0075388  98.7017059  91.0677528  69.6281719
   6.0679566  33.4803176  16.3843048   6.3902031  34.3816209  16.3779056
   6.8181359  32.9557514  16.1045027  93.7316593  24.2025176   4.6627290
  93.9788517  23.2848064   4.7764356  93.5547718  24.5146457   5.5501516
  59.9566412  82.2736073  80.9141731  59.0414143  82.0749092  81.1119556
  59.9286747  83.1284332  80.4843807  13.1342064  96.2255383  36.1890626
  13.1187092  96.4600658  37.1169567  12.4379860  96.7526913  35.7971168
   1.4245831  90.1984596  26.3181806   2.3659836  90.0869274  26.4506793
   1.2403904  89.7312546  25.5032992   3.7677132  63.7462759  34.7881460
   4.2146527  64.3174982  34.1635060   4.2027985  63.9177752  35.6233215
  65.5507374  95.8253384  52.4527359  65.4956293  94.9750328  52.0166492
  64.9338102  95.7610416  53.1817770   5.6134758   1.0363019  73.9593792
   4.9174938   1.6920484  73.9163399   5.1555166   0.1972974  73.9087152
 100.3313160  79.6082592  67.2377443 100.5500221  79.0774107  66.4718485
  99.8579979  80.3598690  66.8809700  21.2217579   4.3769659  88.9586544
  20.8893547   4.1313280  89.8220158  20.7125149   3.8462652  88.3460617
  45.8520397  34.3724243   1.3116129  45.6362518  33.6508933   1.9024236
  45.2683815  35.0828067   1.5779550  99.9969124   5.0877489  71.7469120
 100.4147075   4.2716421  72.0219660 100.5603002   5.4218305  71.0489082
   4.1394745  61.0040760  69.3050671   3.8859021  61.8845081  69.5821238
   5.0908314  61.0479212  69.2089891  27.7951584  15.9900011  56.3482618
  28.3484898  15.5908311  55.6769037  28.4101353  16.2943376  57.0156574
  32.3888931  25.8671678  51.7675066  31.9144688  26.5720762  51.3267708
  33.0462036  25.5862821  51.1308861  19.8625813   9.5143236  41.7812872
  19.1872368   9.4153989  41.1102009  19.9008331  10.4565538  41.9455147
 100.6462501  12.2127355  58.3157206 100.1830982  12.1808542  57.4786377
 101.0964512  11.3699354  58.3726072  17.7053810  76.9144022  44.3856049
  18.2784821  77.2823059  43.7129736  17.0289828  76.4476453  43.8948345
  99.4162002 101.1523286  50.7589483  99.5009127 100.4185404  50.1501703
  98.6116495 100.9693254  51.2441683  88.7618556  91.9058405  49.8792791
  87.9003324  92.2737478  50.0758839  88.8914599  92.0839762  48.9477730
  49.3088341   8.3335072  52.8234005  48.6404705   7.6815844  53.0343866
  48.9270926   9.1663140  53.1007814   6.3980128  74.3373572  49.1714048
   6.3914324  73.3819067  49.2288685   6.4693333  74.5204746  48.2345963
  77.2818094  96.6640430  12.1148348  77.8632983  97.2725647  12.5706899
  77.5180443  95.8030348  12.4599290  43.6957359  14.7186494  21.9377470
  44.1623116  15.2810359  21.3194728  42.7697897  14.8810554  21.7575216
  14.8964430  91.4273404  42.1427679  14.8388172  91.0210549  43.0075502
  15.6826760  91.0468112  41.7512751 108.4119573  62.3333775  61.2371063
 107.6832428  62.4329602  61.8497181 109.1779103  62.6362883  61.7247486
  43.4455633   3.6813876  45.2699900  42.5578547   3.9453155  45.5119562
  43.4061384   2.7263284  45.2195978  80.6765314  99.1759001  42.8901482
  79.8708352  98.9840232  43.3700132  81.3721379  99.0747257  43.5398626
 102.8817685   9.3063158  44.1406345 103.5581942   9.7450995  44.6565294
 102.1540309   9.1879869  44.7510672 101.9686022  99.8002039  45.8708191
 101.7116871 100.5824867  46.3589382 101.5979900  99.0732126  46.3711834
  56.4080693  92.2375762  59.6489668  56.3188912  91.4287888  59.1448402
  56.2570931  91.9722175  60.5561686  38.3506536   4.5432189  52.3550749
  37.9320025   5.2469379  51.8593502  39.1019773   4.9609655  52.7760649
  20.7629086  88.2803582  85.0660610  20.7359244  87.4325251  84.6225739
  21.4770533  88.7521802  84.6375656  99.5565810  94.5635509  29.0895581
 100.3249850  94.3025826  28.5819316  99.6868195  95.4966562  29.2586279
  67.4340725   9.6307802  64.6404457  66.6285706   9.2696387  64.2703438
  68.1243372   9.0454745  64.3287086  47.2936821   6.9602233  60.1434803
  46.6136789   6.2866116  60.1519966  47.0915174   7.5141871  60.8974600
  64.7696422  30.2224877   3.6835153  65.1469826  29.6082023   4.3131979
  65.4814051  30.8316400   3.4871538  91.7357948  92.2622727  58.5499477
  92.2047748  92.0022213  59.3428278  92.0881917  91.6931807  57.8657055
   6.3667942  81.0859047  62.6780891   5.9643008  80.2321946  62.5186872
   7.0177151  80.9202324  63.3600616  97.8061452  97.8231423  73.8841629
  97.0082393  98.2007360  73.5140276  97.6948776  96.8782150  73.7794542
  16.0128094  95.7848882  74.9325371  16.8703581  95.5577110  74.5730448
  15.7476450  95.0097471  75.4275894  72.1087763  99.9610402  62.9452467
  72.0473909  99.0221929  62.7690935  72.3278739 100.3497921  62.0984268
  44.3242718  84.8237943  54.4175053  44.8425080  85.4289638  54.9480057
  44.2145897  84.0519797  54.9729347  34.8119473  20.1305819  51.0261631
  34.9087429  19.2283380  50.7215023  35.4934716  20.2335167  51.6903687
  45.0631666   9.0393597  46.8299675  45.5661678   8.8438511  47.6205349
  44.4408274   8.3157575  46.7569923  52.6616812  25.1411510  47.9905701
  52.0136642  24.4906425  48.2610226  53.2691336  25.1951957  48.7283468
  97.3137369  97.3047011  88.7544632  96.3635793  97.2353028  88.6616421
  97.5429883  96.6236775  89.3868256   5.3679730  86.9869029  60.1694107
   6.0129620  86.9086277  60.8723307   5.5700184  87.8237938  59.7510529
 107.8064694  85.2953362  73.0731344 107.3187222  84.6340310  73.5640621
 107.1311703  85.8470558  72.6784086  71.9842291  17.1627808  33.4097528
  72.7031708  16.6402173  33.7651205  72.2731113  18.0694413  33.5134149
  11.1337115  77.8358184  46.5788603  11.0929657  77.2423088  47.3287392
  11.5811707  78.6133086  46.9128036   4.2702795  49.1228806  41.1378527
   4.1105248  48.7364613  40.2768135   3.4099532  49.1374337  41.5572071
  30.5090308  24.3322277  34.1444421  30.3784966  23.4409571  34.4682145
  30.3397822  24.8900509  34.9036670  20.6833483 100.4838087  63.9010286
  20.1429917  99.6981930  63.9850283  21.3098360 100.4218175  64.6220732
  14.9244667  99.3152394  32.8136754  13.9813257  99.4025176  32.6754546
  15.0201823  98.4984015  33.3034158  98.7174740  87.8005992  78.2666492
  98.2402053  88.2572090  77.5738621  98.9651503  88.4908151  78.8818645
  89.4590225  89.0146576  48.0143690  89.6280565  88.8653301  48.9446163
  89.7029068  89.9289989  47.8703737  67.2707081  14.8224866  76.0732794
  67.8948450  14.3378949  75.5330420  67.5980043  15.7219827  76.0689259
  57.9849577   9.6996111  60.5792141  58.8667488  10.0698113  60.6195927
  57.9785633   9.0218401  61.2550974  10.4430367  90.4549645  25.0542879
  10.0784231  91.2270521  25.4869199   9.8299958  90.2667116  24.3436718
  47.4022770  17.7936518  38.5978961  47.6016665  17.3015642  39.3943429
  47.4338436  17.1406865  37.8987026  67.3230314  36.2015343  36.0146499
  67.4653769  37.0078015  35.5187631  67.3087168  36.4824367  36.9295931
  11.3066221  78.5810768  62.4610424  11.8991543  78.0412470  61.9378567
  11.5668799  78.4135782  63.3668280  23.4591436  27.7023792  47.2708035
  23.9042401  26.8955970  47.0115328  23.0605698  27.4950337  48.1160164
  96.6392301  53.7567630   2.0235117  97.4274992  54.1838154   2.3588998
  96.4804720  53.0350959   2.6319749  62.8857555  96.1233180  44.7788572
  62.6531901  95.8801716  45.6749725  63.0295052  95.2881961  44.3337250
  10.2183415  85.6180572  75.2510595   9.9120308  86.0686134  76.0380840
   9.5796276  84.9189364  75.1114035  79.5872106 101.3065710   6.0755455
  80.1746335 100.9285623   6.7299730  78.7240186 101.2870575   6.4887649
  13.8477017  99.4063704  77.7140903  14.3917013  99.2853971  76.9358444
  13.5041739 100.2958640  77.6302814  33.3291794  76.6889988  62.9474878
  34.1733433  76.8762933  62.5369549  33.4434391  76.9518124  63.8607788
  21.9608046  96.4562755  54.1242933  21.1847140  95.9024470  54.0395355
  21.6642739  97.2070437  54.6387339  65.9798336   8.2141525  54.6619463
  66.1593390   8.2142729  53.7217283  66.8377399   8.3327037  55.0695848
  10.7614256  77.2460972  36.4747763  10.6313301  77.3399555  35.5311131
  10.9075762  76.3090407  36.6043735 104.2478623  98.1051611  18.1444263
 105.1167335  98.4978043  18.0600023 104.1523018  97.9341882  19.0813720
  34.1379786   8.8803357  65.4374886  33.8246894   8.7494010  66.3324404
  33.4159636   8.5812253  64.8848057  19.4348217 103.0720767  52.1145964
  18.5434557 103.3945979  51.9816399  19.3290354 102.2952760  52.6637983
  66.5302372  13.3109725  78.0451822  66.6530085  13.7939584  77.2279406
  66.2275267  12.4459183  77.7689934 100.3518691  76.8732368  50.4200506
 100.1709571  75.9498035  50.2446270 100.7762804  77.1898448  49.6226406
  50.1032019  19.0041721  83.0911160  50.8434200  19.0775907  83.6935425
  50.4865932  18.6700487  82.2801876  73.0544034  79.9297725  63.9696836
  72.8514914  80.8540236  63.8253975  73.4230282  79.9004804  64.8525715
  26.9916224   9.5163411  51.4944267  26.4385438   8.7532163  51.6616869
  26.3934708  10.2617860  51.5469313  53.3660126  16.3207912  52.6855135
  54.0531015  15.9325397  53.2271814  52.9974556  17.0172477  53.2289696
  33.5048653  90.9253727  47.6550341  32.9983832  91.3057314  48.3726931
  32.8458096  90.6327712  47.0255375  65.1861000  15.3265154  61.9696951
  64.4655466  15.7364976  61.4912033  64.7642612  14.8890340  62.7092171
  63.6831141   3.3161217  22.3216105  63.9965487   2.9551569  23.1508851
  64.4389820   3.2637611  21.7366695  21.4919305   3.6751494  47.3240423
  21.1354923   2.7950823  47.2029448  21.3448215   3.8678131  48.2500410
  37.4303627  20.1811099  68.2638168  36.9166279  19.5501661  68.7680149
  38.3028650  19.7911298  68.2101011  48.4463619  39.8270967   6.2986238
  49.1632961  39.4500997   5.7886179  47.9223071  40.3066113   5.6570203
  93.8292303  85.0763451  56.8399143  93.6943259  85.1043748  57.7871466
  94.0548029  84.1642653  56.6569948  42.7985859  34.8998022  84.6805382
  42.0546532  35.2766180  85.1504421  42.6228189  33.9589500  84.6688557
 102.5305619  79.4985234  52.0431328 102.6305904  78.5638939  52.2239494
 103.1627812  79.6767842  51.3468933  71.1682606   1.5377948  42.1072531
  72.0229435   1.1158229  42.0196009  70.6231976   1.1149415  41.4436769
  85.4180505  92.5249206  77.2136497  85.3192558  92.3414456  76.2794065
  85.3990474  93.4800594  77.2734785  15.5788018  74.5696603  21.2389922
  16.0468174  73.9965140  20.6317878  15.0705363  75.1523744  20.6747723
  37.2612978  98.7086572  75.1172924  37.2219492  99.6563544  75.2459526
  38.1800343  98.4847458  75.2656794   3.6777521  80.0551545  53.4000111
   3.5635997  80.4231774  52.5237894   4.4478489  80.5034434  53.7496138
 100.3875747  97.5516581  65.0737190  99.5230498  97.1878480  64.8827457
 100.3292479  98.4659665  64.7964668  96.2032714 103.0450017  39.4165540
  95.4683175 102.7898351  38.8589120  96.3029542 102.3166511  40.0295782
  43.5327364  99.8390698  59.4456911  42.6649214  99.5453410  59.7229004
  43.3864666 100.2456566  58.5915661  62.0098972  10.8014917  25.8905196
  62.3318100  10.5326939  25.0300813  61.1561489  11.1967337  25.7140827
  30.3475213  43.4681940  50.6592035  31.0502028  43.8936758  51.1505651
  29.5456481  43.7336302  51.1095095  98.1118693  86.9334899  65.5959129
  97.6209989  86.4202701  66.2376928  98.9437380  86.4690577  65.5035496
  83.3565592  36.1539975   4.5510252  84.1737865  35.6843212   4.3843515
  83.5335945  37.0508602   4.2672498  89.7092965  95.7986288  20.5037045
  90.5751409  96.1640864  20.6853247  89.1290882  96.2364023  21.1265564
  11.4258887  84.7289669  30.5133581  11.4528538  84.4314920  29.6039557
  11.7976500  85.6106626  30.4880691  72.8804684  37.3251390  66.8542290
  72.5255346  38.0456543  66.3335419  72.4490929  37.4089694  67.7045918
  49.8366547  11.1828649  31.3591909  49.7062731  10.5107319  30.6902599
  49.1885042  10.9787571  32.0333338  83.0415605  62.2364881   0.4582746
  82.6753114  62.2167817  -0.4258578  82.4543213  61.6830817   0.9731825
  34.3836190  96.7883944  23.7154317  34.9547220  97.4558072  24.0957355
  33.6496474  96.7247223  24.3265510   2.7637149  97.4559104  53.8328314
   2.8492690  98.1113579  54.5251465   1.8694855  97.5647109  53.5091782
  41.3002205  18.2483244  21.4075303  42.0042896  18.6701941  20.9150434
  41.1798811  17.4022889  20.9762812  81.4508804  94.3090140  55.2804756
  81.5888497  94.9031722  56.0181522  81.5144845  93.4337698  55.6627464
  30.1122214  89.5627700  74.5731068  30.5106426  89.1306674  73.8176060
  30.4173542  90.4684483  74.5194769  42.7812433   1.9420405  67.4561501
  42.9292297   1.6652678  66.5518665  42.6235723   2.8842157  67.3955011
  45.4791832   4.4299430  75.7514143  44.7315645   4.4004786  76.3484287
  46.2247992   4.6451890  76.3117361  20.4653145  97.0662545  74.4278955
  19.6996380  96.4925026  74.4000101  20.7832314  96.9978194  75.3281593
  60.4478835  47.8196645  16.9514711  59.7717046  47.1688247  16.7632730
  60.5259084  48.3248684  16.1422022  80.6389904   9.5924616  52.1986103
  81.2258148   8.8613564  52.0053530  79.9352074   9.2038208  52.7181149
  34.2961168   5.6973004  35.5537844  34.1885304   4.8682672  35.0875640
  35.0334144   6.1237693  35.1170373  99.4397559  69.0237342  37.2013664
  99.5911732  68.1658112  36.8047929  99.2586746  69.6016466  36.4601111
  96.5375652  83.1435930  32.5806880  96.3619032  83.6402642  33.3798695
  95.6817212  82.8075348  32.3145533  44.1546822   1.0586423  59.0921688
  43.6168146   1.2861982  59.8505545  44.9417448   0.6631038  59.4667530
  84.1253281  10.9810829  55.5930138  84.3188381  11.6493142  56.2504768
  84.9839783  10.7029068  55.2743196  89.8029842  67.5741493  86.9623184
  90.1995327  68.3389412  86.5450954  88.9107015  67.5485217  86.6167641
 101.4646377  76.9244586  70.9066153 100.7791605  77.1250307  71.5438938
 101.4367499  77.6537954  70.2873230 106.1605062  94.8397069  66.7871714
 105.9432402  95.5359839  67.4070358 106.9120564  95.1781928  66.3005257
   5.9349085  84.1071211  56.7039299   5.8389021  85.0210785  56.4361668
   5.9606529  84.1391562  57.6602459   1.1278392  71.1338483  66.9566107
   0.7666541  71.7878973  66.3582850   1.6499735  70.5593788  66.3966179
  53.3990191  46.0248497   7.9722078  53.0759619  46.8361786   7.5802763
  54.3419658  46.0385170   7.8082140  33.3403063  17.6340640  44.5835257
  33.6082983  16.7630076  44.2908239  33.9198399  17.8280008  45.3202486
  23.3417511   8.3087182  35.1457357  22.6179481   7.8191078  35.5364037
  23.6944008   8.8306981  35.8664346  50.7564878   0.5467105  46.2304831
  51.5048790   0.1243450  45.8088779  51.1449575   1.1081962  46.9013453
  33.8473296  39.3868065  39.2704248  34.0170622  38.8700819  40.0580931
  33.5223293  38.7514043  38.6325622  63.9179205  37.8129700   0.8934648
  63.0298065  37.5403669   0.6628759  64.4845580  37.2786286   0.3370245
  12.6106049  87.3123800  29.5207572  13.1713034  88.0827033  29.4288278
  11.9266630  87.4339961  28.8622189  83.8430691   4.8757133  71.3125420
  83.4208393   4.0343758  71.4860535  84.7493172   4.6501198  71.1026812
  24.0991904  62.9077612  60.3695345  24.6470333  62.3894393  59.7800875
  24.3808628  62.6496874  61.2471962  69.6676445  17.3442256  55.6008625
  68.8482857  17.6595020  55.9822941  70.0837851  16.8468070  56.3048792
  59.6529007  25.9200835  58.4819412  59.3952990  26.8285775  58.6385012
  59.3595123  25.7384038  57.5891113  41.1864090  29.2593694  35.7657623
  40.3331947  29.0446949  35.3887057  41.6759968  29.6514463  35.0427055
  48.8202715  14.0467381  37.1599126  48.3607101  14.8472559  37.4133015
  49.1239309  14.2169118  36.2682486  20.6382775  33.2451057  63.1132174
  21.3953042  33.1336880  62.5381327  20.8477116  32.7242112  63.8884878
  40.8419418   5.9973675  33.4862971  40.5327272   5.8474141  34.3796802
  40.0929308   6.3877630  33.0359578  84.4303608  26.6856837  37.1188664
  84.3974495  27.6422787  37.1100640  83.5144806  26.4139581  37.0592070
  69.9463034  22.1112490  60.4755926  70.6542301  21.5423822  60.7780170
  69.2353010  21.9606042  61.0984945  10.6303860  96.5587245  59.9444485
  10.3778530  95.7478409  59.5029449   9.8687531  97.1306025  59.8490286
  42.2990513  11.6606009  28.2031274  42.4886179  10.7845736  27.8671622
  42.3939228  11.5788925  29.1521049  47.4164963  17.4239361  11.5602124
  47.1340990  17.3553085  10.6481957  46.6017151  17.4511755  12.0618296
  12.7163197  99.0679165  42.9067326  11.9931198  98.6263328  42.4615192
  13.5042883  98.6979946  42.5086117  51.0333395  19.8176420  67.4312544
  51.6173315  20.5612540  67.5803471  50.8099794  19.8710561  66.5020132
  49.9055290   7.2143817  50.2623129  49.8623514   7.8742808  50.9543419
  50.8168030   7.2331560  49.9699783  54.6779442   6.2933934  53.4054756
  53.7396002   6.4576900  53.3119249  54.7409344   5.6695926  54.1287565
  71.6568327  15.4331672  37.9400420  71.1053610  16.0414255  38.4321094
  71.3798094  15.5411410  37.0301914  23.4842612  90.0159394  74.9840403
  23.5290076  89.7681319  74.0605593  23.1093193  90.8966290  74.9778080
  56.7060639  89.1521930  61.8092155  56.8233944  88.3455121  62.3109436
  55.7832123  89.1441833  61.5552092  61.0843039   3.1849092  70.3170824
  61.6910267   2.9762468  69.6067429  61.6317511   3.5941133  70.9872198
  20.8489205  72.3600041  76.3188171  20.2981640  71.7975675  75.7742357
  20.2292420  72.9067074  76.8018770  60.0873280  42.9103899  28.3516860
  59.7766399  43.7502146  28.0134535  59.3015957  42.4850321  28.6950898
  54.7646379   1.3344291  65.2276325  53.9029217   1.7339864  65.1091528
  54.7973871   0.6370864  64.5727444  59.1973877   2.9756525  63.1529379
  59.5672274   2.4967112  62.4112749  58.3584738   2.5464129  63.3209085
  57.7389002   5.3060961  16.5126157  57.3359489   4.4441491  16.6170549
  57.1766138   5.8958042  17.0149183  26.3059021  84.6195435  55.0074148
  26.7541195  83.9371168  54.5077848  25.8364416  84.1449212  55.6933975
   6.2593485  89.3270015  26.0333419   6.7446257  89.1045712  25.2388215
   6.8944002  89.2159139  26.7408705   2.9367640  58.1816908  87.0991092
   2.5637486  58.9834949  86.7327728   2.2022011  57.7560183  87.5412089
  42.9457521  10.2328539  78.0328226  42.6328850  11.1357725  77.9773092
  42.5824976   9.9036199  78.8549423   3.1592426  97.2964838   7.9272897
   3.4073744  96.4987352   8.3944852   3.1156883  97.9686239   8.6074121
  19.8853898  29.3603253  28.8233829  20.1297426  30.1649690  29.2806244
  19.3090224  29.6518612  28.1169558  87.9784845  63.1734088   6.0830076
  87.2183918  63.4101000   5.5515344  87.7967047  63.5522297   6.9430597
  78.0642033  23.9390731  66.7289209  78.2018375  23.9301395  65.7817078
  77.3568344  24.5700216  66.8622255  44.4564056  17.7230394  78.9648914
  43.8456249  16.9904184  78.8846016  44.8080349  17.6456189  79.8517942
  39.5245100  72.4023639  47.0511150  40.3311325  71.9110595  47.2067308
  39.7155787  73.2840382  47.3710775  22.7905774  13.0191863  19.5185125
  22.5333214  12.6179945  20.3486300  23.5417652  12.5031984  19.2257547
  99.6762004 101.7277653  71.1953926  98.8252988 101.5210668  70.8087730
  99.4821014 102.3838464  71.8648100  71.1593103  10.2391064  40.8863926
  70.8333111  11.0127878  40.4266357  71.1375952  10.4834473  41.8116283
  20.1124884 102.2520204  75.2926683  20.6447388 102.5021129  74.5374250
  20.7414700 102.1564532  76.0078478   4.5352627  97.9887789  68.3873367
   4.1399409  97.8669464  69.2505360   4.9240662  98.8627248  68.4231520
  49.8733473  20.5831122  69.7293663  50.3283262  20.5007577  68.8912487
  49.5711803  19.6963990  69.9260092   6.3722497  12.2995031  34.2233062
   6.5263098  11.5995121  33.5888696   6.8848133  13.0379581  33.8943768
  50.8013010  10.6399882  54.8763943  51.0409069   9.8116297  55.2918959
  49.8880339  10.5216265  54.6153069   5.0918604  90.7387828  29.6206069
   4.1805817  90.4716395  29.5004869   5.1771570  91.5390324  29.1023803
  94.9659409  89.7948824  36.2539434  95.0470819  90.0790118  35.3434944
  95.7544269  89.2763936  36.4142179  79.0807343  28.7013483  57.5897503
  78.2413960  28.7021136  57.1295929  79.7354174  28.6451077  56.8937159
  49.1684198  19.3151438  30.2610230  49.3483734  20.2551007  30.2428555
  49.6282578  18.9982295  31.0384202  41.4285135  19.8813188  73.8451004
  42.1410227  19.4598401  73.3645630  41.3134670  20.7263446  73.4104347
  78.9890693  70.9744134   7.8196962  78.8801979  71.9200781   7.7192266
  79.1901754  70.6614306   6.9377477  44.3585634  20.2034283  46.7416382
  43.9563990  19.9349666  45.9155512  44.5274210  21.1393118  46.6328192
  96.6237345  73.4457957  41.7062378  95.9022393  72.8185903  41.6583586
  96.5735092  73.9319264  40.8832026  31.5699078  88.1395422  76.4036369
  31.5878845  87.2499811  76.7566061  30.9089781  88.1094347  75.7119036
   7.0736849  15.4131150  48.7655497   7.7160710  16.1178720  48.8485479
   6.9123340  15.3457165  47.8244543  56.9126104  58.4323343   0.6705434
  57.1430849  57.6784703   0.1275880  55.9558069  58.4248307   0.6970651
  88.9404106  19.7691453  76.0638380  89.8493385  19.8567474  75.7767677
  88.7187195  18.8559282  75.8818579   8.9411522  85.1324629  45.3916454
   9.3467499  85.3351556  46.2346363   8.5706640  85.9647142  45.0978279
  12.8159739  76.5951787  61.1493778  12.8325249  76.3463270  60.2252388
  12.5342251  75.8024298  61.6058826  87.8229155  57.9578244  67.2725105
  87.2475316  57.8172575  68.0244446  87.6224961  57.2341048  66.6789627
  14.1324784  86.6664814  46.8045473  13.9827896  85.7628392  47.0825005
  14.7365404  86.5928577  46.0656834  62.8821659  24.3153334  68.8227034
  62.5390339  25.1535320  69.1324043  63.8316011  24.4360733  68.8075876
  73.1046887 102.2372621  82.5119400  73.5071745 101.9384119  83.3273697
  73.5219031 103.0801236  82.3337555  60.1308060   0.7026652  72.0546341
  59.2639923   1.0660006  72.2358942  60.2006578   0.7145362  71.1000586
  95.6168666 101.8346324  60.9780073  96.1915054 101.3544177  60.3818417
  94.8554244 101.2650166  61.0874462  18.7792612  93.3109509  52.4561214
  19.5737053  93.3367722  51.9228077  18.3974529  92.4519466  52.2756577
  47.3023701  32.6164055  66.2951231  48.1217957  33.0261779  66.0178852
  46.7819214  33.3373904  66.6494513  48.4231138  10.0543141  73.1385422
  49.2882967   9.7450423  73.4069443  48.4614897  10.0730765  72.1822929
  28.6156107  82.1027481  68.0467319  28.1275917  81.4033543  67.6120853
  28.4363056  82.8823387  67.5210714  28.2352902  61.3275754  53.5577440
  27.9918267  61.6720854  52.6985168  27.5078608  61.5734374  54.1292620
  35.3732920  43.5639906  12.2213638  35.3821373  42.6217604  12.0529926
  34.6466565  43.8948345  11.6933727  62.8244591   8.1315976  82.9753780
  62.0275354   8.2111162  82.4511433  63.5304642   8.3741540  82.3762512
  68.8422823  13.3343792  40.9759331  69.5989609  13.4893835  40.4105663
  68.7509775  14.1424704  41.4807940  80.6120110   8.1832206  66.1253929
  79.6671534   8.2973808  66.0232115  80.9546757   8.2114542  65.2320719
   4.7837864  24.8767972  46.4054203   3.8389431  24.7415733  46.3331652
   4.9583947  25.6437111  45.8599043  31.3143994  94.3139922  55.5770063
  31.0505177  95.0296723  54.9987316  30.8360506  94.4745236  56.3904190
  26.5283991 102.3629446  51.8036366  27.2149445 101.7762111  51.4864159
  26.6395022 102.3696899  52.7543402  71.9979143  34.4787049  62.9332972
  71.1422634  34.8822927  63.0789566  72.5330114  34.7801328  63.6674929
  14.4684483  81.7408549  45.5177212  14.0332628  81.8297111  46.3656330
  14.9095417  82.5800549  45.3857851  56.3885069  22.3683643  48.1556559
  56.3945198  23.2903838  47.8986025  56.0246325  21.9107819  47.3977327
  48.6450624   6.6937822  40.0223446  48.9100361   5.8915842  40.4723406
  49.4064474   6.9351637  39.4948435  70.6625938  20.1541686  44.4631004
  71.1535168  19.6185195  45.0862455  71.1116219  20.9994984  44.4680786
  55.9803486  39.9565387  29.9932027  55.2174330  40.2047825  30.5152845
  55.6884670  40.0442982  29.0858245  57.2155380   9.6758050  34.6025634
  56.8941593   9.1395426  33.8777375  56.5259314  10.3241980  34.7449088
  48.5176945   2.1869518  74.5329905  48.0916309   3.0440268  74.5442438
  47.9610920   1.6355515  75.0828886  79.0090561   8.2859308  59.9945641
  78.3113003   8.8667196  59.6911573  79.6227694   8.2453448  59.2611217
  72.8375340  20.4259348  58.5774994  72.6142645  20.3072977  57.6542950
  73.5124016  21.1047459  58.5753918  25.8382916  28.1810760  29.6298027
  25.7686496  28.3091712  28.6837721  24.9437571  27.9905653  29.9122000
  74.5455217  28.9072275  79.4695520  75.2048016  28.7851858  78.7864065
  74.9006128  28.4470248  80.2300453  81.9164848  17.1072030  30.6310177
  81.4113045  17.7028573  30.0776482  82.4948978  17.6803339  31.1341977
 102.5177684  87.0129215  28.0352998 103.1268778  87.2154867  27.3252392
 101.6735282  87.3433732  27.7282333 107.4683394  83.0155980  45.3893328
 108.3483424  83.3531021  45.2222538 107.0320764  83.7148224  45.8761549
  29.1534734   4.2849126  25.1718760  28.3383393   4.3737555  25.6657338
  28.8751054   4.2330843  24.2575145  40.5943085  95.1610439  44.2761946
  41.3482548  95.2041512  44.8643589  40.3471352  94.2363208  44.2710161
  46.1810398   0.2545559  67.9972219  46.4058638   1.1818317  68.0736876
  46.9052458  -0.2034499  68.4238195  31.9474007 100.4490249  58.1938744
  32.7851082 100.0035523  58.0672550  31.2896944  99.7900026  57.9717398
  37.1170115  16.3626754  37.3361945  37.7966881  16.1724293  36.6896081
  36.4339161  15.7148087  37.1633339  79.2442106  55.9344104   6.4998968
  78.6230825  55.2178800   6.3694437  80.0811075  55.4992714   6.6626508
  35.4546715  89.4136738  52.6157999  34.7158839  89.6154498  52.0415974
  36.2283159  89.6353292  52.0975637  45.9758186   3.0532762   7.3601896
  46.0066319   3.9903915   7.5527954  46.0088634   3.0038992   6.4048350
  34.1178824  92.1079873  56.3528156  33.3880402  91.5220784  56.1521435
  34.8875548  91.6612720  56.0002708  20.8769680  65.1578247  53.4967232
  21.0569693  65.5462586  52.6406002  21.6964318  65.2563321  53.9814997
  42.4995279  22.8746033  56.7127752  42.6690102  22.3317480  57.4827242
  42.0884705  22.2794223  56.0858583  68.0300856   9.0121478  49.4778347
  67.7156687   9.4055688  48.6638355  68.0509758   9.7375447  50.1020098
  57.4051046  12.1552324  74.0129948  57.9506540  12.7592981  74.5166874
  56.5153742  12.3180854  74.3261957  33.7960315  13.2778513  80.8158779
  33.2471132  13.8711107  81.3286781  34.2476296  12.7441347  81.4696598
  33.7697554  31.7780447  69.5420790  34.2370892  31.1882257  68.9505196
  33.0498481  31.2500644  69.8873329  10.7502867  58.6290156  42.4501276
  10.1809670  58.1586968  41.8411064  10.1484371  59.1151320  43.0137777
  46.8108892  19.5779502  52.2667599  46.6917133  19.4251561  51.3293791
  45.9236717  19.7021210  52.6038933  37.6306248  10.0373673  38.5279346
  38.5234261  10.2526176  38.2581115  37.7313542   9.6370620  39.3915558
  82.1739267  64.4592860  19.6002443  83.1255745  64.3691507  19.6500642
  81.8454813  63.5614672  19.6479662  69.7216797  21.2423635  58.0441713
  69.3824100  20.3683710  58.2372189  70.0456047  21.5647101  58.8852406
  41.9246387  11.0129380  64.6146965  41.1702204  10.5025065  64.9088764
  42.6715946  10.6166041  65.0632524  30.5421425  98.1830402  18.7544680
  29.9306704  97.7413147  19.3437147  30.1595761  99.0498154  18.6181724
  54.9983072  20.3077745  41.0120916  55.2832460  21.1232090  40.5996466
  54.7451448  20.5636930  41.8990231  75.3495883  75.7800939   8.1035669
  74.7995375  76.4940789   8.4259088  76.2423896  76.0492447   8.3196600
  82.7199841  15.5049956  76.9549894  82.4124813  15.8443725  77.7955198
  82.0900345  14.8210013  76.7279434  45.6068420  21.4871430  43.0897665
  44.9178553  20.9531975  42.6942587  45.1455259  22.2437906  43.4515667
  79.2118073  33.1997204  80.9898090  78.4978580  32.8534150  80.4544830
  79.1962481  32.6658797  81.7841721  62.9657269  32.7796912  69.2472982
  63.2678604  33.6820626  69.3506193  62.2352219  32.8406906  68.6317778
  54.2514849  13.1097567  30.1926970  55.1983261  13.1403291  30.3297687
  53.8806105  13.1435382  31.0744786  73.0085802   8.2605267  26.8738842
  72.3303843   8.5024458  26.2432027  72.6964760   7.4416333  27.2588992
  49.3580532  49.3446398  69.8357296  49.6960592  49.2671490  68.9435530
  50.0466299  49.8071623  70.3133965  21.4395761  40.9415102  62.1187830
  21.2919164  41.6524744  61.4951134  22.3881721  40.9277296  62.2460842
  65.4094076  17.2342956  64.3951321  64.5198536  17.5309527  64.5872784
  65.2961683  16.5474522  63.7381315  16.1390377  89.5467721  85.7966805
  15.2601458  89.2229663  85.9939861  16.6128136  88.7769615  85.4817772
  93.3159517  99.7911146  22.6285608  93.8839840 100.1365927  21.9399316
  93.8854812  99.7175386  23.3943613  41.2794209  32.8413129  47.7582979
  40.6826639  32.5966096  47.0510292  41.9365788  33.3948684  47.3364544
  20.1674986  14.3784380  68.3219147  20.3652740  15.2762914  68.5883284
  19.2370164  14.3945253  68.0979109  58.5803556   2.5825274  58.9213800
  58.8722134   3.4688035  59.1348457  59.3410730   2.0300485  59.1011238
   6.1126257  86.9142329  55.5298233   6.3085200  86.5336238  54.6736717
   5.5176188  87.6393663  55.3390980  40.4570055  22.7374315  80.5765152
  41.3080692  22.9455996  80.9619808  40.5350161  23.0100751  79.6622849
 106.7617487  84.2665151   9.8843820 107.5868486  84.1406515  10.3529985
 106.8063759  83.6522868   9.1516073  35.9365011  94.4729965  62.6136780
  35.5164887  94.2306941  61.7883825  35.5762554  95.3350752  62.8217077
  72.3625565  17.3509645  71.5262127  73.2736158  17.4195695  71.2407398
  72.1553469  16.4200580  71.4443016  66.0377884  33.5558844  43.3289385
  66.4617538  32.8515911  42.8385687  66.7292452  34.2039800  43.4634542
  47.7623129  46.8945169  81.5192604  47.2907162  47.7051115  81.7110062
  48.6355114  47.0329237  81.8861389   8.4532795  63.5456410  11.0320909
   8.2800064  62.7100041  10.5985887   7.8418312  63.5648718  11.7682893
  62.3073078  95.2328121  75.3824615  62.9418064  95.0316392  76.0703325
  62.2404171  96.1876415  75.3901196  73.3270741  11.8681860  74.8992062
  73.7763977  12.5908613  74.4609308  73.9988756  11.1936498  74.9987841
  25.7525110  13.0181372  48.8190699  25.0820827  13.6453855  48.5482931
  25.2588272  12.2620595  49.1366434  47.6658201  26.0456705  82.1692944
  48.1759596  25.7269239  81.4247227  48.2373953  25.9131026  82.9255676
  46.9881248  26.6941214  37.6808262  46.6810417  27.4472833  37.1761703
  47.6430655  27.0565224  38.2774425  70.4820347  27.8273082  49.0030479
  69.6479845  27.4614716  48.7085056  71.0816097  27.6751685  48.2725716
  36.4813542  14.2241561  29.4009447  35.7535505  14.8034477  29.1752172
  36.2431312  13.8615704  30.2541804  81.0845375  18.0600762  80.1306152
  80.7435322  18.7675214  80.6778622  81.4481258  18.5039341  79.3644428
  96.3916697  89.9538778  72.0695972  97.2213712  89.5297324  71.8506718
  96.1836424  89.6342908  72.9475641  67.1800470  48.6870718  17.4034798
  66.3139200  49.0748787  17.5286365  67.3076200  48.1324387  18.1731153
 105.0417207  56.8363479  17.1109445 105.0064396  56.1178100  16.4795263
 105.6000685  56.5084955  17.8159292  35.6310773  24.0722942  28.6057639
  34.7136068  24.1985154  28.8477302  36.1240673  24.3860579  29.3638849
  15.0113894  96.5780263  72.3227882  15.4849888  95.9379529  71.7915249
  14.9091364  96.1535399  73.1746054   8.7511421  93.9555990  47.6204443
   9.4198824  94.2889684  48.2186747   8.4587981  94.7266244  47.1343470
  66.4786911  15.2901721  38.4945035  66.4597368  14.9473548  37.6010013
  65.8953857  14.7114635  38.9855027  75.1601934   2.1236296  24.7810364
  75.9764051   2.4098572  24.3710303  75.3119898   2.2342597  25.7196259
  72.3931360  13.0059385  64.1868734  72.6038170  13.9139962  63.9694357
  72.1519089  13.0311549  65.1128340  85.4991055  43.9864826  81.7944336
  85.4764175  43.9563513  80.8379745  84.9415398  43.2589817  82.0702744
 103.1798744  25.4063320  22.5136542 102.4251080  25.2444434  21.9476628
 102.7993870  25.6061482  23.3689523  54.7425222  25.2474570  74.0043974
  54.7890615  24.2915654  74.0228176  54.0461254  25.4413009  73.3769560
  20.5683923   6.4046532  67.7973461  21.2252402   6.5192926  68.4841061
  20.3821278   7.2929895  67.4933815  58.5838699  20.6576443  55.9057236
  58.5949039  21.5269589  56.3062239  57.8293371  20.2212524  56.3012886
  20.3042961 101.6521513  50.0632048  19.7245671 101.8842227  50.7886600
  19.8823382 102.0269626  49.2900896  20.0605369  38.4422374  65.5208874
  19.7662818  37.9571414  66.2918139  20.5550885  37.8019285  65.0093603
  88.5616112   9.4643134   6.1336952  88.7678909  10.3900623   6.0045791
  87.6052284   9.4276810   6.1187243  78.4351873  24.1592526  63.9367294
  78.1201792  25.0287986  63.6899614  78.9089251  23.8482928  63.1652975
  27.3395157  34.1384649  69.7196817  27.6794362  34.5742440  70.5012083
  27.3298335  34.8218346  69.0494967  57.7864742   8.9809948  46.1276388
  58.6973047   9.0291327  45.8372831  57.2756052   9.2201173  45.3542948
  60.7348108  38.0198193  86.8842316  60.3237534  38.6643219  87.4603176
  61.6737032  38.1262326  87.0371532  81.6336918  12.3578346  53.1251383
  82.1398735  12.4477279  52.3177195  81.3664627  11.4387989  53.1392336
  13.6150290  91.0793852  30.0601530  14.4663359  91.4984881  30.1860690
  13.2564284  90.9953271  30.9436536  42.1194245  93.1936609  51.6887093
  43.0125834  92.9016971  51.8710661  41.7833782  93.4811180  52.5376368
  43.7980652  17.7449858  57.3421001  44.3325138  17.9998088  56.5899944
  43.5221910  16.8493164  57.1474218  67.6251793  10.6465709  57.4783516
  68.3603144  10.2315426  57.9295254  67.7396202  10.4030740  56.5597439
  54.3959188  22.9785228  59.1519499  53.9298773  23.7585616  58.8509941
  55.2920532  23.2786536  59.3039274  65.9226084  24.1162229  46.4446497
  66.8602705  24.2709947  46.3303423  65.5770969  24.9545884  46.7512417
  67.0927858  32.9191971  70.2868891  66.6255617  32.8141952  71.1156893
  67.0656538  33.8603020  70.1142120  58.3803892  17.2627544  54.0201712
  58.4343910  16.3192797  53.8679504  59.1753817  17.6157165  53.6206245
  80.2190399   4.9417561  58.3657742  80.9552956   5.3712070  57.9301929
  80.1952553   5.3339756  59.2386055  82.3171329  33.7381148  42.3959351
  81.7415810  34.4641972  42.1555567  82.4620056  33.8483143  43.3356667
  86.2824059  26.4293408  47.8499985  86.7441845  26.9841146  48.4786654
  85.3554249  26.6063285  48.0100346  42.6740694   8.7498885  37.9635239
  43.4574604   9.1833121  38.3021593  42.8246117   7.8192627  38.1293678
  53.7053776   0.7552867  55.2347851  53.9297199   0.6230783  56.1558867
  54.1713333   1.5538642  54.9870205  58.8131809  27.6891041  55.7720137
  59.0240622  28.1501007  56.5839529  59.5774221  27.8275537  55.2125502
  63.0994225   2.4641222  68.1101847  63.7681007   1.7809722  68.0611515
  62.6493692   2.4197456  67.2665548  48.7337853  98.7295004  65.3906536
  49.2726399  99.4806259  65.1423025  49.0637280  98.0097394  64.8527670
  42.2594095  92.2997510  22.9769349  41.5264488  91.7573022  23.2680559
  42.9408337  91.6722487  22.7358198  50.0162172  25.1057625  70.1151323
  49.3848133  25.8231187  70.0606728  49.5007658  24.3548298  70.4094839
  62.8142309  39.8764229  40.9207153  62.5079918  39.1802740  40.3394890
  63.4823799  39.4583392  41.4638662 104.6466055  62.5235068  50.1362371
 104.3769970  63.0039917  49.3534994 105.5921044  62.4132000  50.0357533
  76.2654877  12.9096341  79.5173836  76.2177086  13.8357306  79.2801237
  77.0582724  12.5922024  79.0849972  34.7431231   7.1463251  83.3755779
  34.1066122   6.6463321  83.8865471  34.7181129   6.7477000  82.5056934
   9.8896338  81.5134441  54.2611361   9.9848248  80.5798255  54.4496202
   9.7327830  81.9155036  55.1155233  26.1947943  98.5487782  44.1929531
  26.1775566  98.3016699  43.2683611  26.4184309  97.7397054  44.6529770
  68.7433147   9.9787933  77.4131680  68.2282305   9.9107820  78.2170916
  69.6364260   9.7636259  77.6820135  36.4134669   1.9959499  54.9248981
  37.2812390   1.7159159  54.6337175  35.8146381   1.6435534  54.2665243
   0.7667948  87.1873604  59.1599798   0.2356268  86.4006125  59.0370226
   0.2886344  87.8742003  58.6953878  88.4723949  39.6245408  50.0352383
  87.9187679  39.0903044  49.4657421  89.0054321  40.1434326  49.4328690
   7.2334124  82.6060092  77.5582743   6.2969090  82.4555789  77.6869583
   7.6415039  81.7647516  77.7631617  56.2780380   9.6416384  76.8139362
  56.0103321  10.4808497  77.1884871  55.8780289   9.6289307  75.9444141
  78.2717228  25.2249050  78.5234308  79.0004015  25.7138705  78.9057541
  78.0744267  24.5457315  79.1684341  35.1325369  21.8070841  70.3292179
  35.8346510  22.4463582  70.2084017  35.4207158  21.0388041  69.8363400
  35.0863862  12.9057074  68.8155603  35.8804369  13.0873048  69.3182898
  35.2792239  13.2326698  67.9368448  68.3539438  23.7775779  37.7371359
  67.9593372  24.6000099  38.0271745  67.6452351  23.1371188  37.7985501
  77.9986334  10.8193254  75.9204102  78.0724239  11.2861633  76.7527866
  77.0960188  10.5011547  75.9034443  62.6923561   1.7441164  54.2553043
  62.1994257   1.6914113  55.0741291  62.3966980   2.5592101  53.8497972
  33.1471491   9.7871125  81.5054512  32.7362347  10.3562474  80.8547115
  33.1952167  10.3236663  82.2966671 105.4980769  87.1156060  27.7937317
 106.3834586  86.8611025  27.5338078 105.4451337  86.8849873  28.7212253
 104.2402267  37.8946495  68.9704800 104.9213028  38.5294890  69.1926289
 104.5452118  37.4906015  68.1580973  45.6852223  94.8667543  47.1686840
  45.1755978  94.2369937  47.6784992  45.4002835  95.7219826  47.4905968
  46.7961193 102.4202426  55.8145905  46.3534714 102.6710020  56.6254044
  47.5779701 101.9499946  56.1041021  33.2249141  14.1619289  35.0306559
  32.6274467  14.6705818  34.4824433  33.2578135  13.3007956  34.6140027
  91.7987061  15.4376495  28.0792093  91.5865707  14.9209964  28.8565755
  92.5417805  14.9816787  27.6840258  19.3337799  78.3880126  74.2209244
  18.4567715  78.5799443  74.5529604  19.4440294  77.4481522  74.3649387
   0.0200170   5.4226416  56.7028761   0.1498113   5.9515440  55.9156990
   0.8629071   4.9913025  56.8432856  94.1125011   3.6420941  60.1397038
  93.4305477   4.2439035  60.4380322  94.7841930   3.6848921  60.8203125
  38.0183865  80.7722198  54.0742826  37.2915150  80.2825986  54.4591951
  38.0043007  80.5328738  53.1475973  58.9909840  32.7968001  48.0461407
  59.0584278  32.5705743  47.1185064  58.6692953  31.9982934  48.4646320
  45.6789255  34.7773123  67.2472525  45.4968071  35.4897928  67.8599834
  44.9696350  34.1507888  67.3907900  76.7944527   0.2640570  73.2185698
  76.5152502   0.6898949  72.4080515  77.4249458   0.8725125  73.6039162
  92.3410416  12.8979659  76.5499735  92.0683289  12.3901498  77.3141575
  91.9659615  12.4290764  75.8045244  45.2476788  15.6524527  34.2663717
  45.6396437  15.1993251  33.5198641  44.3365526  15.3591359  34.2731261
  82.9076385  19.1233325  33.3304524  82.6872444  19.9555027  32.9119444
  83.8596916  19.0611672  33.2532644  35.4288269 100.3851508  79.4229269
  35.6716944  99.7255435  78.7731838  34.9997259 101.0742887  78.9157820
  54.8292160  21.6572785  55.1062155  54.9978638  21.2874103  54.2396212
  55.4058743  22.4195457  55.1576519  91.8558565  43.5270115  86.3285385
  92.5446144  43.1319018  85.7940023  91.8959967  43.0532815  87.1593216
  76.3673019  27.7015328  48.5391426  76.7361450  27.1211886  47.8732634
  77.1057367  27.9087663  49.1118574  64.9388981  26.5865302  47.9859447
  65.6334305  27.1942163  47.7318287  64.8137951  26.7436075  48.9218426
  81.2406731  25.1969266  87.6723194  80.9665871  24.3740726  88.0773258
  81.6339493  25.6966686  88.3877373  71.9553280  31.2087536   3.6786777
  72.5541592  31.8440604   4.0711275  72.3491621  30.3578091   3.8710910
  14.2279396  83.4329465   5.4457338  14.2904911  83.0740097   6.3308771
  14.8669014  84.1454986   5.4305227  39.6053004  24.8045182  45.6931734
  39.7763181  25.7150841  45.9337044  39.6760774  24.7915792  44.7386789
 102.0736790  15.2973926  36.8536568 103.0161476  15.1418912  36.9153428
 101.7290688  15.0198400  37.7024484  61.3217592  41.8411589  32.2152352
  61.6661692  42.5238895  32.7909851  61.8151379  41.9428492  31.4013147
  46.5883112   4.1214320  55.7128143  46.9793272   3.2930624  55.4350662
  46.5386868   4.0550277  56.6664219  53.0819082  48.0382299  62.4458122
  52.7824974  48.6959028  61.8180799  53.1794834  48.5187292  63.2679033
  51.0810804  22.0549345  72.2839260  51.6660166  22.4332762  71.6274643
  50.2269602  22.0219421  71.8530846  48.8766146  15.2398539  85.5617523
  48.3089638  14.5914292  85.9783459  49.4734192  15.5174553  86.2567329
  95.1641083   6.4845896  47.8350019  94.6292591   7.2536695  47.6383209
  94.6047878   5.9388882  48.3878088  65.8103228  22.6911235  61.0614204
  66.2449121  23.5133481  61.2879467  65.9306431  22.1363664  61.8321371
  91.3122940   6.1046141  49.4687796  91.1015606   6.5241772  50.3029203
  90.7250404   6.5194732  48.8369083  74.1710329  28.1398535  66.5999079
  74.3766546  28.9836144  67.0024300  73.4788322  28.3377600  65.9690952
  98.8684009  83.0862787   6.5868147  99.3032049  82.9349878   5.7475908
  99.1947817  83.9385679   6.8754442  80.3462505  20.4752421  53.9105892
  80.9058189  20.6929135  53.1651115  79.6246433  19.9743927  53.5302305
  37.1704102  12.3044884  41.7253685  37.8121424  13.0037844  41.8494463
  37.6738405  11.4966893  41.8266153  38.4920479  82.0739590  77.7821350
  38.3697392  82.9748713  78.0815125  38.4045578  81.5442645  78.5746002
  76.3289595   2.2790711  64.7313261  76.1670971   2.6480398  65.5995989
  77.1039295   1.7289719  64.8455143  39.7946287  98.3812570  75.5639791
  40.4966284  99.0250384  75.6586790  40.2487398  97.5516974  75.4161835
  47.5447130  40.1895380  66.4102459  48.3043146  40.4040289  65.8687449
  47.6495981  39.2598462  66.6125011  53.8746834  25.1391387  61.7238951
  53.5955334  26.0525990  61.7863131  54.8304939  25.1821876  61.6955471
  22.9614544  23.7224674  79.8539925  23.0524063  24.0521622  78.9599752
  22.0186186  23.7340617  80.0187874  74.0101480   4.6401975  65.4697132
  74.6746302   5.0728428  64.9335146  74.5093775   4.0795484  66.0635757
  36.8591022  52.0240688  80.5081177  36.2768149  51.2748289  80.3823757
  37.7381587  51.6690540  80.3759861  58.2747936  18.0981493  71.4385986
  58.5603666  18.5006499  70.6184340  57.5338507  17.5458884  71.1891127
  72.5042391   9.3833810  73.0022192  71.8325329   8.7169492  73.1468296
  72.2603607  10.1002574  73.5877466  83.8497448  22.9237056  46.9211626
  84.3144035  23.0996490  46.1030149  82.9380512  23.1449938  46.7311811
  53.2473660  14.4226277  68.8077307  53.8707542  13.6962557  68.8071918
  53.0649519  14.5810091  69.7339439  67.4695301  30.1421213  45.3897285
  68.2754564  30.6485343  45.4909945  67.4545479  29.8983264  44.4642162
  43.6512661  31.4896727  53.5044956  44.0707064  30.6502223  53.3157444
  44.3735790  32.0692801  53.7464714  45.0002670  37.3371005  25.0000119
  44.5936489  37.6459384  25.8096480  44.9998379  36.3832879  25.0804663
 102.0104790  21.7637110  65.6942606 102.1637630  21.8012404  64.7501564
 102.0930099  20.8356428  65.9136009  68.4746218  15.4892027  59.6387625
  67.7674723  16.1318743  59.6948528  68.2470369  14.8252487  60.2896070
  95.0169945   3.6495021  62.9989338  94.8374271   4.4709024  63.4564161
  94.2248440   3.1271225  63.1247854  36.7778565 101.4442076  75.5758953
  37.2584225 102.1620054  75.9882689  35.9335018 101.4311871  76.0265923
  40.9138060  24.5411325  37.8016353  40.8606100  25.0301909  36.9805217
  40.6979561  23.6408162  37.5585914  54.5408297  12.7663982  87.3916626
  55.3846407  12.3484445  87.2198105  54.1062880  12.7881980  86.5390682
  72.7259254  21.8254685  67.3731375  72.3735428  21.0618424  66.9160414
  72.9143333  22.4552417  66.6773510  36.1018777  18.7141931  74.4188452
  36.4817762  19.3470311  73.8093996  35.7242727  18.0374849  73.8569641
  65.9708548  17.8612363  37.7297354  66.8083096  18.3238649  37.7001190
  66.1716938  17.0295990  38.1590080 103.8714790   7.9621136  61.7632151
 103.2332325   7.5536859  61.1783552 104.5849609   7.3265845  61.8204069
  34.6807219  83.3696233  58.7856913  34.3712927  82.4669873  58.8614321
  33.8921238  83.8780617  58.5963821  89.7918320  35.1147294  67.0272160
  89.0942860  35.3289604  67.6466990  90.4664612  34.6958160  67.5616455
  89.2016411  13.2518768  59.4089603  89.8754978  13.9245808  59.3108654
  88.6006260  13.6084974  60.0630474  70.5788708  32.1723795  48.7754297
  70.9205770  33.0389261  48.9958048  69.6874237  32.3374367  48.4683323
  68.6343527  59.7584295  16.3072050  69.4758368  59.4308043  15.9897161
  68.8640642  60.3715897  17.0054150  75.9038115  10.2606332  23.4098577
  75.2630758  10.5359209  24.0655279  76.5363550  10.9782970  23.3770180
   2.4570690  21.9257402  49.2982388   1.6407715  22.0407891  49.7847176
   3.1430756  21.9912481  49.9625683  84.1243362  37.5847745  61.4086103
  84.3576336  38.3185792  61.9772387  84.0424252  37.9732990  60.5376482
  75.5747986   6.1127901  46.9628429  74.7452354   6.5553778  47.1422100
  75.3518915   5.4360110  46.3236904  56.7710733  19.5811737  26.5504837
  55.8221531  19.5646286  26.6750240  56.9859743  20.5105019  26.4704990
 101.5708351   6.0971403  68.0477715 101.3912296   5.1774383  68.2430172
 102.1459866   6.3846290  68.7568378  75.0067377  29.8622227  73.5822248
  75.3102684  30.5204582  74.2073822  75.5347633  30.0147486  72.7985382
  19.6889794  31.8465185  34.6816206  19.7835493  30.9431839  34.9837351
  18.8173425  31.8771625  34.2872357  49.5785046  33.5607147  65.4091787
  49.5641708  34.3434262  64.8583698  50.4076624  33.1327581  65.1956844
  80.6868839  10.6661201  75.5816364  79.7662115  10.8992422  75.4622889
  81.1467648  11.1464393  74.8931360  17.7848984  96.0979157  68.3307791
  17.6065375  96.9784456  68.6610603  18.1592489  96.2395256  67.4612713
  51.6357946  48.7439299  65.2035332  51.4430523  49.3206739  64.4643068
  52.5273466  48.9766407  65.4627752  71.4985704  23.3641028  51.7283297
  72.2763443  23.3152246  51.1725378  70.9081602  22.6997113  51.3730383
  69.5711040  33.6686850  40.8541870  69.1026831  34.5007133  40.7868195
  69.5507860  33.3098722  39.9670148  31.6764784  16.3307953  22.0981932
  32.3697138  16.6643369  22.6677585  30.8705330  16.4687037  22.5958538
  92.5399303  15.7053745   5.1433945  92.0733833  16.5331638   5.2588791
  93.3147144  15.7875133   5.6994432  54.4194269  14.6556067  78.2783985
  54.9154902  14.9572957  79.0394068  54.0165854  13.8358629  78.5647011
  39.8767757  10.0050819  57.1995115  39.0063572  10.0452316  56.8032885
  39.7094417   9.9547082  58.1406212  22.5158572  10.6871426  76.1397266
  21.7953801  11.2911212  75.9598541  22.1297455  10.0137877  76.6998577
  90.5813980  48.3147049  47.5254393  90.9536648  48.2841253  46.6441202
  91.1159897  47.7037621  48.0325794  89.3807220  13.8701761  65.4546738
  89.7467136  14.2940092  64.6783686  90.0367641  14.0125227  66.1370087
  65.8598042  30.2258730  27.4177337  65.3117704  29.5732951  27.8536654
  65.7379198  31.0235167  27.9326487  88.5473728  36.3689709  44.0768766
  88.1606102  36.6769624  43.2572508  89.0741062  37.1063757  44.3851280
  53.2810665 101.9478197  57.1232700  53.3159329 101.0479718  56.7987871
  53.5197998 101.8785241  58.0476284  50.0820780  30.5030537  75.7664394
  50.1895380  31.3777637  75.3928566  50.9589434  30.2601719  76.0636711
  53.1926107  22.1440029  47.6820993  53.3380413  21.2160969  47.8666925
  53.9331341  22.3975277  47.1311188  38.4082913  29.6629620  62.7291441
  37.8747034  28.9806390  63.1365156  39.3111968  29.3922973  62.8956699
  57.7220869  10.4888105  54.0883112  57.0280981  11.0187101  53.6961174
  57.6717758   9.6504331  53.6291599 102.1253967  37.7425623  45.8954144
 101.4459133  37.0761609  45.9976149 102.3548985  37.7101588  44.9666977
  51.7118645   8.3436841  64.3536091  51.6747427   7.4382210  64.0454054
  50.8361244   8.5148650  64.7000360  61.7427731  37.1953034  61.1770201
  62.6664448  37.0064378  61.0115194  61.4486122  37.6580811  60.3924561
  72.9806280  29.7312093  22.6999140  72.7159214  30.0489998  21.8366814
  72.7875566  30.4579234  23.2922339  90.7264519  16.2605774  79.4846582
  91.4364624  16.9019210  79.4564390  90.7980824  15.7873344  78.6557198
  99.6047090  50.9576281  11.3701017  99.3590282  51.0011689  10.4459913
  98.7749361  51.0277853  11.8420942  29.3677449  40.9797573  52.5815153
  29.9667287  40.9246016  53.3261013  28.5017204  41.0769224  52.9774857
  52.5592518  39.4366884  65.3234243  52.2026062  40.3249550  65.3277349
  53.3649158  39.4995785  65.8364344  57.1194315  22.2513461  75.3100204
  56.9861174  22.6633501  76.1636686  56.2379789  22.1586823  74.9485207
  82.1443939  16.6027462  38.5720181  82.5475216  16.7440033  37.7154183
  82.8545856  16.2660491  39.1183639 104.7856488  94.5399337  48.7673235
 105.1396909  93.7971603  49.2563772 105.5254331  95.1402520  48.6747503
  24.9093652   1.1376302  72.9722881  24.5909977   0.2422728  73.0872202
  24.3468237   1.6663513  73.5381794 108.2544969  86.0257771   0.5636175
 107.8759073  86.4395621   1.3392980 108.5775636  86.7562321   0.0360735
  92.2645187  38.6761618  70.8805466  91.7794514  39.3398809  70.3902245
  92.0862770  37.8579473  70.4168844  23.1646729  27.8334665  29.1622305
  23.0087066  28.4476757  28.4448361  22.3770261  27.2901535  29.1878772
  72.8818941  30.1170516  35.9666300  73.4428787  29.4736791  35.5334973
  73.4297991  30.8979416  36.0456371  41.4365196   3.2285407  82.4022579
  42.3293877   3.5533139  82.5186443  41.4477062   2.3531608  82.7893162
  95.6290601  59.0197310  14.8104150  94.8688530  58.4630146  14.6419389
  96.3318657  58.6289778  14.2911775  60.6142092  37.9932332  34.4708872
  60.9259272  38.4427524  33.6853981  60.2237320  37.1827459  34.1439724
  50.4671383  27.4922514  29.6752715  50.8525372  26.6420913  29.4633126
  51.2101650  28.0309653  29.9471617  78.8375067  93.3814505   2.0033891
  79.1820787  94.2501810   2.2103078  79.4383882  92.7758291   2.4374349
  93.9776039  15.5851674  65.6453896  94.6578312  15.1357198  66.1469030
  94.4259262  15.8962715  64.8589706  57.0946026  15.3869784  44.2445850
  57.5651741  14.5554590  44.3026400  57.7475357  16.0099113  43.9254189
  52.6069260  22.0072126  67.8976488  53.0854130  22.6677561  67.3966885
  52.8515339  22.1733785  68.8080263  53.2181072   3.8456500  53.2320976
  53.0212593   4.5243400  52.5864458  52.3604631   3.5436022  53.5311604
 109.1034951  82.2388493  74.5057487 108.3138337  82.6170551  74.8925686
 108.9597812  82.2985779  73.5612869  95.0093174  39.9355030  46.2143469
  95.1840019  39.3617034  45.4683781  95.8237267  40.4232025  46.3372612
  35.5080676  25.8971739  38.8346982  35.3153396  25.9186935  39.7720480
  36.0642862  25.1263356  38.7221766  43.6299992  18.0679798  53.4290171
  43.1270933  17.3561442  53.8247538  44.4770622  18.0388987  53.8738441
  54.4244623  34.2546797  46.0919285  55.3474092  34.5074415  46.1146688
  53.9479828  35.0777245  46.2005281  74.2876625  23.8530374  60.7137394
  74.8458385  23.7794566  61.4878559  74.2478418  24.7926736  60.5356121
  30.7296610  11.9515777  50.3231049  30.5420828  12.7716410  49.8664427
  31.4609241  12.1625412  50.9036064   3.7843920  92.4704372  81.7599869
   3.0608298  92.5973975  81.1463356   3.7923790  91.5283572  81.9292641
  70.5941343  18.3979595  67.1875811  70.3427124  19.2460799  67.5532436
  71.3659286  18.5865986  66.6537428  82.6436710   8.2257181  48.9757347
  81.8005848   8.4206355  48.5665369  82.5019550   8.3927035  49.9075413
   1.6131697  78.8333228   9.7481306   2.4443255  78.5027078   9.4073732
   1.5262613  78.4219816  10.6080587  64.3782473  31.1340928  42.3131037
  64.7507238  31.9017243  42.7469635  64.6652460  31.2104750  41.4031458
  75.5544472   8.1950873  56.0716820  75.3329992   7.3515099  55.6772614
  76.4698982   8.1030858  56.3357258  44.1089296  34.2911649  43.1568956
  44.4441509  33.5492349  43.6602783  44.0075541  33.9511800  42.2678661
  80.7659245  27.4336600  69.3917227  80.7106590  28.3496237  69.1193485
  80.4392529  26.9399810  68.6395216  22.8704430  99.4621982  24.9062920
  23.0189444 100.3196093  25.3050709  23.1285025  98.8356682  25.5823803
  85.7955170  33.2181048  55.8892870  85.0658798  33.8318682  55.9739113
  86.4665985  33.5609746  56.4794779  68.4515047  26.6428328  54.8560953
  68.5721731  25.9785843  54.1775322  68.8065290  26.2419701  55.6494999
  86.5701962  36.2442946  82.7427101  86.3779068  36.8379593  83.4685326
  86.3292217  36.7382336  81.9590092  27.8615261  77.4573003  24.4321179
  27.3047281  76.8821656  24.9569297  28.3434464  76.8637954  23.8561535
  53.4797430  12.0491719  46.0001421  53.7560940  11.9937575  46.9149065
  54.2977905  12.0924425  45.5050039  48.7042665  44.2344046  67.5905848
  49.5521736  43.8110399  67.4562359  48.1029892  43.5129786  67.7756310
  50.4985619  33.7133431  30.3191710  50.5018330  33.3058596  31.1852980
  50.1150417  33.0510092  29.7443151  62.5099230  21.2469983  83.5151100
  61.9285917  21.8834758  83.0989552  62.0907211  20.4009938  83.3576965
  47.5168228  13.5395491  10.5504036  48.1857967  13.8269424   9.9290246
  46.7887831  13.2488918  10.0011230  74.7060537  17.3093379  46.4781857
  75.1760197  18.0190217  46.9160366  74.9516678  17.3921347  45.5567455
  52.5476933  34.4909596  63.2370996  52.6992512  35.1558638  63.9087868
  53.0330658  34.8058510  62.4745512  59.4565105  43.0410099  21.5101671
  59.8608303  42.3607302  22.0486641  59.0545559  43.6383867  22.1408844
  40.5716635 102.6187328  62.3666096  41.3243605 102.1322571  62.7027941
  40.4411198 102.2768057  61.4821482  62.9830837  33.3440566  81.7616081
  62.9630041  34.2882681  81.6057396  62.2521448  33.0008602  81.2476254
  50.7152414  29.2436528  55.7180548  50.8758974  29.8865247  56.4088058
  51.0746479  29.6465063  54.9276304  48.6400604  23.3845091  73.6515760
  48.6531401  22.5834870  74.1754341  48.5703421  23.0782509  72.7473783
  34.7244048   5.4770297  59.0381336  33.8900375   5.2328938  58.6375570
  34.7007465   5.0733876  59.9057436  67.7582836  36.7086911  15.0058317
  66.9881344  37.1672988  15.3416574  68.2728815  36.5017033  15.7859468
  45.1639462  15.9448218  66.7440605  45.5350161  15.1325250  66.3995123
  45.3321552  16.5937233  66.0607862   4.7601734   8.1825280  74.0923452
   4.4940792   9.1019869  74.0878487   4.2367970   7.7851182  74.7883081
  75.2061892  20.2293062  38.7920070  75.3630733  21.1626339  38.9352465
  76.0809803  19.8429799  38.7505698  72.4394131  24.3189502  27.0748448
  71.6986132  23.7411952  26.8914223  72.8399849  24.4737387  26.2193823
  63.5591745  14.8444545  51.4671087  64.0083885  14.9931657  52.2991657
  62.6392412  15.0306320  51.6549540  81.3975143   1.2985229  47.8182220
  80.5171680   1.6587657  47.7112246  81.8859100   1.9888562  48.2667017
  88.8134766  36.5991426  47.5419569  89.2044258  37.1803761  46.8896055
  88.0145931  37.0496082  47.8160000 100.3432560  16.8524301  33.1543708
 100.2264309  15.9352791  33.4021950 100.7170963  17.2651529  33.9329195
  45.1410532  20.6290054  75.1177931  45.3582525  20.2278423  75.9592915
  45.2101278  19.9130654  74.4862175  45.6549549  26.6669297  66.5804291
  45.0536966  27.3578811  66.8584681  45.9307480  26.2472129  67.3952961
  72.6114845   9.0791291  22.6287413  72.1938038   8.8468999  21.7993784
  72.8271818  10.0071561  22.5366855  68.6933804  20.0968051  23.0044341
  68.9364004  19.3648648  23.5713887  68.0192900  19.7387898  22.4268055
  48.2947350  20.2092314  34.4504714  47.9374456  19.3476772  34.6656466
  48.1572533  20.2967739  33.5072494  87.4578667  70.6944513  55.1299620
  87.2177792  70.7897902  54.2082787  87.1849728  71.5177107  55.5349445
  29.7185780 100.6920142  10.3827405  30.4300095 100.6474968   9.7438997
  29.9421097 101.4385953  10.9385133 102.6456451  33.0163693  28.2133842
 102.1838760  33.2589483  27.4107885 103.5199547  32.7612424  27.9188991
  69.9848938  33.2314467  88.1630135  69.2845201  33.8287616  87.9004669
  70.5235291  33.7441182  88.7657261  86.3862896  34.0916586  70.6807089
  86.2032127  33.5931110  71.4770508  85.8166790  33.7015915  70.0176620
  93.7860870  52.2666979  71.3932800  92.9706764  51.7736864  71.3022852
  94.1185760  52.3467970  70.4992628  87.7155018  32.0845056  51.1818886
  87.8649521  31.8036819  50.2790976  88.4607315  32.6505160  51.3831377
  78.9928246  50.6855917  84.7919750  78.1713772  50.2000570  84.8675156
  79.1693878  50.9971762  85.6796455  82.1404266  23.7768817  37.3617578
  82.3310852  23.2991862  36.5544844  81.9625664  24.6722770  37.0739055
  80.7615662   0.3917748  61.4865160  81.6195202   0.7632169  61.2811518
  80.9133816  -0.5523286  61.5295410  80.7012939  43.4174919  56.4755583
  81.2199974  43.2583046  55.6869888  79.9075794  42.8976107  56.3491488
  78.2482052  31.0526991  58.7442350  77.3477888  31.0527158  58.4194613
  78.6061192  30.2124071  58.4578133  72.4299431  46.5239239  57.1825123
  72.1698332  46.2151289  56.3146305  72.9033422  45.7862902  57.5672483
  13.5328995  56.0901213  80.4855251  14.1462551  56.1373329  81.2188721
  12.9021012  55.4180765  80.7437611  90.3979397  60.2353621  53.1623125
  91.3398170  60.0746346  53.1052160  90.2359581  60.9366989  52.5313473
  98.3685684  45.6422901  84.6624565  98.3383179  46.5201473  85.0428391
  97.4546337  45.3584862  84.6420193  84.5894146   9.5416218  46.0134459
  85.0705719   9.8004210  45.2274799  83.7347317   9.2583334  45.6886339
  92.4503803   8.7495834  61.2654400  92.0918179   8.8838446  60.3881502
  91.7620373   9.0571815  61.8551826  96.5092945  36.3382244  66.9269753
  96.3904572  35.4271150  66.6586685  95.8066654  36.8124294  66.4823675
  71.6644859  44.0857077  53.0249023  72.4947691  44.3175650  53.4409475
  71.1078501  44.8531246  53.1570244  93.1955242  65.3243828  75.4873228
  92.4704838  65.4758787  76.0936260  93.0496025  64.4382477  75.1561117
  72.2720480  38.2971215  52.7013016  71.6670322  38.2571435  53.4419680
  72.2642756  39.2165112  52.4350452  96.9350815  16.8934011  66.6846371
  97.7551365  17.2224462  66.3165808  96.2790585  17.5397730  66.4237309
 105.3216648  35.4022217  44.6451616 104.5793438  35.0148559  45.1089907
 105.9789276  35.5490136  45.3253746  96.9424152  20.6777692  54.7045183
  97.0050526  19.7860408  54.3622828  97.0870590  20.5836821  55.6460381
 100.5433750  52.1223640  65.3874063 101.4438152  52.0681667  65.0672483
 100.0280285  52.3542690  64.6148348  95.5647182  82.0287323  88.6696529
  94.8625183  82.4398899  89.1737175  95.8639240  81.3059139  89.2212391
  91.8787956  62.8572178  41.2346315  91.6372490  63.5515308  40.6215906
  92.7312279  63.1260157  41.5771723  76.2949753  64.6613359  51.8950605
  76.5508366  64.8185587  50.9861898  76.9966316  64.1158199  52.2504711
  88.8492298  53.5524321  50.9666443  88.7220860  52.7884674  51.5291643
  89.2572880  53.2017040  50.1749945  16.7564713  42.6221704  59.7725630
  17.0825898  42.9826260  60.5971527  16.1353527  43.2770681  59.4539070
   2.1342980  53.1155300  45.7867098   1.7303883  52.9657936  46.6415024
   2.9805600  52.6714945  45.8405972 102.6205349  33.1062913  35.9083772
 102.6771164  33.9363003  35.4349685 102.6034451  32.4396062  35.2217412
  90.2724552  55.7764196  38.7622261  90.7555103  56.5535450  38.4812164
  90.7260609  55.4855156  39.5533323  58.9922508  45.8559219  16.0668810
  58.1511005  45.6080810  15.6831033  59.1353496  45.2157871  16.7640073
  81.2240887  56.6343164  16.7108047  80.7253361  57.4465322  16.6225481
  82.0801926  56.8367577  16.3335311  85.1378441  66.1880541  86.6188622
  84.5651436  65.5086422  86.2629795  85.5805492  65.7665014  87.3554325
  92.4958324  47.2137499  42.5324249  91.9724655  47.1106148  41.7376423
  92.8179264  46.3327646  42.7231026  72.9269886  30.0728989  71.1879921
  73.8755035  30.1805854  71.2583780  72.5764894  30.5324173  71.9510269
  95.8648396  59.9899626  78.4372425  96.3418674  60.5011463  79.0909719
  95.7717228  59.1230917  78.8323355  77.6395369  41.0452652  57.9714394
  77.5533724  41.5173578  58.7996531  77.1304750  40.2446079  58.0980492
  94.8844624  52.3208952  57.5077581  94.9095726  51.4567280  57.9186296
  94.9385834  52.9356527  58.2394505  89.9551105  50.7924128  62.2203922
  89.2885590  51.4635897  62.0739174  90.0492001  50.3591347  61.3720655
   0.6258618  57.2821236  23.8356709  -0.0516571  57.8594065  23.4836030
   1.0467850  57.7982759  24.5231605 106.6979790  44.9917793  46.4276838
 106.7913151  45.5240250  47.2177696 107.5168324  45.1258469  45.9504700
  62.1400928  91.0513115  43.4266853  62.1652603  91.9556808  43.7392712
  62.2950363  90.5228806  44.2096233  71.6922712  67.5237989  65.5663204
  72.4014664  67.8267717  64.9993277  72.1339893  67.2093582  66.3551474
  13.6960350  59.6343470  27.8591442  14.1353070  59.0976191  27.1994543
  14.2626797  60.3989267  27.9619241   3.1370388  30.5160928  56.8402004
   3.9998566  30.1493502  56.6471195   3.3148228  31.4166522  57.1115208
  98.3539200  86.7109013  86.2027645  98.4941483  87.5570202  85.7777214
  97.9043198  86.1829853  85.5429173   5.8420025  71.7797279  29.8541451
   6.7615258  71.9015646  29.6178055   5.8214413  70.9386158  30.3105950
  63.7809420  95.8294678  54.4259310  63.0421495  95.9575653  55.0209236
  63.8607168  94.8791027  54.3442726 103.7235069  78.1095219  71.8111515
 103.8123131  77.8002644  72.7126551 103.1121254  77.4944305  71.4060593
  87.6873016  49.1450357  65.0190926  87.7421379  48.8857317  64.0993166
  88.5182095  49.5871878  65.1932335  77.4070168  63.8594055  78.1437111
  77.5657082  63.9302540  77.2024202  76.5502024  64.2659378  78.2734251
  83.4267330  25.5129647  54.9564648  82.8833008  25.9670663  54.3124819
  82.8645802  24.8164535  55.2957010  81.2850952  51.8827200  33.2763004
  81.7346668  52.1942568  32.4907684  81.9207001  52.0068645  33.9811563
 105.9260368  49.3756819  82.3137760 106.7044544  49.4446421  82.8665257
 105.2936840  48.8965464  82.8493023  89.8097134  63.7747526  17.5197577
  89.7998238  64.2349052  16.6804767  90.0312805  64.4502831  18.1606877
  96.7994976  58.3309793  54.0121794  96.9326591  57.4343204  53.7047625
  97.1357918  58.3293533  54.9083614   1.8294751   5.7587266  69.7437572
   2.0358120   6.1763221  70.5799818   1.7627369   6.4847249  69.1235113
  82.1581173  67.8562593  63.1077623  82.0021248  68.6788273  62.6437807
  82.3695755  67.2280979  62.4171591  78.8040638  16.1525655  66.8324661
  78.4725046  17.0357335  66.6702509  78.2982063  15.5945623  66.2417269
  70.3504562  73.9622927  63.3198309  71.0609818  73.4859657  62.8903055
  69.5590639  73.6720896  62.8662777 103.8712883  80.2982998  30.5017591
 104.3629742  80.5413342  31.2862420 104.1882801  79.4221926  30.2822566
  83.4334278  35.3718567  68.3365726  83.5890102  36.0857892  68.9548969
  82.4955368  35.4162335  68.1505442  83.0463314  17.9313135  72.7879143
  82.6601219  17.1245134  73.1287098  82.4827957  18.6276865  73.1251383
 101.1993217  58.4227467  28.8408852 100.4793262  59.0033865  29.0872502
 100.7713699  57.6716423  28.4298706  80.7478333  58.7446117  53.8167000
  80.7105541  59.6888542  53.6642122  81.5989208  58.4791470  53.4682608
  87.8807735  28.4642839  77.3049545  88.1597614  28.0361271  76.4955854
  87.0658112  28.0214596  77.5415516  78.9641380  57.7328348  55.9855890
  78.2306814  58.3434963  55.9123611  79.6813631  58.1630230  55.5200195
  91.6810608  71.2937784  75.6968212  91.7362213  71.3713932  74.7443724
  92.2054005  70.5204678  75.9048843 106.5239143  74.2391062  86.5638065
 105.9821701  74.7667933  85.9770393 106.4909077  73.3575869  86.1922359
 108.2559967  58.8306332  83.6676979 108.1219292  58.3847952  82.8313446
 108.9015961  58.2921410  84.1253757  68.9584526  20.9250919   3.3047826
  68.3800014  21.6818324   3.2100446  69.8393806  21.2986652   3.3300264
   4.1637074  50.3202820  76.2691784   4.4051873  49.7804213  75.5165339
   3.3479344  49.9346638  76.5886450  66.3712740  95.9900665  40.2097559
  65.9203053  96.8279266  40.3138828  65.9448576  95.5804825  39.4569969
   9.4963585  74.4473743  56.3777590   9.6372162  73.5827255  55.9920549
   9.3550907  75.0243378  55.6271648  84.7079468  73.4115171  71.3450766
  85.5324650  73.0441332  71.6635704  84.8483658  73.5371113  70.4065990
  69.5066977  39.7282052  52.3865271  69.9680042  39.8396707  51.5552616
  69.8164606  40.4517794  52.9312515 104.8976612  27.6400328  31.9297314
 104.3277836  27.7399492  31.1671782 105.3724194  26.8246126  31.7687345
   5.2935444  62.0572901  62.6754427   6.2044083  61.9609690  62.3974466
   5.1380764  61.3079309  63.2503557   8.4809529  43.6584377  62.1434975
   8.5121094  43.4495163  61.2098980   8.3332192  42.8157187  62.5727177
   3.0073963  39.9011326  54.4412613   3.0963646  39.6610641  53.5189342
   3.4413372  40.7515144  54.5103455  90.1118183  44.9842405  60.0876904
  89.6192265  45.0105858  60.9079885  90.4823112  44.1021204  60.0590181
  61.0917616  51.2922049  35.5627322  61.8081236  50.6573343  35.5646658
  60.3813744  50.8531713  36.0305190 106.6348457  68.0485630  44.1453171
 106.4882469  68.7755966  44.7504282 106.8012428  68.4689760  43.3016348
  93.3756065  59.3422651  82.1114635  93.7643337  60.0095892  82.6769733
  93.9962196  58.6140347  82.1387863  85.7927799  30.5873537  45.8675337
  85.7238579  31.1409783  45.0897312  86.7163754  30.3384805  45.9033012
  92.2493744  67.8188658  38.0799532  92.6399136  66.9506598  38.1795907
  92.6000118  68.1455612  37.2513628  85.0171661  79.6613169  37.4037433
  84.1529560  79.3821526  37.1013618  85.6305027  79.2216635  36.8148851
   0.4562222  61.4713478  83.8845348   1.2469326  60.9492826  83.7486839
  -0.2615513  60.8422422  83.8119984  83.8305569  42.8405714  53.1175709
  83.2200241  42.1942568  53.4721947  83.4634590  43.6852074  53.3784628
 102.9790878  35.9555817  30.5068183 102.4582577  36.1206579  31.2927675
 103.8569736  35.7644820  30.8370113  75.2872133  58.2080364  53.7106419
  75.8874083  58.0814695  52.9758120  75.0426006  57.3213482  53.9755583
  94.3322659  64.1073608  41.9705677  95.2090549  63.9080048  41.6423368
  94.2808533  65.0629807  41.9512987  85.0006771  54.8518562  34.0741324
  84.4303989  55.5966282  33.8835001  85.4445362  55.0920820  34.8874640
  76.6757202  59.7323895  56.0349846  76.8525553  60.5907774  55.6501055
  75.8317900  59.4732761  55.6650162  98.2784653  54.1458797  59.3790054
  97.9578209  54.4975328  58.5484886  97.4860954  53.9051485  59.8590374
  25.6890522  53.8899374  22.2556305  24.9594723  54.4915581  22.1073103
  26.3974224  54.4473171  22.5777745 106.9323254  29.8692393  72.6250315
 106.5417671  29.1885710  73.1731081 106.9084263  29.5067120  71.7394638
  10.5948578  72.6189184  70.3954363  11.5436493  72.6995802  70.4930162
  10.3604828  71.8701553  70.9437561  11.6559063  47.8732109  44.6725512
  10.7711827  47.7061987  44.9975395  12.0641362  47.0082903  44.6339703
  85.1394653  55.1521492  62.6341534  84.3811989  55.0498295  63.2093048
  85.8946323  55.0711298  63.2167196  99.3253899  17.7068460  53.1746101
  98.4122562  17.9938090  53.1831837  99.4152927  17.1704555  53.9622879
  15.2459942  30.9780550  18.6125350  15.0336396  30.7010198  17.7212501
  15.1218830  30.1915526  19.1437984  91.9074535  80.5343246  80.5760098
  91.4164925  79.7515249  80.3261948  92.3488903  80.8070278  79.7716427
  89.4195843  85.8717632  77.6688910  89.0382004  86.5708828  78.1999350
  89.1079140  85.0639057  78.0768871  76.5210629  73.8211441  60.3959846
  76.9138384  74.3574810  59.7072887  76.2077808  73.0392599  59.9412966
   4.6217953  52.8581810  37.6365447   3.7512051  52.4935722  37.7957821
   5.1133572  52.6615238  38.4339976  99.6306133  59.4086647  43.5604048
  99.1236782  60.1568127  43.2449436 100.2132893  59.1903448  42.8330374
  93.5693169  56.3144827  75.3258944  92.8720570  56.7383766  74.8255157
  93.1148815  55.6789541  75.8789110 104.5313644  64.1726303  41.4657450
 105.0964451  63.8699722  42.1765995 104.1769028  65.0046730  41.7792606
  78.1714487  46.6332197  60.3484917  78.5040045  46.0189772  59.6940136
  78.7422657  47.3977137  60.2713442 104.7211742  38.1595159  52.9363585
 104.6271801  38.4016562  53.8576460 104.9799061  38.9714956  52.5004959
  80.1082134  56.1396885  57.8040409  79.8690939  56.8966103  57.2691393
  79.8692656  56.3916636  58.6960268  60.3241110  66.9098663  54.8656559
  61.1175871  67.3468161  54.5562935  60.3827000  66.9544792  55.8200169
  90.3366661  75.5834389  30.4641485  89.9809551  75.1879358  31.2599397
  90.5879307  74.8384809  29.9181294  93.6075115  62.2199965  72.4770260
  93.3603191  61.3513041  72.1600151  93.4868622  62.1721601  73.4253883
  85.6596947  79.6529436  87.7395725  85.7507992  80.5486774  88.0645180
  86.5590954  79.3372869  87.6520061  54.6793127  99.7398949  81.0092640
  53.7456369  99.9204826  81.1182213  54.9924612 100.4370785  80.4329872
  92.0696163  74.8522902  74.2178679  92.2074413  74.5173359  73.3318424
  92.4675083  75.7228279  74.2094231  80.0440121  47.2531366  19.6430683
  79.6300793  47.4689865  18.8074231  79.8693991  46.3196468  19.7627926
  87.7243042  46.4583540  65.9520197  88.2438946  47.1378326  65.5224133
  87.0627689  46.2169123  65.3037071  87.9789925  65.4955053  76.6027260
  87.7304459  66.0560036  77.3377752  87.6168633  65.9349298  75.8333063
  90.7863140  60.7307053  63.3646441  90.4656696  61.5645933  63.7082434
  90.4420853  60.0739861  63.9700031  94.8932552  63.4507990  68.7534952
  94.8489475  63.6826229  69.6811438  94.4592667  62.5994205  68.6983919
  19.1579567  39.7301412  48.1024361  19.1274487  40.5008650  47.5356197
  18.3100544  39.7257566  48.5465908  59.5101357  70.4469633  24.3015623
  58.8480330  69.7725725  24.1497231  60.0750113  70.0792980  24.9812484
  48.6597443  76.9824648  64.8634148  47.9052877  77.5499439  64.7053099
  48.8610077  76.6072035  64.0061522  87.4935341  30.3788543  71.2199450
  87.2556591  30.6333256  70.3283787  87.7252769  31.2019157  71.6501760
 104.9172306  30.8310437  87.2678566 104.0019226  30.7519007  86.9992065
 105.1533318  29.9556446  87.5747204  66.5286922  64.6701336  51.9730902
  65.6285524  64.7818089  52.2788763  66.7903185  65.5413961  51.6752815
  95.4998493  42.5569916  55.1277256  96.1770439  42.9414129  55.6843805
  95.9839821  42.0392513  54.4844532  94.5314407  46.0451221  77.0347357
  94.2329407  46.8947315  76.7102385  93.8092422  45.4475355  76.8409586
  97.3561096  54.1173172  21.6308331  96.9429684  54.7164488  21.0090709
  98.2421875  54.4617081  21.7426515   9.0009342  36.3535905  26.0237670
   8.1261574  36.6983485  26.2030816   9.4760834  37.0922136  25.6431174
 102.3156834  59.6159458  85.9684753 102.0702457  60.5411243  85.9748745
 103.1097603  59.5751190  86.5014172   2.4444138  63.0483055  64.9724007
   3.3980213  62.9665613  64.9865198   2.1448456  62.4809122  65.6827164
 101.6409302  68.4654665  54.2999840 100.6963062  68.5471869  54.1686773
 101.7527485  67.6062489  54.7067785 105.9510492  64.9706891   6.4914472
 105.5859636  64.3102243   7.0802839 105.1859735  65.3843227   6.0916956
 108.0825710  76.2487030  59.7086859 107.6728344  76.6827965  58.9604092
 108.1796074  75.3371716  59.4331408  99.3420696  48.5580826  53.2003069
  99.7172260  47.9254913  52.5876713  98.9323139  48.0208635  53.8783360
  62.1078157  74.2232752  65.0760365  62.5474787  74.9312401  64.6051693
  61.1975241  74.5109701  65.1455259  78.4518909  49.0324640  54.6748352
  78.6461639  48.4650230  53.9288473  78.1299257  49.8434973  54.2813969
   0.8695923  38.6434269  27.4354458   1.2481629  39.5206451  27.3770809
   0.9336888  38.4161353  28.3630586  89.9979019  59.5109463  67.7994919
  89.1778278  59.0723610  67.5728464  89.7895813  60.4443073  67.7586126
  95.3268719  78.5813284  46.4851522  94.8353863  77.9257488  45.9902859
  94.9067974  78.5968113  47.3451138 105.6319904  32.4381995  39.4328570
 104.9666691  32.0994449  40.0318718 106.1497116  31.6703105  39.1909027
  89.4628716  27.6335549  74.8565674  90.0902271  28.3530831  74.9268770
  88.8723373  27.8987169  74.1514540 104.5327187  53.8373899  43.4050989
 105.1323986  54.5527935  43.6168003 104.6072483  53.7352276  42.4562883
 101.8527889  64.8697615  51.6090393 101.1804008  64.4045115  52.1067095
 102.6803398  64.5618343  51.9785881  75.5281353  19.3412340  48.0616045
  75.2282333  18.6895978  48.6953735  76.3710737  19.6383560  48.4042501
  77.1726656  77.8768301  52.3587799  78.0406094  77.4852610  52.4566507
  77.1444798  78.5657883  53.0226946   3.2279526  29.2427135  31.0110927
   2.7878796  28.3929992  31.0345817   3.6600434  29.2651391  30.1572609
  96.8019390  29.5936060  58.1335878  96.1019039  30.2098012  57.9179716
  97.1217346  29.8837733  58.9878464   0.7770382  37.2395277  43.7923717
   0.7307564  37.8513885  43.0577135   1.4511238  37.6042891  44.3657684
  70.2562523  84.2603302  53.4025955  70.8801365  84.9650097  53.2281923
  70.5470371  83.5393333  52.8441620  78.2107735  71.6751814  31.6113806
  78.1366253  70.8755875  31.0904360  77.3558092  71.7672491  32.0318437
  93.8600636  54.8317528  67.2916794  94.2554855  53.9886999  67.5133371
  93.9890099  55.3695822  68.0729294  60.2973700  39.6735668  29.7414708
  59.5850611  40.3109789  29.7919369  60.7150269  39.7125053  30.6018639
  80.0597954  81.4889431  62.9112053  79.4206619  82.0867062  63.2990551
  80.2483559  81.8649197  62.0513725  50.3037533  38.6103145   4.8739393
  51.0048374  39.2101184   5.1287801  50.3866562  37.8738109   5.4796751
  89.2465019  79.1854620  40.2837181  88.4993172  79.7829533  40.2528429
  89.8109245  79.4704342  39.5650744 108.7404251  59.9625826  64.3665743
 108.4926987  59.2223978  63.8125086 109.5557690  59.6862268  64.7849941
 109.0064430  43.9087963  50.9497166 109.6824360  44.4322109  50.5192471
 108.5966396  43.4155846  50.2390575   4.4568573  60.3220367  58.1456041
   4.3235146  59.7021723  58.8626957   3.7131153  60.9215832  58.2058525
  75.0564384  56.5476084  58.2173586  74.9348927  57.4950790  58.1560564
  74.2695665  56.2335110  58.6627865  15.2118336  66.9618559  31.4802313
  16.1665665  67.0300817  31.4889669  14.9615418  66.9858170  32.4038172
   2.9949795  46.4034939  24.4918013   2.9649197  46.1307955  23.5747600
   3.5736405  47.1659660  24.4961023  70.2325392  71.9714260  41.9617891
  70.1240206  71.8722057  41.0159540  69.3463802  72.1242571  42.2898197
  96.0169983  71.5545321  72.8884792  96.9279099  71.8480253  72.8705883
  96.0560131  70.6360292  72.6219082  94.2129326  32.4359083  65.3240776
  93.6725998  32.3591471  64.5377064  93.9332771  31.7077303  65.8788586
  82.3512363  21.1895704  38.6812258  81.3976765  21.2721395  38.6695933
  82.6705074  22.0772505  38.5189891   1.4292179  89.2406082  40.5212402
   1.9253098  89.7079754  41.1933184   1.8664299  89.4665813  39.7002530
  70.4268551  59.0040541  50.7431316  71.3456964  59.0566969  50.4800892
  70.4479027  58.5881329  51.6049910  97.3471165  43.4597397  24.3688202
  97.2561646  43.4169388  25.3207278  97.0333481  42.6098680  24.0597868
  88.2313347  46.3641834  47.2875929  88.3465099  47.2733021  47.0110512
  87.6588058  45.9821844  46.6223812  83.1057167  80.6785774  34.8933744
  82.9020309  81.6067410  34.7782135  84.0498352  80.6205654  34.7467160
  99.6648407  47.3292255  42.5583935  99.1103649  47.2818613  43.3372068
 100.0574493  48.2013702  42.5965738  87.6526833  76.9430876  59.4128609
  87.0062828  76.4231300  58.9353275  87.2164249  77.7800608  59.5721722
  87.3616219  60.4776478  70.3251457  86.7233372  60.8344555  69.7074747
  87.0603848  59.5844698  70.4916477 106.3562584  49.0342236  31.9891143
 106.8091106  49.3013525  32.7889943 106.2783146  49.8395729  31.4776731
  96.6017056  42.9947710  67.7959728  96.1506939  42.2958851  68.2696629
  96.5505123  42.7328062  66.8767405  93.1024265  95.0421715  26.4397573
  93.5083199  95.5357933  25.7271409  93.8109493  94.5034409  26.7918754
 101.0267925  55.2616692  75.2911615 101.2695026  56.1872530  75.3159666
 100.9572029  55.0075626  76.2113905  97.2094822  51.5143442  43.6916542
  97.5378513  50.9444666  42.9962111  96.5336323  50.9952641  44.1275549
  72.1768665  62.2683191  60.5154085  71.7146635  63.0887890  60.6869602
  72.7429485  62.1483612  61.2778997  82.3491669  32.1209455  40.2590656
  82.3516083  32.6161408  41.0782194  83.0484962  32.5159240  39.7383308
  78.7340355  64.0557289  37.2680092  78.2889509  64.1026402  36.4218831
  78.4305811  64.8302746  37.7415299 105.9739017  31.9079661  78.6569452
 106.2392139  32.6400614  79.2136145 105.1721478  31.5773416  79.0620470
  99.8456287  72.2271967  54.3809223 100.7488441  72.5436831  54.3648005
  99.8134327  71.5597486  53.6955690  94.0436745  59.0068674  87.0022964
  93.9224911  58.6030626  87.8616524  93.5974312  58.4165144  86.3951874
  93.5312939  79.1427946  65.7462311  93.5240364  78.5837317  64.9692965
  92.6086998  79.2336416  65.9845543  96.1602020  45.4475546  35.5521846
  97.1009541  45.4621935  35.3760886  95.8138943  44.7896242  34.9493289
 100.9281921  89.2569447  39.6810794 100.2141476  89.8095512  39.9988890
 100.7654667  89.1720963  38.7416363 101.5369225  83.8661098  38.9405847
 100.6379795  84.0663624  38.6797452 102.0790291  84.4079781  38.3672333
  93.1517506  14.8480773  57.7952862  93.1388283  15.3725612  58.5958958
  93.0598736  13.9450157  58.0990410  99.3302345  94.2592716  48.4216404
  99.4111538  95.1748562  48.6888266 100.2328587  93.9459419  48.3639288
  73.3125830  56.7571402  50.9923935  72.5116730  56.2393808  50.9105349
  73.3478451  56.9990778  51.9178391   1.9462143  39.9248385  38.7231255
   1.4109932  39.2783928  39.1834307   1.8806683  40.7152939  39.2589569
   9.9623333  42.5259495  18.6197150  10.9185063  42.4908972  18.5925579
   9.7274910  43.1744337  17.9559791  83.4859276  57.7829170  46.1302042
  83.0123711  57.2162294  45.5212355  82.8860378  58.5100365  46.2965345
  68.5030317  43.8178253  12.3414743  68.4696627  44.6839428  12.7476287
  67.7444839  43.7975025  11.7580175 105.9912395  35.1540756  23.6155701
 105.0966549  35.2058172  23.2790136 106.1391640  34.2194510  23.7598920
  96.5157700  33.5727692  66.7992640  96.3835049  33.6075187  67.7466440
  95.6658554  33.3067632  66.4483690  68.6710310  72.4848080  66.6531372
  69.5135117  72.9377842  66.6176081  68.3304548  72.6805782  67.5260115
  79.2090511  91.4935589  41.1158609  78.2720995  91.6893959  41.1147165
  79.5792580  92.0902538  40.4653788  82.8727150  86.1925507  44.6485806
  82.4064445  86.1779690  45.4844141  83.2656384  87.0644760  44.6086931
  16.3316094  93.0950928  89.1457558  15.7490097  93.4630489  88.4813690
  16.7827832  92.3790359  88.6986065  36.9434986   9.0647615  41.4640522
  36.4218483   9.2900957  42.2343349  37.1586857   8.1396593  41.5827799
 105.8972645  91.3206291  27.3690772 104.9554157  91.1757946  27.4595141
 106.2936211  90.7204628  28.0006886   7.1641264  10.4076398  70.7772207
   6.8781910   9.7358049  70.1582575   6.4686213  10.4397214  71.4340878
  96.7849445  87.6347256  30.9221745  97.1399879  86.7561817  30.7867837
  97.3453617  88.0181980  31.5967989  10.8467900  96.5925312  54.9308205
  10.5540882  97.4878883  55.1008272  11.2313305  96.6284847  54.0549946
  91.0728359  89.4454002  64.8862123  90.5501842  90.0771809  65.3800964
  91.8880558  89.3693161  65.3820419   5.7236134  43.8832188  75.8280325
   5.9202896  44.0022087  74.8988438   4.7871720  43.6863279  75.8513355
  90.3438187  58.1800938  76.9242859  90.5893612  57.8153038  77.7745008
  90.9330463  57.7541399  76.3017035  62.6393795  66.5284395  32.3397923
  63.1602430  65.9525919  31.7800307  61.7374325  66.2341499  32.2128367
  36.2051735   4.2980398  41.1658192  35.8335743   3.7292112  41.8400383
  36.4651833   5.0896562  41.6369581   9.0348088  67.5548124  72.4768591
   9.4057022  66.7045307  72.2408867   9.2802464  67.6769876  73.3939552
  15.8503662  65.2071524  80.9118080  15.4094063  65.9157991  81.3804340
  16.0416352  64.5561600  81.5869808  21.1796509  61.7234898  60.8011818
  21.8262802  61.9053411  60.1192522  21.5809571  62.0522928  61.6055918
  90.4419231  54.3734169  57.3232460  90.2142620  54.0159035  56.4649963
  89.6044159  54.6431255  57.7001715  21.4017903  33.5609627  59.2918015
  21.4968239  32.7080035  59.7156668  21.1665093  34.1569185  60.0029325
  63.0208921  70.9600353  61.8439436  63.5325384  71.7183685  61.5622091
  62.6804066  71.2068892  62.7038097  70.6043243  50.9848881  23.5884523
  70.8515358  50.8183813  22.6788402  70.4010916  50.1195812  23.9436603
   1.2324177  76.0800266  78.0279160   1.5048729  76.9963455  77.9793406
   1.7920719  75.6298828  77.3951530 106.1703180   8.7765897  55.7416344
 105.7027506   8.4991086  56.5294266 105.8623670   9.6687520  55.5820847
  90.1689434  41.1576033  58.9924431  90.6867218  41.9622135  59.0194035
  90.5354500  40.6134605  59.6894455  74.9293900  62.2456789  59.6842289
  75.1644039  62.9269600  59.0542650  74.0674162  62.5064611  60.0086164
  87.4717999  87.4615955  67.4769497  87.3617554  86.7518425  68.1096983
  87.3684311  88.2609463  67.9932785   1.9032704  79.6369028  48.0087328
   2.0370995  78.7196302  48.2473421   2.3047959  80.1313019  48.7232828
  20.6633984  82.3648643  82.1948910  20.8897911  82.9021263  81.4357281
  19.7156845  82.4647045  82.2849083 102.4468327  76.7681646  63.8671732
 102.5884533  76.6580963  64.8074198 101.9397545  75.9982586  63.6095905
  74.6777916  94.2681313  58.8596630  73.9192724  94.4631767  58.3093596
  74.9802303  95.1241970  59.1628170  54.5148166  59.8713771   6.1099489
  55.0378116  60.0702468   5.3333147  54.9282154  59.0934554   6.4843423
  91.2452030  41.9817305  52.6346302  91.2420559  42.9200649  52.8237009
  91.1791039  41.9293022  51.6811562   6.3970982  35.5850387  24.2756319
   6.4859520  36.4919496  24.5686316   6.5089547  35.0643301  25.0709820
  23.9525925  70.1507187  37.2432756  23.0486237  69.8916531  37.0645189
  23.8795220  70.8235884  37.9201317  98.6459732  76.8781328  72.2265959
  98.6244774  76.2013149  71.5500689  98.4338474  76.4140797  73.0364704
 107.0461464  65.6239128  55.6208897 106.1991405  65.5730200  55.1779175
 107.1886349  64.7430038  55.9672022  93.5285854  56.2765360  47.9404116
  93.9104843  57.1346998  48.1246090  93.6081600  56.1776066  46.9916677
 108.5430050  82.7305126  39.2351151 108.4534645  82.5295067  40.1666784
 109.4327450  82.4545765  39.0149856  98.7077808  58.0545473  72.8744984
  99.2261410  57.4186420  72.3813915  98.1980419  58.5159636  72.2085476
  10.6217896  78.8072824  52.9036951  11.5433537  79.0330935  53.0300283
  10.2691494  78.7349510  53.7906265  72.7952480  76.6711998  88.0688286
  73.6476755  77.0865059  87.9379654  72.4983978  76.9962931  88.9187813
  38.0597528  45.7758323   7.1029337  38.8327631  45.4075805   7.5308092
  38.1437334  46.7209903   7.2288568  71.6329432  86.6800213  48.7334824
  71.3636160  86.2622452  47.9154587  71.9930029  85.9661579  49.2597771
  92.3163414  43.1460619  59.1800213  92.7354622  43.5304737  59.9499512
  92.9611206  43.2486486  58.4800386  73.8746881  45.7616854  79.0533352
  73.9931059  45.9179449  78.1164312  74.7552156  45.5730629  79.3778706
  91.4092922  54.7645998  76.7491627  91.3949203  53.8581610  77.0563984
  90.4928207  55.0398684  76.7721987  82.4361610  59.5644665  58.2136393
  83.3770943  59.5293951  58.0414248  82.3340511  59.1514540  59.0710926
   8.2238232  54.7257805  61.1688137   9.0952336  54.9443960  60.8385563
   8.0171620  55.4296970  61.7836571  84.9806595  66.5816212  53.9528227
  85.4099274  67.2486401  54.4885921  85.4687500  66.5851784  53.1294250
  74.1951656  48.0424690  21.0608625  74.6224737  47.3180580  20.6038380
  74.4533348  48.8217640  20.5686474  10.2452504  65.7321739  69.3534422
   9.3566071  66.0681725  69.2365837  10.6038033  65.6898260  68.4669447
  15.2250443  84.9483135   1.6060312  15.8369503  85.2938941   0.9561212
  14.3726883  84.9767116   1.1713846  61.9802380  69.8465776  42.1926355
  62.4540424  70.4383278  42.7770853  61.0644007  69.9302578  42.4580956
  91.7595673  63.3764648  32.5971055  92.2823334  63.1642914  33.3703637
  92.0207882  62.7257919  31.9454789 104.4378471  66.9663620  31.5837383
 104.3375015  67.2902155  32.4788809 105.3845596  66.9098377  31.4542031
   3.4648739  26.1229467  49.7177744   3.6246716  26.1252022  50.6615400
   2.9073654  25.3588152  49.5710802  74.2758226  71.7334032  46.9285583
  74.8070955  72.4987411  46.7089176  74.4704866  71.5632057  47.8501701
  79.7157001  85.1186562  73.1127930  78.8326693  85.0871181  72.7447033
  80.2845097  85.2705860  72.3580742 101.1419964  78.9825344  46.9065571
 101.6607380  78.4539700  47.5129890 100.3631496  78.4536123  46.7337132
  93.6031723  65.3244734  37.8873062  93.9868641  64.8191118  38.6039805
  94.2638302  65.2981663  37.1951580  72.0769596  31.8640804  63.4256315
  71.9667339  32.7087855  62.9891014  71.5345192  31.9281125  64.2116928
  92.3920250  41.3381195  47.4705219  91.6916943  40.8518553  47.0354223
  93.1989479  40.9454823  47.1374369 105.8836174  57.9009914  51.9882488
 105.4929733  58.7746382  51.9690657 105.3579235  57.4175072  52.6255274
  88.6160564  62.5518084  59.1199398  88.6718082  62.0762348  58.2911110
  88.4514618  63.4595299  58.8646317  97.2143745  64.7737789  32.2408795
  96.9693661  65.6990862  32.2419405  96.7644501  64.4077444  31.4794230
 109.5407200  80.4241943  62.7633142 108.9294910  79.8125076  63.1737661
 108.9847469  81.0091686  62.2486019  90.1425362  51.6931391  45.4781008
  89.8359203  51.2227631  46.2533236  89.3675613  51.7680407  44.9212980
 105.1656437  94.4615269  39.8716402 105.0121689  94.5428658  40.8129501
 106.1174011  94.5050240  39.7795057 102.0025921  93.5823536  77.6159286
 102.4954891  94.3641663  77.8650236 101.9224548  93.6429310  76.6640139
  91.0993671  87.2023201  46.3247156  91.4903736  87.8615379  46.8981075
  90.5138016  86.7051315  46.8958044 108.2567310  53.8569593  46.3117743
 108.1367207  54.4929457  47.0170021 108.7247181  54.3400145  45.6306887
  91.5573025  88.7499428  50.5764246  90.6342506  88.6725235  50.8177233
  91.8706131  87.8464317  50.5349731  66.4366770  61.1825609  39.3334103
  66.5572023  60.6409264  38.5534501  67.3252296  61.4135695  39.6042299
  67.4886799  72.6877928  41.9553661  67.7453518  73.3390999  41.3025665
  66.5456724  72.8134203  42.0611286  22.0478497  10.8504785  35.8512664
  22.0884476   9.9332250  35.5806565  21.7495022  10.8190549  36.7602396
   5.3837620  62.7665424  23.7915564   5.1345955  63.3047390  24.5428824
   5.6481873  61.9296694  24.1735864  32.3364197  55.8029461  81.6813564
  32.8073059  55.2416039  82.2973061  31.5471398  56.0676575  82.1537971
  12.0795475  46.6094208  71.1418295  11.9368016  47.0767307  70.3187418
  12.4171959  47.2758961  71.7401981  90.3055668  83.4134197  88.0171680
  89.7634697  83.1834412  88.7718010  90.7745552  82.6065636  87.8043747
  92.8112984  75.1410818  71.4646196  93.1875515  74.2723322  71.6058540
  93.0168438  75.3456974  70.5524158 108.2986832  38.2406735  56.4525843
 108.9769363  38.9135623  56.3940763 108.6531734  37.4998951  55.9608316
 101.2591076  58.7648916  36.0252380 101.5433979  59.6683073  35.8865023
 102.0158482  58.3340025  36.4226103  93.4879494  62.8344107  34.6008968
  93.3417797  62.4077749  35.4452014  94.4230270  62.7181816  34.4325066
  22.1635662  66.9832087  66.9078779  22.3947083  67.8877354  66.6965771
  21.2141453  67.0005035  67.0283556  67.5784859  16.1800710  14.4416673
  68.4038910  15.9641782  14.8756464  66.9090828  16.0197584  15.1068170
   5.5219876  73.7514925  43.8896084   6.2576901  73.6160421  44.4867897
   5.8768498  74.3052149  43.1941271  88.4581280  72.8939962  52.7405357
  89.0000629  73.6748791  52.8534985  87.5600338  73.2250118  52.7313709
  11.0489117  89.6057606   9.8168045  10.3547226  89.4799423   9.1698933
  11.7193161  88.9663219   9.5761657  73.0524206  73.5418177  74.9073696
  73.0227852  73.2246971  75.8100271  72.1413946  73.7442923  74.6946096
  98.6204243  72.5656271  72.8011227  98.8385296  73.4948874  72.7294922
  99.4681549  72.1234035  72.8460979  88.9970684  53.3858204  63.6285973
  89.8916626  53.7251949  63.6012125  88.7614059  53.2573318  62.7097988
  70.3546143  90.8262539  37.2061563  71.2660885  91.0935974  37.3243785
  69.8632145  91.6476536  37.1980572 104.0351582  62.6308346  63.5036850
 103.6872196  62.6195717  62.6120281 104.3190098  61.7304039  63.6614132
  85.6385136 100.8043194   4.0243703  85.8857059  99.8882580   4.1507372
  84.6813488 100.7967281   4.0274662  22.4124943  40.8718014  77.0026588
  23.0915009  41.2030745  76.4149189  22.1149861  41.6437578  77.4841213
   6.2994229  74.3029261  56.7759275   6.7279087  74.2016840  57.6258564
   7.0129620  74.2496586  56.1401129 100.2889347  54.9779320  46.7396164
  99.5981026  54.5237875  46.2571859 100.9755802  54.3203354  46.8506145
  79.2007828  78.1205273  83.9616394  79.6200275  78.1269503  83.1011581
  79.8318672  77.6819706  84.5322800 108.5637188  92.6949406  51.3627911
 108.8932705  92.2247505  50.5969286 109.3035412  92.7121830  51.9699097
  95.6245136  70.7535505  37.9806709  95.4186726  69.9434757  37.5141573
  95.5383396  70.5254078  38.9062834  87.4902725  99.6252728  73.8777447
  88.2904148  99.2805290  74.2741680  87.6483154 100.5660057  73.7985277
 105.5371857  71.3731909  24.4023442 105.4167461  71.0053825  25.2778125
 105.0830936  70.7627153  23.8215232  84.2705345  72.9507923  68.2219696
  83.3452320  72.7330399  68.3343410  84.5434856  72.4478245  67.4546623
  18.8933979  90.3065491  61.7939425  18.8747155  89.3829727  62.0447254
  19.7781502  90.4451084  61.4559317 104.9710464  98.2739162  58.0042601
 104.6315861  97.9016209  58.8181400 105.4833221  97.5664902  57.6126432
   1.7216812  92.6870537  15.8551955   2.3618542  91.9882584  15.7206762
   1.9578873  93.0687809  16.7006087  89.8481274  54.9965668   9.2209798
  89.3587875  54.5082998   9.8830742  89.7195053  54.4995403   8.4131116
  94.7861004  65.0750875  60.6247997  94.0378952  64.5720720  60.3032303
  95.4778385  64.4246292  60.7457399  98.5042763  38.3599925  43.0279732
  98.4783459  39.2551517  42.6899672  99.3276405  38.0022931  42.6957750
  35.6750714  29.5817780  70.9089613  34.8473297  29.8358965  71.3170052
  35.4957615  28.7280059  70.5150652  53.5921860  83.3837414  31.3793707
  54.2225122  82.9572964  31.9599414  52.7467918  83.0096340  31.6275263
  18.1267296  82.9064083  29.0849447  17.2526871  82.5172710  29.1140199
  18.5374867  82.5153446  28.3138537  91.0714817  35.4572344  38.8224483
  91.2574673  36.1432362  38.1813192  90.9737682  35.9247780  39.6519589
  11.5346752  57.5732613  45.7410526  12.1011101  56.8212748  45.5681229
  10.6833969  57.3187923  45.3849602  11.5252529  74.4508696  62.1887493
  11.1960827  73.5520935  62.1799707  10.9659325  74.9046326  62.8192186
  13.8044010  90.9407616   7.8796244  14.6985470  90.6120491   7.9727918
  13.5059582  91.0811138   8.7782180  80.0045395  54.9271250  34.7961116
  80.5893040  54.6991777  35.5188298  80.5529213  54.8610687  34.0143514
 105.6881142  89.9123192  54.1603994 106.2958813  90.5718803  54.4948053
 105.9552956  89.1002369  54.5909357   1.4301621  75.1094866  53.9279127
   0.9686505  74.3111610  53.6711788   2.1223770  75.2067852  53.2739973
  75.7417774  85.9103394  48.2726240  75.6076670  86.8316841  48.4948349
  76.3825035  85.9262371  47.5616789  59.1229805  26.5653983  10.3250368
  58.8073429  27.4552194  10.4826124  58.9305672  26.4030353   9.4015367
  96.2382221  27.0473838  49.6794319  96.3209057  27.9208612  49.2967701
  95.4205513  26.7043734  49.3188906  84.4853497  89.7649384  67.7484035
  85.2055168  89.8767471  67.1278477  84.9116611  89.7179890  68.6041355
  13.0210530  63.2536268  32.0828557  12.8885304  64.1966581  31.9860816
  13.6960923  63.0393028  31.4389443  76.2021971  64.6541834  59.0568638
  76.1317921  64.6964073  60.0105381  76.7673111  65.3913212  58.8255501
  95.6483555  70.7683802  86.9177532  96.3868332  70.2663469  87.2624874
  94.8815155  70.3959608  87.3530483  14.8242890  86.2907219  66.6245794
  15.1535260  85.4352474  66.3488913  14.4236218  86.1292362  67.4787569
 107.2106552  57.0658112  59.1755295 107.4674606  56.2661791  59.6347380
 108.0368900  57.4480200  58.8797617 102.4609661  81.6902161  63.7726259
 102.1119213  80.8033180  63.6841726 103.4049225  81.5894318  63.6501217
   8.0826126  61.1726141  50.1739788   8.6259781  60.3880024  50.2472973
   7.4082409  60.9382153  49.5363951  78.2440042  91.8425083  70.6597996
  78.2641268  91.8248367  69.7029781  77.3484564  92.1024799  70.8757687
  71.5837812  78.9256048  62.0785952  71.6681910  79.6999168  61.5222263
  72.0956898  79.1350508  62.8598166  81.9529247  55.3460026  53.6804867
  82.5326157  55.8975887  54.2057991  81.3717270  54.9329662  54.3191147
  17.7996025  11.6750635  76.7997551  17.2337589  12.3140062  76.3663864
  18.6833057  12.0275320  76.6946173   1.8851982  61.2169647  67.1012831
   2.2903668  61.3729858  67.9543543   1.3852536  60.4090548  67.2177458
  99.5794964  47.4155521  38.7299085  98.6495495  47.4673653  38.9506936
  99.9542713  48.2235956  39.0804100  71.9788456  61.3220787  58.0054855
  71.9967651  61.6628361  58.8997984  71.0500813  61.3040590  57.7746058
  85.3476334  61.2903595  63.0108452  84.5423603  61.6956949  62.6891947
  85.4551983  61.6402769  63.8952732 104.8593235  65.6501245  67.6879740
 104.8715401  64.7362328  67.4035645 104.5209408  66.1314344  66.9329500
   7.4751602  91.6131210  47.0851135   6.6148220  91.5815544  47.5035143
   7.9522454  92.2872448  47.5690365   5.6734692  60.7571316  45.4641056
   4.9996888  60.0875044  45.3464174   6.4964615  60.3032875  45.2826357
  78.7682390  56.5010738  44.6343994  78.1309319  56.8617868  45.2508068
  78.3436489  56.5757704  43.7797737  12.7989540  73.2772329  17.5233133
  12.0474777  73.6094025  18.0144079  13.5596523  73.6535981  17.9659422
  82.0071507  54.7728014  61.1024284  81.1037731  55.0874376  61.1362171
  82.2294426  54.5844650  62.0142126   7.9777657  37.7207756  55.2794027
   7.2338806  37.1284986  55.1695299   8.7448441  37.1785498  55.0954962
  89.6705723  83.5095215  58.2581997  90.0763226  82.9639816  57.5844193
  88.8060665  83.7215328  57.9061842 103.9519691  89.4710636  66.5550995
 104.4502544  89.0663815  65.8450508 103.6643982  90.3110695  66.1974192
   8.1553589  63.5707664  33.3972621   8.6325299  64.3601799  33.6529231
   8.2247196  62.9924250  34.1568303   5.7030903  99.3611813  53.9774418
   4.9613034  99.4648457  53.3814287   5.7053219 100.1638412  54.4989347
  89.2247581  53.3489180  31.1226988  89.2789078  53.9347124  31.8777776
  90.1348495  53.1268644  30.9260750   1.6378342  47.8949022  30.2778339
   2.5301205  47.5982285  30.0988436   1.4007412  47.4603081  31.0970688
  78.6950159  89.0020943  50.6994486  78.5391760  88.2556915  51.2780905
  77.8717089  89.4902134  50.7111502   6.4692437  88.6795712  50.9340334
   5.7613884  89.3221569  50.9816837   6.9156777  88.7520218  51.7776442
  58.9170036   1.6846384  69.6476173  59.6415577   2.2307886  69.9525261
  58.5057697   2.1984685  68.9525652  52.4578333  94.9528313  87.7632427
  52.0260429  94.4392776  88.4459209  51.9118929  94.8266506  86.9871807
  73.0648422  82.7376652  47.4681759  73.1413317  82.0973682  46.7607880
  72.1235466  82.8074837  47.6272917 105.7502270  87.8938866  67.9772139
 105.1050568  88.4512901  67.5421429 105.5425262  87.9691410  68.9085770
  33.1316242   0.7409585  34.3067908  32.3994789   0.8922113  33.7090278
  33.0230389  -0.1656901  34.5938993  97.8018761  64.5024061  49.0778542
  96.8602085  64.5582342  48.9154530  97.8732681  64.3320656  50.0170660
   8.0763375  80.2144337  77.6862621   7.6799713  79.3485594  77.7831793
   8.7109886  80.2686596  78.4007549  13.9643240  43.4156036  65.6803799
  13.9135432  44.1168261  65.0308084  14.8819900  43.4071922  65.9524965
  26.1074005  45.3729916  82.7223301  25.9332310  46.1456060  83.2598877
  25.7314621  45.5858135  81.8681622  95.4514297  25.7370511   2.5412901
  96.2207207  25.2950612   2.1820409  95.1904758  25.1958887   3.2864626
   4.3920361  47.7006865  56.3051128   3.6749302  48.0984879  55.8114100
   4.2100655  47.9279947  57.2169542  83.6157227  67.4399233  67.2230625
  83.5099125  67.2859335  66.2842751  84.4113827  66.9615221  67.4560690
  87.0418724  22.1590845   5.0844438  87.1418175  21.2484113   4.8071058
  86.1791691  22.1902172   5.4979665  80.7298660  72.9797411  80.0911999
  79.9465275  72.5875425  80.4769325  80.6239414  73.9197493  80.2374935
   1.5729748  33.9166260  67.1223593   0.9801804  33.9093089  67.8738689
   2.0094525  33.0652928  67.1533012  76.8241104  17.8368179   2.0834787
  77.2460827  17.1755306   2.6319940  77.0564064  17.5893537   1.1884744
 101.3921261   9.0795255  40.5802822 101.1781597   9.1740322  39.6521044
 101.6673374   9.9548173  40.8529615  89.0852451  45.7416391  62.5455952
  88.8755035  46.6705942  62.4492264  88.2648563  45.3391838  62.8306007
   6.3055168  64.8382902  37.1067810   6.0159718  65.3642225  37.8522968
   6.3952385  65.4669809  36.3905883  77.5615883  73.4736395  35.2247977
  78.1637239  72.7366209  35.3271151  78.0126095  74.0702534  34.6274161
  77.7812767  67.5581121  77.2319269  77.1314240  67.6777124  77.9244709
  77.8298712  68.4105682  76.7992735  16.0169087   6.4539731  62.1746588
  16.3965092   6.9247735  61.4327097  16.7637501   6.0281957  62.5955772
   8.6580883  46.4574718  42.5650072   7.9419266  47.0117235  42.2549343
   8.9102970  46.8399096  43.4054661   0.3272568  41.1805773  53.5462284
  -0.5742515  41.4945936  53.4762192   0.4217945  40.9265900  54.4642591
  80.6132603  85.2148438  46.5601349  80.1333809  86.0259628  46.3927031
  80.2823067  84.6010399  45.9044361  18.7992035  39.8806047  45.3485155
  18.5979019  38.9561629  45.2032042  17.9470764  40.3163910  45.3343391
 102.9531860  72.8465605  72.4425125 102.1845818  72.2959709  72.5919962
 103.6870289  72.2323990  72.4199390 104.7347832  43.5271025  67.7174711
 105.2155495  42.7311182  67.4905443 105.2502155  44.2360830  67.3328781
   7.2868477  57.2044897  72.2530508   7.6884304  56.4108896  72.6068306
   7.0473515  56.9722366  71.3558722  17.5076233  73.7803650  55.7708740
  17.9320179  72.9232025  55.8081722  16.8243443  73.6806870  55.1079845
 106.4141178  82.5334740  37.6086092 107.1358204  82.9568863  38.0734658
 106.0784245  81.8848801  38.2273769  59.1851091  66.0528564  18.3029103
  59.8854160  65.7597589  18.8859141  59.1149521  66.9933176  18.4667468
 100.3726101  90.4678154  56.3761139  99.5145702  90.0438118  56.3610649
 100.9924221  89.7605419  56.1977196 106.3918877  61.8089199  54.5177794
 105.7387257  61.4647436  55.1269960 106.8226910  61.0308838  54.1637897
 102.3551655  77.0434332  48.3895206 102.7663231  76.1941910  48.2283688
 103.0184841  77.5444746  48.8640785 107.9132366  58.8368273  50.0249910
 108.1721115  59.7276878  50.2607441 107.3833179  58.5379124  50.7639503
   1.8753563  71.9875479  45.5505228   2.1499955  72.7987576  45.1230288
   2.6928650  71.5241337  45.7326269  78.7539959  66.1534071  54.6465302
  79.2122746  65.4359007  54.2090368  79.1089487  66.1576176  55.5354738
   6.9938980  25.9081626  58.0327082   6.3610302  25.5238318  57.4260712
   7.8212296  25.9021497  57.5513411 104.7993660  40.9765625  52.3752880
 104.0223217  41.3634014  51.9718266 105.5313015  41.3190937  51.8622780
  18.6026799  44.6640491  70.0850725  18.2378422  44.6712685  70.9699821
  19.3851219  45.2122641  70.1441145 108.2020378  70.5243397  58.8965368
 108.3172417  71.0391521  59.6952438 107.5125694  69.8967934  59.1134357
 101.9596958  58.7426424  71.6241026 101.8237019  59.5212507  71.0841846
 102.3897552  59.0708733  72.4137497  37.3641491  71.0269356  24.5623255
  37.2222781  71.3720417  23.6808443  36.5666747  70.5351114  24.7582102
  83.2290554  81.8877983  68.6155987  82.3059845  81.6426182  68.6793375
  83.2820988  82.4161148  67.8191662   7.5786530  46.4986992  60.6745863
   6.6466652  46.3351679  60.8190966   7.9928623  46.2769365  61.5085411
 104.9912643  67.5096798  65.4826498 104.3459511  67.8044510  64.8400640
 105.7242012  68.1170511  65.3819990  39.6685442   7.5459329  13.0930097
  39.2629513   7.0003692  12.4191530  39.1497263   7.3797504  13.8800581
 106.0243702  92.8858089  63.6324883 105.5868244  92.8740597  64.4837523
 106.9488621  92.7445412  63.8364077  84.8080540  93.5466766  12.7358294
  85.6779289  93.9215279  12.8737783  84.9031925  93.0018044  11.9546163
  14.7511612  25.4163671  56.8137741  14.2141568  26.1480594  57.1178818
  14.2345177  24.6376967  57.0210838  12.0925843  55.9163475  31.5627503
  12.2833859  56.7402315  31.1143732  12.4240433  56.0449791  32.4514699
   3.0982720  48.6605263  64.1577482   2.7169644  47.8052139  63.9595795
   3.7616192  48.7898874  63.4799099 107.6864815  87.9809856  61.3300133
 108.3669472  87.3375797  61.1319828 107.0408344  87.4962330  61.8442011
  89.6322823  84.4212151  39.2083597  90.5422688  84.7142792  39.1605544
  89.1331482  85.2180290  39.3877244   8.3983551  60.7839537  53.1494665
   8.5353791  60.7587719  52.2024584   8.1706368  61.6950941  53.3343792
  92.7818203  50.6440544  15.1372206  92.8764820  51.3528204  15.7735538
  92.7333355  51.0874414  14.2902923  91.0083866  43.9163589  63.7261152
  90.4313374  43.3907890  64.2802143  90.4171753  44.4985390  63.2488680
  23.3314358  54.4242430  28.4117818  23.6412655  53.7025261  27.8646445
  22.5342118  54.0887976  28.8218307  88.7565708  69.7965717  68.3217096
  89.0273285  69.9342918  67.4139929  89.5203495  69.4014788  68.7421608
  60.5138382  18.4433929   3.5313661  61.0284122  19.1837589   3.8527734
  60.0199398  18.1453983   4.2952306  80.4120636  62.8715658  76.6806459
  80.6819725  63.1437874  77.5577259  81.2304115  62.8019476  76.1890268
   2.4949013  85.5920696  34.3874788   2.0757901  86.3568020  34.7821546
   2.7867447  85.8958244  33.5279489  20.1639019  50.5868959  83.9190388
  20.6099640  50.8606195  83.1175804  19.3991791  50.0993109  83.6129475
 100.5340195  81.5846825  43.7753868 100.6021309  81.1702824  42.9152298
  99.6043587  81.5272713  43.9959717 104.3200111  77.6150560  30.1192784
 103.4234047  77.4535275  29.8256040 104.4102764  77.0888615  30.9137607
  13.3939682  74.9412012  76.0229874  14.0310608  75.1887226  76.6931152
  13.5936104  75.5113411  75.2804804  30.5418167   6.2039102  16.9875383
  30.3241119   6.2758363  16.0582030  30.8624897   7.0735944  17.2264147
 108.4519863  93.4938431  58.5109043 107.9004955  93.6404800  57.7424145
 108.3420563  94.2845726  59.0390062  64.5123053  69.3602514  33.6547661
  65.0603390  69.1232252  32.9066300  64.4143724  70.3101206  33.5885310
   9.0599095  93.4039974  84.3092537   8.3175694  93.1576824  83.7574482
   8.6725937  93.9230537  85.0140953  14.7951065  76.0982132  47.4675941
  14.6210419  76.5807819  48.2757187  15.1329361  76.7584181  46.8624258
   4.2654835  83.2123852  33.2287741   3.9044129  83.9507198  33.7194133
   4.9464165  82.8558064  33.7992167  53.1084881  16.4196599  35.6736302
  53.2383690  17.3173345  35.3677964  53.5562763  15.8780588  35.0237131
  24.9732910  49.8583078  46.3358212  24.7273098  49.0565062  45.8744717
  25.8079659  50.1140738  45.9432173  75.6837320  84.7287941  30.3648424
  75.5562067  83.8171005  30.1025891  76.6142607  84.7878265  30.5813217
  40.0188789   9.9010004  34.4136310  40.2931175   9.3646444  33.6697602
  39.6265373   9.2786230  35.0259542   1.6544758  93.9947796  23.0288529
   0.9461914  94.4900703  22.6174521   1.4455162  94.0089035  23.9628625
  41.6655502   3.5832990  74.4758940  41.4189682   3.6473192  73.5532188
  41.6614113   4.4880880  74.7882557  61.5386067   2.8459180  84.8246479
  61.9247971   2.1140493  85.3057480  61.4704857   3.5483373  85.4713345
   0.0029694  91.7641640  45.4765463  -0.4086746  92.5429344  45.8511019
   0.4167496  91.3297653  46.2224150   7.4395691  54.0428448  54.4385624
   7.0773255  53.3269930  53.9164829   7.5526558  53.6686516  55.3122997
  81.8674755  84.1999054  24.6247816  81.9594860  84.2554188  23.6736321
  82.7484798  83.9968681  24.9391866  83.2642269  82.1105385  38.6017776
  83.6157417  81.3522911  38.1351614  83.9167690  82.3006248  39.2757845
  63.5282087  68.0895853  69.2386436  63.3957624  68.8558578  68.6805058
  64.4638586  68.0990505  69.4403744  97.7840328  71.2217093  77.8257608
  98.1221581  71.5120411  78.6728811  98.2020092  70.3731680  77.6791143
  71.2875723   9.4778551  70.4848671  71.2920092   8.5784448  70.1573372
  71.6783808   9.4172491  71.3565493  96.3224983  57.9914331  45.1015139
  96.2761402  58.7162399  44.4780254  96.6274261  58.3940744  45.9146118
  18.6066113   0.6471742  62.8952026  18.2436905  -0.1915061  63.1800270
  18.5514126   1.2073434  63.6694050  49.6413956  16.7003454  64.9320841
  50.4032192  16.3155569  64.4987392  49.0047894  15.9868444  64.9755287
  84.8057483   1.9067777  55.9864569  84.5301842   1.3125528  56.6844559
  85.7298063   1.6998781  55.8466721   2.6618229  95.9647942  80.3422451
   3.3517968  96.4623833  79.9034071   2.2118889  96.6095066  80.8882618
  44.9459530  38.4474394  82.4887650  44.8377682  37.8180048  81.7757909
  44.2227627  39.0642187  82.3755489  77.3062944  57.7937651  51.5875673
  77.5227165  57.1389008  50.9238338  77.9537678  57.6568937  52.2791433
   8.4938465  71.1172581  68.1884336   8.9268242  71.2837791  69.0257072
   7.5683724  71.2929773  68.3582592  79.6693405  44.0688983  12.0915182
  80.5119404  43.6202613  12.1621759  79.0460476  43.4752361  12.5101907
  92.4562931  82.7571011  63.1801462  91.7741489  82.6995564  62.5111198
  92.2402954  82.0629025  63.8027716  41.9165167  55.6960384   2.1252210
  42.6367410  55.9345142   1.5415819  41.8770489  54.7407714   2.0790250
   7.3347603  71.9183874  62.8419256   8.2353627  72.1543646  63.0643129
   6.8015801  72.6063871  63.2401800  64.5452881  87.6425934  36.3154697
  65.4060030  87.2321796  36.3989115  64.4687700  87.8514481  35.3844714
  12.9559170  74.2595959  56.5434742  12.8067242  74.2182636  55.5988789
  12.9421078  73.3458710  56.8283463  12.3285137  41.6159582  32.8236747
  11.6289746  41.5460110  32.1740746  13.0449902  41.0949373  32.4611402
  11.8848476  14.3769086  52.4447632  11.8703899  13.5413564  51.9779778
  10.9624443  14.6147741  52.5386858   8.3663616   1.8530477  55.6362820
   8.8290081   1.2905992  55.0151253   8.0536900   2.5872434  55.1076746
  87.0855141  95.9467220  61.4701414  87.9762268  96.1013031  61.1555243
  86.8618107  95.0771999  61.1382961  91.6308308  53.9183283  63.2636738
  92.3844528  53.3691978  63.4798574  91.7915916  54.7394753  63.7285471
  32.7324734   8.8062585  54.7741604  33.4892902   8.3160890  54.4529343
  32.9605541   9.7238554  54.6250534  12.5450932  52.7802277  62.6222658
  12.4215351  53.7280178  62.6738310  12.1266590  52.5285769  61.7989683
   1.0686909  82.2235203  56.4963198   1.5029084  82.9104614  55.9905481
   1.2580525  81.4170265  56.0167933   9.1446434  42.8625965  82.0673656
   9.9507271  42.5741482  82.4954510   9.2186199  42.5342560  81.1712837
 104.3452549  63.3645439  79.0726328 105.1000214  63.8270330  79.4368601
 104.5432758  62.4380732  79.2092609  24.8413597  66.6768551  51.6553307
  25.2513634  66.0854530  52.2864962  24.6473919  67.4674511  52.1588802
   9.2823254  83.7293434  61.1362743   8.7504422  84.1553879  61.8084526
   8.7269532  83.0249214  60.8022308  42.8461609   6.4530672  39.0859747
  42.5261459   5.7526506  38.5174370  43.7254200   6.1725915  39.3398619
  12.6240574  80.0268555  44.1686010  13.1047760  80.6903076  44.6635485
  11.7622696  80.4162312  44.0204811  19.5876728  89.5400715  37.1417570
  19.1874634  90.3088188  36.7354512  18.8779675  88.8998795  37.1938062
  92.3864841  75.0208950  48.0066967  93.1445885  75.0604916  48.5897398
  92.4925995  74.1968012  47.5314713  83.4889412  53.8436365  57.4835634
  82.8272247  53.6253357  58.1398487  83.5246372  54.8001623  57.4883986
  76.3419151  68.2342625  39.4756079  75.4585457  68.4869242  39.2071939
  76.8473625  69.0458632  39.4302440   8.1534993  42.7531052  48.7540197
   8.2387768  42.1944284  47.9814720   7.8283440  43.5860968  48.4125042
 103.5692024  73.8757992  63.6847353 102.8955746  73.2054996  63.5700226
 103.6641884  73.9599991  64.6334839   4.0175949  91.1087132  40.6364489
   4.8806320  91.4937782  40.7885265   3.6738907  90.9373951  41.5132332
  47.6035961  45.2141658   2.4273069  48.3856853  45.1056758   1.8861921
  47.9350075  45.5370704   3.2652338  35.9467659  33.5869611  29.7088385
  36.3832626  34.1321481  29.0542603  35.0137196  33.6863054  29.5196342
  12.6257454  41.4624262  53.5661316  13.1090294  42.1997356  53.9390278
  11.7757260  41.4863825  54.0055895  84.6194553  96.2085724  55.0558805
  85.5113602  96.4529324  54.8088360  84.5823860  95.2626133  54.9143982
  87.8372097  93.2094669  88.0955505  87.2004700  92.5244617  87.8917027
  87.5446606  93.5665512  88.9340878  26.5716301  73.5783243  51.0680389
  27.3953186  73.2243299  51.4033937  26.5669476  74.4903421  51.3586140
  64.1466316  43.5129730   2.9817064  64.4785484  44.0261547   2.2450216
  64.7245964  42.7510539   3.0225618  20.8515679  73.3358335  26.9231081
  21.7527233  73.0985451  26.7043591  20.8771073  73.5365057  27.8586888
  17.7678906  86.6593742  47.9224825  17.6386200  87.5885677  48.1125259
  17.3422943  86.2047577  48.6494064  79.3669653  97.6310062  77.0948982
  79.9422503  96.8886089  77.2796249  78.6409664  97.5304222  77.7105618
  93.9638901  91.3280869  56.1400938  93.9912510  90.3796864  56.2666559
  94.6508789  91.6662884  56.7144632  41.1146221  37.7358449  55.4298735
  41.2201843  38.1327070  56.2945032  41.8636761  37.1461309  55.3439379
 108.9218521  94.6961403  42.2283792 109.4483280  95.3874207  42.6298714
 108.5256672  95.1112080  41.4622259  10.5755841  73.3853817  58.7661171
  11.4393174  73.7542677  58.5813761   9.9842964  73.8529491  58.1762123
  73.1334496  93.1656075  60.9879303  73.9240789  93.4089947  60.5063772
  72.6070929  92.6787663  60.3537655  66.2724956  43.1736175  19.5466001
  66.7932209  42.6485530  18.9388330  65.8754524  43.8506786  18.9987142
  88.7987328  87.5307083   4.6728593  89.1232395  87.7024841   3.7888780
  89.2000484  88.2122707   5.2119732  74.5762634  89.7048187  65.8576775
  74.0615511  89.5646095  66.6524410  74.1908836  89.1096687  65.2146292
  40.2916107   2.2243703  30.4214549  40.6890640   2.2406496  29.5508265
  40.2192841   1.2939561  30.6343699 107.5590706  63.0066490  73.8828278
 106.9444180  62.4203777  73.4415579 107.0175076  63.7329197  74.1918135
   3.3270489  70.2731466  82.4826336   3.3624302  69.4656515  81.9698620
   2.3923813  70.4334545  82.6127911  99.8165989  85.8130455  37.6921010
  99.0314579  85.4780388  38.1251931  99.8041821  86.7538643  37.8679752
   8.2311093  65.2199364  82.0885181   9.1407906  65.2257633  81.7907238
   8.1810318  65.9380150  82.7194595  84.1397190  78.7498045  59.4912004
  84.1897869  78.8659286  58.5423899  84.7424507  79.4040060  59.8447037
  95.8741283  78.0399704  33.8528156  96.4424038  78.4943581  34.4747639
  96.4752674  77.5426483  33.2982612  35.0498470  76.4054290  11.9329507
  34.3801483  76.4270297  12.6165254  34.9867376  75.5246345  11.5635641
  27.8600346  59.8743773  76.0497189  28.0721508  60.7869101  75.8534336
  28.6664997  59.5152521  76.4196825 107.6029396 100.5551910  37.0137405
 108.4036827 100.4643822  36.4972234 107.9070091 100.8155727  37.8832102
  15.9708344  86.5846825  41.7928600  15.6473099  86.9678211  40.9775257
  15.2066838  86.1522388  42.1740484  69.3355560  80.6565857  43.6746740
  69.8926067  80.9991360  42.9756784  69.9316549  80.5208874  44.4112062
  90.2517319  66.6779566  61.3225365  90.5406761  65.7667637  61.2727976
  89.3220329  66.6470671  61.0968637  69.0153583  51.6407672  14.6821172
  69.4212517  52.4663726  14.9464185  68.6887153  51.8067542  13.7978132
  98.9930820  79.2012787  50.9783363  99.4623661  78.4217691  51.2756109
  98.8764668  79.0665245  50.0378704 105.9790325  67.9839945  71.3807201
 106.9067097  67.9810095  71.1448288 105.8623505  67.1908903  71.9037867
  77.5724777  23.6521188   7.5356252  77.6500782  23.5194389   8.4804018
  77.5483784  22.7675334   7.1707113  86.9410419  87.8948212  46.1862612
  87.5681019  88.5008430  46.5809488  87.4007607  87.5348186  45.4277849
  73.7581524  34.6682445   8.2286604  74.6306785  34.2791263   8.2879026
  73.9172634  35.5735008   7.9613836  90.4997349 100.4195404  79.4719076
  90.4226685 101.2703514  79.0401554  89.6660042  99.9842644  79.2939758
  34.3700275  19.8374761  15.5382252  33.5444698  20.2014745  15.8579206
  34.8248158  19.5452989  16.3281798  23.1908283   2.5361646  74.5210266
  22.2464809   2.6415838  74.6364641  23.4883461   2.1333135  75.3367615
  11.4509522  90.9503269  87.2458076  12.2732483  90.7996655  87.7120304
  11.0727345  91.7205334  87.6700306   7.5698315 100.4441071  35.4383731
   7.1380745 100.6773853  36.2601972   8.4960972 100.6290340  35.5935383
 105.1935577  83.1214333  53.3808661 104.7072983  82.3384190  53.1226587
 105.3656578  83.5787678  52.5577879  11.4834915  57.1777821  68.6276722
  10.9954773  57.9773855  68.4309196  12.0459114  57.4156952  69.3647623
  90.2869320  50.9441900  42.4938774  89.8910809  50.5161667  41.7347145
  89.5988369  50.9360886  43.1592274  13.4444081  99.0735912   0.8264754
  13.7424313  98.9145947  -0.0691443  12.9723774  98.2763481   1.0669246
 107.9365540  62.5384092  65.7254791 107.9872513  62.4238729  66.6744471
 108.2312489  61.7011833  65.3670931   6.2565266  93.3491707  63.8367844
   6.4911019  93.9316654  63.1143522   5.3090226  93.2388306  63.7575006
  64.0786028  88.9127254  23.1839037  64.1881561  89.2678547  22.3017955
  64.5649576  89.5151520  23.7467360  89.9961281  75.4264212  79.8172522
  90.1537132  76.1610651  80.4102898  90.0636292  75.8068323  78.9414883
  75.8380938  71.5847540  53.6290216  75.0209427  72.0791245  53.5650206
  76.3588762  71.8854094  52.8842926  46.3761578  28.4171403  43.8765049
  47.2379932  28.7814153  44.0784359  45.8719311  28.5343946  44.6816397
  57.3617252  23.9647762  12.3073537  57.9294571  24.2894021  11.6084058
  56.4932617  24.3010131  12.0861013  17.6582848  90.5793953  54.9821281
  17.3628937  91.3411236  55.4808760  18.1118141  90.0336552  55.6245565
  99.1919518  43.8731098  36.0398412  98.6980247  44.3762493  36.6872334
  99.6003819  44.5355320  35.4825091 107.1749020  83.9641380  32.5608373
 107.5345898  83.2959557  31.9774032 106.7605877  83.4678555  33.2667255
  96.3445473  73.9104939  32.4164009  95.8997822  73.2263327  32.9167461
  96.9779396  74.2826128  33.0300498  98.3118820 102.2864532  76.9707012
  97.6758480 101.5711594  76.9767475  99.1433239 101.8658066  76.7516518
  12.5635777   7.5264467  69.1747046  11.7635975   7.0396150  69.3728685
  12.2745285   8.2416833  68.6080265   0.9906921  15.3011049  26.1566758
   0.8109484  14.5906366  25.5409217   1.8543253  15.6259740  25.9020638
 103.5424519  91.0399914  42.9728842 102.9130650  90.5916786  43.5377932
 103.4747696  90.5871773  42.1322823  36.6966877   7.6423467  66.3780069
  36.0850773   8.2159723  65.9163618  36.1372814   7.0172227  66.8389988
  91.1014652  58.9890432  40.6657410  90.4382992  58.8800621  41.3473320
  90.8420372  59.7866535  40.2044964   5.2363144  92.6872349  32.7216434
   5.4994999  91.8590450  32.3203087   4.8524319  92.4350929  33.5614586
  96.4791393  94.4137096  79.1677904  97.0639992  94.7572517  78.4923983
  95.9528065  95.1673126  79.4347811 102.3852634  64.2718601  33.5661983
 101.8373775  65.0567389  33.5716176 102.3166370  63.9257145  34.4559765
  45.6762886  30.1100755  39.7134423  45.7259846  29.3642831  40.3114033
  46.1125708  29.8078609  38.9168501  46.6955233  15.6934214  59.1384077
  47.2501469  16.4506245  58.9506054  46.5767622  15.2671278  58.2896423
  27.6071119  13.9011276  50.6186914  27.0526910  13.3345950  50.0821400
  27.0026803  14.3117201  51.2370014  65.3695774   2.7118316  64.4331884
  65.3756142   3.2983232  65.1896429  64.7990561   1.9891834  64.6949482
  29.7758842  26.8367720  59.0453768  29.7743630  26.7953467  60.0016785
  29.0754724  26.2413263  58.7787342  48.0569506  11.8832040  46.1584187
  48.3611250  12.7274287  45.8252573  48.3223629  11.2520421  45.4895258
  27.8035332  79.6204030   5.7195848  28.3582045  80.3707110   5.9331465
  27.3517491  79.8775970   4.9158579  60.8524656  26.9866061  48.2362461
  61.5205669  26.3238096  48.4110880  60.0295925  26.5710235  48.4939432
  23.2685210  72.2093307  26.5138531  23.1222464  71.3466989  26.9020534
  23.3882023  72.0347153  25.5803561  19.0134026  87.3388540   6.5395373
  19.9153115  87.4524962   6.8393278  19.0952755  86.8864404   5.6999832
  31.2079836  93.6635559  26.0274267  31.4040257  92.7312802  26.1204958
  30.5546690  93.8396781  26.7044735  57.1430969  34.4750357  46.1420727
  57.8640985  35.1045823  46.1497545  57.3903704  33.8358283  45.4738665
  34.6806026  20.5955935  32.6773334  34.2109561  21.2736201  32.1915936
  35.4338193  21.0497546  33.0550027 106.5029430   7.9757518  28.4022474
 106.8317509   8.6595941  28.9857507 106.0150719   7.3852634  28.9762950
  87.9994955  83.8486015  36.8744922  88.6162975  84.1137182  37.5567675
  87.1544673  84.1865086  37.1711016  64.7872448   4.6473759  69.1076517
  63.9804506   4.1930836  68.8649035  65.4877996   4.0761331  68.7927914
  80.1230907  26.9961333  85.7172394  80.4606628  26.3956428  86.3818264
  79.4534683  27.5060415  86.1731243  55.7525539  30.5395198  32.1619177
  55.0502014  30.0126147  32.5431085  56.3412952  29.8999548  31.7612028
  26.1628605  96.6733371  34.5688272  25.3503062  96.8238591  35.0518703
  26.0150744  95.8509307  34.1018820  56.9257021  11.6685867  20.4477715
  57.0765305  12.1998942  21.2295628  57.1343517  12.2517383  19.7179556
  77.8811709  40.1531931  74.6542148  77.1840588  39.5138391  74.8008256
  77.5164667  40.7621678  74.0120511  60.5160332  13.3725131  42.7608347
  61.0246325  13.8051546  43.4466791  60.9712076  12.5437546  42.6118135
   9.0721871 101.5530943  52.8440809   9.4602753 101.9227195  52.0509863
   8.4790541 100.8725839  52.5257540  31.7780472  93.4772645  39.6302915
  31.5600945  92.5864111  39.3562365  32.7349449  93.4956836  39.6459532
  53.4538126  31.3576531  36.6181111  52.7392626  31.8092060  36.1689448
  53.6475897  30.6032014  36.0617971  21.9049669  69.0167438  33.1180787
  22.3912550  69.8335539  33.2302332  22.4711300  68.4743988  32.5689435
  41.5146542   4.4021434   8.7525666  41.4922190   3.4933352   9.0522265
  40.9388161   4.8684338   9.3585479  13.8874985  72.0940267  30.4334784
  13.8198782  73.0019223  30.7290888  14.8111416  71.9838082  30.2077198
  58.6159779  88.9520299  32.5595999  58.2266880  88.0786025  32.6020908
  58.4364582  89.3362772  33.4177113   7.0750834  84.5528959  31.8057752
   7.6290823  85.0184154  32.4323654   7.3650194  83.6422800  31.8600798
  13.2006289  96.2105488  14.0199220  12.9234148  95.7477396  13.2292306
  12.7089096  95.7926350  14.7268808  44.0746737  26.9558978  44.7267389
  44.7625351  26.7981577  44.0800571  44.3831348  26.5131640  45.5173540
  35.4794216  21.0113239  27.7809453  34.6270776  20.8420300  28.1822968
  35.5019832  21.9603181  27.6579332 101.1805344  19.9587250  73.2589960
 101.8877125  19.9517882  73.9040375 101.5259457  20.4745889  72.5304317
  46.9381142   1.6455105  54.0512180  46.6631508   1.9603191  53.1901026
  47.8882551   1.5535714  53.9804554  24.4200064  88.9084434  48.9270496
  24.7844054  89.3038284  48.1351423  24.6058823  89.5431780  49.6189976
  12.4887205  76.5306531  32.3755002  12.2814203  77.3760544  31.9773126
  13.3358027  76.6670500  32.7998519  61.5941883  97.1598285  23.4427619
  61.8252541  97.6599514  24.2255259  60.6370426  97.1596157  23.4325504
  58.7663246  93.7318753  58.7784719  58.1195713  93.1148731  59.1208839
  58.5955597  94.5456248  59.2526865  59.6632624   9.1046906  10.6945467
  59.0832996   9.7580695  10.3034317  59.2221975   8.8468432  11.5039968
   6.1270691  93.7995582  55.2771378   6.6898848  93.8857918  56.0465717
   5.6351162  94.6201121  55.2470636  27.5409245  19.0671694  39.3696451
  28.4101367  19.2924333  39.0380454  27.6214194  18.1565523  39.6534181
  32.3603845  32.5115371  35.2884769  32.8149700  31.9179201  34.6908116
  32.7821207  32.3677611  36.1356473  56.0629988  25.6688523  40.4643440
  55.5692434  26.4090705  40.1114845  55.8740044  25.6803465  41.4026308
  15.4282595  99.3732440  17.2335160  15.5657984  99.8721485  18.0387545
  15.1407458  98.5105567  17.5324118  89.2739201   5.6792486  15.2047873
  89.8776627   6.4195979  15.1446450  89.8399544   4.9073815  15.1972294
  63.4497166   7.4624270  47.6097536  63.1657887   6.5744317  47.3927736
  62.8831291   7.7244544  48.3353949 103.0454578  95.2463918  57.7264357
 102.8289452  95.6542646  58.5648823 102.2337665  95.2920984  57.2211647
  38.2448698  76.0508262  54.1803789  37.4612881  76.0510551  53.6306238
  38.1265332  76.7983710  54.7663832  22.8573776  80.2127062  38.3985853
  23.2231356  79.3321692  38.4828806  22.4431015  80.3819930  39.2447233
  14.9514557  82.1384965  49.0886307  14.6513058  81.2873565  49.4075394
  14.1473080  82.6368486  48.9429522  43.5435749  92.7187871  56.8399572
  43.9396454  92.1119463  57.4653387  42.6237465  92.7649998  57.1007586
  69.8155737  12.7032840  16.4669061  69.1433525  12.0971560  16.1555183
  69.5197439  13.5631573  16.1680114  30.4421473   5.6608260  69.0120506
  29.8828936   6.4362288  69.0591383  29.8339796   4.9350172  68.8721752
  53.3472443   8.4162462  29.1091681  52.9308605   9.1178876  28.6086106
  52.6333380   7.8128207  29.3151951  77.8325272   8.7591779  37.6031137
  77.5459528   8.8217038  38.5142660  78.7377787   8.4528726  37.6572347
  15.9147431  92.2936200  31.0585189  16.7818714  92.2050845  30.6629395
  15.9505106  91.7419719  31.8399501  52.6864220  97.4078338  70.3173208
  53.6195160  97.1982478  70.2768898  52.5286556  97.6219236  71.2368393
  60.1945591  29.8543787  79.9347687  59.2692471  29.9932981  79.7329330
  60.5892229  30.7231569  79.8592758   3.1327821  88.0152606  13.4229565
   2.8250481  88.7070500  14.0085840   3.8971115  88.3925532  12.9874289
  73.6831951  17.6827800  85.8268642  74.0991497  18.2338214  85.1638699
  74.4123793  17.3292589  86.3363171  68.6028433  17.2289729  69.7883368
  68.1152201  16.7736757  70.4747438  67.9276514  17.6239562  69.2366695
  17.8742291  89.3947648  73.3249521  17.7746845  88.5726165  72.8449583
  18.7224270  89.3160402  73.7615252  33.7328078  98.2788389  39.2431760
  32.8751351  98.6754706  39.3958592  33.9414908  97.8355329  40.0654650
  41.0875416  21.5309525  37.9304838  41.9366407  21.9153762  38.1483912
  41.2616634  20.5927515  37.8550315  26.7373253  95.9631126  29.9292016
  26.7500616  96.5001767  29.1369700  25.9836413  95.3843652  29.8141313
  51.6874266  17.7792919  40.2773476  51.9716454  17.3099935  39.4929957
  51.3891840  18.6290896  39.9531150  30.5960417  29.6433282  33.3508062
  30.7983637  29.3066740  34.2237091  29.7234535  29.3002725  33.1581068
  62.6059055   5.9844279  13.5334253  63.2804823   6.5826112  13.8549185
  61.9968271   5.8941483  14.2662990  52.6549864   3.2238305  10.2731681
  53.5245514   3.5439870  10.0331962  52.8159857   2.3675770  10.6695771
  54.7506523   6.1882740  58.8920498  55.2819109   5.6361198  58.3183575
  54.5282793   6.9482702  58.3542871  39.6122528  88.5237299  29.4111776
  40.1349283  87.7225029  29.3782949  40.1253344  89.1647612  28.9191818
  80.6401157   1.9906346  53.7440300  80.8096409   2.4087855  52.8998518
  81.3129902   1.3135973  53.8153791  87.2638035  10.6950021  39.3477154
  87.9102230  11.0716093  38.7506080  87.6766396  10.7445967  40.2098846
  67.7817202  22.4661255  34.4648099  68.1048870  23.3539319  34.6184063
  67.2890663  22.2502375  35.2565908  71.6341591  42.2637415  26.6501665
  72.5847054  42.1689272  26.5893054  71.5048695  43.0088806  27.2369218
  52.3330975  17.9403174  46.3758087  52.8861237  17.2113383  46.6568518
  52.6681137  18.1753671  45.5105066  83.0420589   1.7211300  61.0429525
  82.7590942   2.4943011  61.5311813  83.9940071   1.7101677  61.1424637
  24.3991019  99.3562006  46.6427326  24.9359728  99.3468442  47.4351454
  24.8933579  98.8322031  46.0123634  30.9397198 102.3162779  34.0645576
  31.4938856 101.8431641  33.4438348  30.0707651 102.3096298  33.6631870
 102.7044668 100.9669999  10.4719520 102.5042834 101.8011358  10.8966589
 102.4263015 101.0876640   9.5640445  41.5694786  85.4482137  52.5619364
  41.4796377  86.3929926  52.4372196  42.4158884  85.2342319  52.1694708
  78.0760765   3.0830520  43.3711052  77.9775667   3.0093819  44.3203688
  79.0222597   3.0707464  43.2268238  47.9109430   9.7998154  48.0658293
  47.7396154  10.6048191  47.5771093  48.8198328   9.8835093  48.3541727
  11.4160706  96.5363961  44.4911098  11.7437721  96.6249811  45.3860950
  11.8834330  97.2100412  43.9971447  78.3003521   6.3021797  70.5149651
  79.1239882   6.3757050  70.0328302  78.1230211   7.1909177  70.8230734
   9.1058279  85.4347526  55.8968258   9.0460325  84.6690105  56.4680481
   9.5920588  86.0795247  56.4107084  49.1811848  30.0531673  49.3915558
  48.5799599  30.5628848  48.8484621  49.8038816  30.6971860  49.7287798
  42.0806217  -0.1855562  50.9977198  42.3587036  -0.0348095  51.9011450
  41.2589884   0.2986749  50.9160566  28.9493513   3.5475573  72.6166248
  28.1165814   3.2724798  72.2331429  28.7009525   4.0666947  73.3814955
  87.2776127  12.9626715  67.2431755  86.7378521  12.4165618  66.6716385
  87.8145123  13.4800327  66.6429186  16.9810129  72.4898874  61.4112663
  16.2593867  72.2434222  61.9898319  16.6255928  72.3881065  60.5283451
  67.1751000 100.5478414  46.5481138  66.5313889 101.1632740  46.1972380
  67.4634434 100.0432765  45.7875204  59.6995306   3.8849291  42.1891880
  59.9785137   2.9811704  42.3362303  60.4055262   4.2723629  41.6718006
  73.3632803  19.2339134  25.2013922  72.6169777  19.7306955  24.8660231
  73.3651733  19.4103718  26.1421847  64.2442894  12.5211990  26.2143302
  64.6719122  11.6651821  26.2389565  63.3093929  12.3207068  26.1695814
  65.5049849  39.4652033  33.1915402  66.1340666  39.8577142  32.5862122
  64.7748518  40.0838280  33.2126260  52.3777103  25.4864049  15.5648744
  53.1127262  24.8816204  15.4638052  51.7673683  25.2398491  14.8699439
  50.0299311  16.0818696  87.7892303  50.5651951  16.8737638  87.8404999
  50.1166201  15.6778705  88.6526585  59.3579149  -0.1759649  48.7892342
  58.6409664  -0.5551177  49.2976189  59.3204737   0.7604887  48.9838743
  57.9148079 102.4545787  68.9530420  58.5177590 102.1457933  68.2767773
  57.0445896 102.2604943  68.6047888  61.9119835  35.3365827  28.5059023
  61.6030264  35.8958030  29.2186785  62.7315378  35.7414174  28.2218814
  24.4433953  96.8579762  53.5979271  23.5214497  96.7339026  53.8234472
  24.7153069  97.6186304  54.1114473   6.0550787  54.6817058  88.6574725
   6.9292643  55.0671118  88.7166359   5.5406954  55.3278589  88.1736049
  54.6579409  28.7473750  49.3186903  53.8323593  29.2276144  49.2552948
  54.6070290  28.2935095  50.1599073  45.4965782   7.2194219  49.5168972
  45.6017637   6.9461733  50.4282141  44.7610092   7.8316969  49.5338106
  60.5382633  14.9159968  11.3154411  60.1925802  15.1247454  10.4475939
  61.4658594  15.1469171  11.2656748  23.1073786  83.7669515  43.1042385
  22.2073723  83.8400446  43.4218454  23.6311604  84.2257403  43.7610483
  83.3145164  35.9817150   7.7208765  84.0907167  35.6029668   8.1335409
  83.4384750  35.8217254   6.7853124  16.1817003  65.9636580  34.3032551
  15.7667996  65.2325784  33.8454223  16.3579632  65.6270348  35.1818037
  40.8058096  71.6003357  43.9862394  40.5554081  72.4888956  44.2392063
  39.9742056  71.1393105  43.8761473  49.4170523   3.2159385  36.2789464
  48.7101126   3.8595584  36.3260627  49.6316385   3.1636089  35.3475761
  25.9371067  65.0878631  48.3566570  25.0701309  65.3055870  48.0143356
  25.7807184  64.3621146  48.9608622  13.1127392  37.6536345  13.8784647
  13.0777298  37.4485683  14.8127842  13.1854569  38.6074877  13.8451684
   8.5298684  72.4377211  81.6004668   7.8311017  73.0906590  81.6408979
   8.2869008  71.8719681  80.8675777  29.2939427  82.3153266  72.0222680
  28.4929612  82.7542528  72.3086374  29.4009545  81.5881976  72.6355069
  23.8080908  98.9431950  86.5026188  24.6808554  99.0976786  86.1411667
  23.7890555  99.4565143  87.3103142  76.5983534   7.3239231  28.7521434
  76.6656733   6.4721721  29.1836762  76.4082003   7.1147335  27.8376412
  36.2349583  68.0320465  33.2557750  36.3101698  67.0873939  33.1208444
  35.2922608  68.1957923  33.2830334  49.5586920  20.0273085  43.7484694
  50.1215982  19.3708098  44.1588068  48.6881638  19.8540819  44.1068125
  66.4975739  24.4306111  59.0314817  66.0561991  23.7119722  59.4842243
  67.3180199  24.5474935  59.5104742  65.0289488  15.7429051  57.7895689
  65.0385857  14.8079872  57.9946756  65.5012465  16.1520672  58.5146570
  64.9411583  28.9369226  65.1187992  65.7056046  28.9971542  65.6917048
  65.0985384  29.5928526  64.4396639  85.6252766  21.6590452  84.3732166
  85.7534599  21.7579508  83.4298134  86.0965347  20.8562541  84.5960999
  78.9205694   4.9376816  54.5713234  78.4272289   4.8516005  53.7555790
  78.8166904   4.0904990  55.0045919  72.9064981  73.3554038  83.1485383
  72.1713701  73.5165747  83.7400143  72.7026216  73.8696917  82.3674016
  93.0126381  31.2360716  40.9428549  92.3959732  31.4705515  40.2493334
  93.5629559  30.5561209  40.5542088  54.0741777  16.1285436  48.1624508
  53.3963537  16.5421510  48.6969805  53.5915899  15.5651033  47.5575733
  32.4923683  79.3409859  28.2550550  33.2679058  79.1190897  27.7397537
  32.7469612  79.1619383  29.1602373  75.3182125   9.5479709  75.0299978
  75.6443501   9.6886188  74.1411352  74.7407722   8.7881696  74.9558258
  73.2003641  25.0834370  69.9441719  72.5258446  25.7534719  69.8332262
  72.7178764  24.2567682  69.9514866  70.5697966  16.5249479  64.1790533
  70.6618023  16.5672231  65.1308870  69.6455669  16.7158306  64.0190554
  34.4995476  97.4364566  41.9450808  35.0937821  96.7529499  41.6353512
  35.0441433  97.9931437  42.5016308  66.1933327  15.3320193  47.6631451
  65.7234573  14.8181498  48.3199453  65.8229113  16.2115288  47.7372026
  54.1330338  23.7211990  16.2301958  54.6380854  23.0826616  15.7267821
  53.4281921  23.2096314  16.6273475  95.1004505   5.6133044  71.8148756
  95.1498699   4.6625835  71.9144726  94.7086430   5.9197515  72.6326847
  65.3108765  88.5509919  53.3779716  64.5694519  87.9658209  53.5331774
  65.5216385  88.4301745  52.4521112  79.6234751  25.4555297  39.4818711
  79.5050716  24.8479819  38.7517357  79.8924875  24.9006438  40.2139664
  58.2492208   9.5711935  27.9365206  57.7067566   9.3650389  28.6977434
  58.9208364  10.1636446  28.2744050  69.4048882  24.8588872  13.8183224
  68.4634733  24.7084594  13.9039850  69.6087551  25.4966402  14.5023835
  41.7449427  16.4561522  43.3433294  42.3654461  16.6155279  42.6321316
  41.9327927  15.5621767  43.6292505  74.5848846   9.5932943  52.7085161
  74.7757101   8.9178270  52.0577002  73.8854408   9.2190081  53.2441616
  57.6470639  87.3403155  52.8895426  57.3383595  88.2380842  53.0117846
  57.0705582  86.9783389  52.2166061  32.8016640  86.8975722  67.5673532
  32.4655701  86.2598704  68.1971264  32.7257849  87.7398585  68.0157137
  59.7428490 101.3448068  67.3369122  59.9570538 100.6097261  67.9113722
  60.5924965 101.6895336  67.0621252  94.8776054  21.3544583  26.5929842
  95.5115223  21.7586470  27.1854520  95.4088879  20.8227658  26.0003018
  85.6582737  38.2796597   7.1673208  84.7554779  38.4941339   6.9323659
  86.1818123  38.6194253   6.4415836  64.3294884  76.6296278  40.6749058
  64.4392658  75.8092367  40.1941347  63.6415554  76.4426886  41.3136864
  39.9013734   4.8909962  29.4972157  40.5250645   4.8311061  28.7735748
  39.7946095   3.9881551  29.7967339  73.6310577   6.6975230  31.7534709
  74.0397787   7.3293328  31.1618686  73.5040998   5.9147829  31.2173462
  52.7920914  45.7116890  27.2159076  53.1702042  45.4745388  28.0626798
  52.0397806  45.1280785  27.1176481  39.3293215 100.1504340   3.9241517
  39.3893219  99.2551934   4.2575812  38.4845854 100.4685401   4.2426801
  83.0084229  35.1934886  88.4563160  83.5626125  35.3113294  89.2278194
  83.6026287  34.8623252  87.7829075 100.9989929  17.3985338   8.2416594
 101.8442822  17.8267860   8.1062770 100.3628063  18.1135178   8.2246178
  49.6753311  13.2340550  49.1077137  48.8644028  13.2351947  48.5991621
  49.7721958  12.3283923  49.4020319  74.5628834  26.2615013  21.4219308
  75.2409697  25.6243038  21.1974001  74.8425007  26.6224051  22.2632360
  69.9239254   4.0680230  38.9660048  70.0825214   3.5851979  38.1548572
  68.9879084   3.9562407  39.1321683  38.1113030 101.3404772  42.7980614
  37.9038788 102.0286822  42.1659374  38.7225462 100.7669692  42.3357821
  89.9729824  30.3727603  37.7376151  90.0271702  31.3030553  37.9563570
  89.8891830  29.9323463  38.5833359  62.4623085  90.7055675  48.4903097
  62.3367573  89.9505698  49.0651608  61.7766358  91.3209330  48.7499571
  97.0681477   2.0402017  45.7849360  96.2160969   2.3270580  46.1134958
  97.1335888   2.4325600  44.9143028  26.0294175  26.0719919  64.1120100
  26.9633365  26.0451841  64.3201160  25.6276894  25.4666209  64.7352028
  71.5639973  59.7404385  19.8261857  70.9130907  59.6209049  20.5177546
  72.0462465  60.5259466  20.0843430  66.1631536  13.6129892  55.1583433
  67.0349979  13.4546983  55.5203772  65.5740929  13.1168032  55.7267094
  82.4443722  33.4914899  45.4473543  81.8064213  34.1546178  45.7109976
  82.0445919  32.6599002  45.7020235  66.7232847  31.8540716  11.4749706
  66.0080910  32.4883533  11.5241492  67.3247290  32.2210312  10.8270240
  59.3137836  14.5125186  53.8546515  59.4352198  13.9861667  54.6448660
  58.6310577  14.0545297  53.3643818  51.1959743  33.2415748  38.9247775
  51.9091368  33.8370895  39.1549826  50.5129433  33.8112998  38.5710621
  65.7371664  21.4642692  32.6271677  65.0147104  21.7517018  33.1854463
  66.5244436  21.6549349  33.1371427  18.6013294  94.8664646  26.8650508
  17.9915930  95.1352083  27.5522423  19.1211678  95.6500601  26.6862321
  42.4178410  19.0709484  37.9270220  42.6144743  18.8420534  37.0186305
  43.2688189  19.0645003  38.3652306  79.5514822  19.1099048  15.6529474
  79.7722292  19.9005747  16.1452305  79.6750927  18.3959830  16.2784624
  48.5007906  21.7333221  16.1625314  48.3213711  22.6047397  15.8094454
  47.6608562  21.4405656  16.5161312  62.7614927   6.8777156  29.6748114
  62.9371929   6.1119074  29.1280961  62.4004078   7.5259387  29.0701175
  80.2994061  33.0549598  55.4621172  80.6689548  33.8268089  55.0332737
  79.7474909  32.6503372  54.7928619  60.4481125  35.1164317  65.4001331
  60.1118279  35.9206915  65.7954931  61.1121416  35.4145980  64.7785234
  98.2442760   2.8817528  63.0338955  98.4602451   3.6784750  62.5493145
  97.5618553   3.1525376  63.6480665  60.9754848  25.1774764  52.0761919
  61.7263174  25.6893897  52.3768997  60.3941679  25.8206224  51.6704035
  30.8522536 100.5983423  42.0103979  30.6635739 100.3813570  41.0974121
  31.8060566 100.5511010  42.0756245  60.2371645  16.6938663  68.5575008
  59.9989223  15.8616662  68.9660549  60.5963898  16.4480019  67.7050114
  45.3648424  25.3996730  47.5666046  45.1484108  26.1364412  48.1380558
  45.4504585  24.6534467  48.1599426  56.1767721   2.4794367  38.7485218
  56.8319273   1.7832601  38.7969470  55.8608532   2.5739551  39.6471262
  89.0851402  50.6935930  47.7771521  89.7642040  50.0192261  47.7953339
  89.4806576  51.4438009  48.2209778 102.6406097   9.9918938  67.3301029
 101.9676495  10.6559575  67.4797153 103.4305477  10.4929078  67.1271038
 103.6569595   4.6241608  62.0757580 103.5438347   4.8140341  63.0070925
 103.0395126   3.9143240  61.8993139  10.0629555  20.3982592  23.1421161
   9.8772942  19.4648123  23.0399418  11.0038506  20.4379749  23.3134532
 104.4822121  36.3098526   1.0974661 105.1831532  36.8841219   1.4058901
 104.7563744  35.4325247   1.3646007  53.6351824  19.2306650  76.6675091
  54.0909910  18.8063264  75.9405899  54.1774082  19.0415192  77.4333048
  81.4128399  12.2807646  11.0617280  80.6336784  11.7317009  10.9741938
  81.4012337  12.8387582  10.2840781  25.4004742  92.0695399  43.2361889
  25.7891680  92.2951280  44.0813255  25.9640957  92.4972831  42.5915241
  42.2655344   4.3879545  23.2341170  42.8646135   4.0001339  22.5962019
  41.4081192   4.0280408  23.0071068  81.1380291  26.2516141  46.1678123
  81.0560894  27.0254517  45.6104136  81.4183712  25.5563354  45.5726433
  59.5777702  13.1183064  56.2416315  60.4598665  12.9176438  56.5544701
  59.1942167  13.6554945  56.9348478  89.0290165   9.8706162  27.6463342
  89.5223618   9.7598714  26.8335748  89.1715622   9.0546989  28.1261158
  27.1773125  91.4131617  56.4865685  28.1184555  91.4574169  56.6554499
  26.9307829  92.3117363  56.2674379  79.6876192  31.2893891  48.9120817
  78.8347149  30.9245110  48.6761808  79.8312902  30.9994578  49.8129320
  96.9991684  16.6828299  73.4779310  97.3492908  16.9723761  74.3204355
  96.5516567  17.4528420  73.1271553  -0.0999893  21.3028669  34.5962954
  -0.2684082  22.1440673  35.0208497   0.7498394  21.0271072  34.9397969
  80.4913998   5.8992064  68.6104488  80.3436279   6.3470364  67.7774763
  80.3256321   4.9761489  68.4188271  68.0859327  26.7719841  48.2635880
  67.5842190  27.5758100  48.1280327  68.0744743  26.3359308  47.4115562
  60.6856441  18.1647599  50.0226927  60.6551695  19.0646410  49.6978569
  59.7670650  17.9158390  50.1250648  52.2129726  32.4442029  10.2065384
  52.2262907  32.5842953  11.1533380  52.9986477  31.9267654  10.0299060
  93.0097389  27.0510292  20.5376220  93.2785702  26.3804865  21.1655831
  93.3743286  27.8648567  20.8854699  52.2943592  14.3775594  49.8506069
  52.3342276  14.4090784  48.8947582  51.5143490  13.8563418  50.0407410
  65.2537228 103.0723909  70.2695990  64.6184136 102.7339354  69.6386766
  65.4180313 102.3382012  70.8613729  60.3328323  21.3303518  61.5664148
  61.0524654  21.8779922  61.2526464  59.5583582  21.8882513  61.4945459
  54.1441154  16.5317309  20.6311107  53.6529779  17.1852481  20.1331830
  54.2072582  15.7797241  20.0422716  27.1034266 102.1434066  41.9844007
  27.8556086 102.5816481  41.5864086  26.9975163 101.3397436  41.4753437
  98.0350780  38.3204532  17.5607979  97.9014778  38.6263561  18.4579098
  97.1524525  38.2545114  17.1962917  66.6737938  36.3724804  40.7686901
  65.7971001  35.9947515  40.8390808  66.7808199  36.5571475  39.8355913
  37.4762273  16.0796106  41.7346191  37.1681929  16.9556403  41.5024185
  37.6780581  16.1364305  42.6685715  81.1799431  51.9134045  11.4114225
  82.1244717  52.0625830  11.4542842  80.8865643  51.9728947  12.3206103
  84.7025967  -0.0196996  10.4921567  84.1664886   0.7521751  10.6739116
  84.1046524  -0.6305968  10.0614548  78.3769369  62.6579905   6.4354199
  77.8997326  63.4086990   6.0819447  78.0090523  62.5304794   7.3098528
  84.2424011  19.1457808  45.8678579  84.4495678  19.3426514  46.7814016
  83.2951546  19.2683709  45.8052874 104.6695518  10.5457592  85.4778576
 104.2766380  10.9081113  86.2719345 104.6971416  11.2820339  84.8668194
  22.6467873 103.1166514  23.0334187  22.6242472 102.2057195  22.7402854
  21.8910481 103.5234155  22.6095867 100.1690006  48.1540060  33.3284926
 101.0533810  48.3375454  33.6453605 100.2952290  47.8461313  32.4309921
  58.1873369  24.5166683   3.0057463  57.9914236  23.6100984   2.7691418
  58.7054491  24.8489141   2.2726682  64.3167639   3.4417120  47.7708435
  63.7684488   4.2236248  47.8356361  63.9007568   2.9132268  47.0897579
  56.0113811  19.7484374  19.3762171  56.8093109  20.2743387  19.3217754
  55.3000832  20.3819036  19.2813075  79.6210527  32.4826956  72.9925346
  79.7825336  31.7722106  72.3717546  79.8588037  33.2771373  72.5144434
  33.9257002  12.3789322  51.6856432  33.4989429  13.2298803  51.7856359
  34.0423870  12.2790515  50.7408476  74.2577505  12.0643723  32.0914459
  74.7062540  11.8873012  32.9183245  74.9586201  12.0928788  31.4401388
  39.6950461  92.6295482  45.5676365  40.6444193  92.6671659  45.6838512
  39.5486809  91.8404042  45.0460434  75.7486010  21.9405842  69.3914604
  75.4792929  22.8560114  69.3159962  75.0435543  21.5235448  69.8866510
  56.5776539   2.2104903  61.4250517  57.4023771   2.1792330  60.9401941
  56.2124062   1.3304818  61.3333511  79.9044514  30.9989643  41.8469667
  79.0844774  31.2123418  42.2923279  80.5877495  31.2851381  42.4531364
  78.3078289  27.8248906  39.2570853  79.0703011  28.3533978  39.4927764
  78.6055708  26.9199681  39.3503332  68.9982367  10.7123113  29.6948576
  69.0014791  11.1967063  30.5204368  69.9017906  10.4149413  29.5880914
  88.3748436  32.9930472  27.9629374  88.5684872  32.0895290  28.2127142
  88.0893040  33.4102821  28.7757158  90.0360203  29.6703625  40.3802633
  90.4742146  28.9513779  40.8355427  89.9741268  30.3660059  41.0348463
  16.8857838  97.1912741  44.0994740  17.6825787  97.2535883  43.5727215
  16.9902111  96.3800447  44.5967007  63.3773565  32.3281932  35.3785014
  62.5359774  32.1210909  34.9717808  64.0249205  31.8922997  34.8245287
  93.1480422  92.1837245  65.7250500  92.9773369  92.0057022  66.6499329
  92.3002877  92.0626568  65.2973986  42.9947042  16.4099300  15.6799078
  43.6903000  15.7549572  15.7381606  42.2056532  15.9045780  15.4843354
  21.8088890 101.6775939  61.4078760  21.3184954 101.1096575  62.0021772
  21.1405350 102.2194221  60.9884024  79.2838192  18.2936704  18.4521234
  78.4636831  17.8168023  18.5794353  79.8929310  17.8923261  19.0719104
  19.6037853  16.5197504   5.4788172  20.1978612  16.3062191   6.1983371
  18.7287867  16.3835454   5.8422148   2.0646216 100.5209737  37.4008799
   1.4084746 100.8203649  36.7715406   1.5998222 100.4946486  38.2372403
  83.2292366  11.3808560  20.2031493  83.2250214  12.3364067  20.2591610
  84.1116333  11.1623895  19.9033594  35.4327894  95.1835357  50.3619432
  34.9237658  95.1209765  51.1701584  36.3074948  94.8807286  50.6057405
 103.5966269  67.7422591  88.5652992 104.0670935  68.4366282  88.1040590
 103.4357468  67.0767554  87.8963787  85.7368279  17.3113787  52.5208426
  85.5109692  17.5181556  53.4277439  86.5731239  16.8496907  52.5815916
  91.7560577  31.1450577  51.9105434  91.6527939  30.2716160  52.2882557
  91.9481468  31.7088604  52.6598501  63.7951447  81.4730679  37.0612192
  62.9649903  81.4739477  37.5377393  64.0773941  82.3876654  37.0701289
  68.0024052  25.9818029  45.8507442  68.8216877  26.2680078  45.4468966
  67.3197937  26.3050914  45.2627373  86.5736294  26.2059879  17.8414845
  87.5112343  26.1310291  18.0189848  86.4811802  25.9410357  16.9263422
  62.9802990  28.1962490  35.8702803  63.0512094  28.8547707  36.5613317
  63.0077791  28.6992621  35.0563693  60.6486511  21.0966158  49.5180988
  59.7611904  21.3245130  49.7950554  61.0724306  21.9392347  49.3548870
  76.3738728  40.2190876  28.0101800  75.9756899  40.1153564  28.8744283
  75.8050156  40.8417988  27.5575614  63.7320805  28.4199834  27.6383805
  64.0217733  28.1950068  26.7542434  63.1701994  29.1856241  27.5187564
  70.7160950  13.6316502  53.1957150  70.9708929  13.0565405  52.4742174
  71.3358688  13.4266305  53.8957691  96.1315441  31.5794945  41.8037796
  96.7853165  32.0528483  41.2892485  95.4777241  32.2417283  42.0278263
  69.7858000  23.3009934  47.9995728  69.2495680  23.7973619  48.6178827
  69.1898060  22.6445413  47.6388931  79.9647474  32.0933938  35.6300044
  80.2487373  31.6859746  36.4482903  79.2555666  31.5321350  35.3165078
  50.2970409  18.7441552  32.9259133  49.6968222  18.4673452  33.6182618
  51.0470390  19.1130328  33.3924603  53.1418610  27.2822094  40.8202744
  53.0882788  26.3874483  41.1560774  52.3662186  27.7175951  41.1739016
  94.2918491  22.7052975  33.5896611  94.6725368  23.4652305  34.0298939
  93.3972836  22.6564860  33.9267278  32.2540880  89.7464620  64.6441269
  32.1681858  90.3167295  63.8801575  32.9628779  90.1365255  65.1556873
  52.1091127   3.9737424  66.0633421  52.5494862   4.3382576  65.2955961
  51.9614601   3.0545449  65.8408451  81.4581108   3.5732770  51.4143658
  81.6404152   4.2201373  50.7327747  80.5110264   3.4410885  51.3719559
  33.2752538  12.9793096  40.0755453  33.9946747  13.3555853  40.5825758
  32.5161767  13.5168815  40.3014851  41.0893370  95.8540427   0.7871092
  41.9551255  96.0526847   0.4304728  41.0979630  96.2371289   1.6642651
  38.2632042  90.8244943  61.8202066  37.7023913  91.1505698  61.1163664
  38.5257603  91.6097318  62.3005199  77.8399181  15.6624424  72.9247618
  76.9033718  15.7576692  73.0980873  78.2656908  16.0576558  73.6855173
  96.6146755  30.5092549  60.8031082  96.8682384  31.2001467  61.4151621
  95.7115555  30.2987170  61.0403252  59.5510721  11.6361165  25.7403827
  58.8380623  11.5614200  26.3746262  59.3473530  12.4282813  25.2431846
  77.5799608  53.9226580  12.0526707  78.3042860  53.7211323  12.6450992
  77.2662878  53.0675554  11.7583215  80.2038288   9.8540682  39.1209364
  80.6513691   9.3294191  38.4570932  79.7398520  10.5264592  38.6220908
  76.5953922  14.8884702  42.0195770  76.6709518  13.9567840  42.2256899
  77.4954319  15.1720345  41.8590975  71.5958452  12.9762363  71.1344242
  70.9276342  12.2922719  71.0905886  71.3198948  13.6226678  70.4846478
  46.5385033  97.0460891  56.0840464  46.0964657  97.3873835  56.8614483
  46.2100674  97.5862055  55.3652668  82.3359489   8.8120580  28.2626247
  82.7898979   9.4293088  27.6888967  82.4353409   7.9645097  27.8290176
  91.6080093  39.7739506   7.8310150  90.8829975  39.3149042   8.2551157
  91.3824844  40.7009888   7.9083151  62.4751949  27.1739531  21.4171386
  61.7546797  26.8586802  20.8715224  62.2998047  26.8043470  22.2825074
  50.9088421  33.0544758  43.9130402  50.5241108  33.8988209  44.1481829
  50.8002901  32.5153112  44.6964645  30.4776026  86.0434996  26.8475461
  31.0539700  85.4536246  26.3616633  30.1282479  85.5055629  27.5580430
  31.2428309  86.8880080  51.7037630  31.1688496  85.9971141  52.0459175
  30.3499151  87.1223115  51.4507151  75.7119036   0.5915589  48.7182331
  74.9066019   0.8734548  49.1521168  75.7427502  -0.3543351  48.8616419
  45.0579071  59.2078924   1.0365127  44.7073984  59.1607904   1.9259831
  44.8851967  60.1073456   0.7583342  83.2364845  25.0207043  51.9810009
  84.1608238  25.1885247  52.1644831  83.0594444  25.5088687  51.1768961
  90.7620239  29.3071413  13.2954884  90.6473160  28.7365198  14.0553987
  90.2474213  28.8912296  12.6038027  19.1385723  93.4858440  47.5310993
  19.3380953  92.6447701  47.1199846  19.9091936  93.6805349  48.0644560
  68.2441330  29.0915537  26.5569782  67.3568153  29.4328928  26.6682768
  68.4261370  28.6267281  27.3737049  14.1197922  59.6234044  79.5626186
  13.5909321  60.3122326  79.1600506  14.6869042  60.0863769  80.1792745
  37.6947331  47.8106594  25.5258656  37.6772046  48.1381035  26.4251447
  37.4593687  48.5683823  24.9904346  31.8590450  34.7796059  38.9264679
  31.5234041  34.9004531  38.0382276  32.8100801  34.7522807  38.8214874
  99.4872475  22.6668811  52.7824593  98.8381577  23.2366776  53.1950712
  98.9685631  22.0102692  52.3176336  79.5994520  21.9232535  38.5705566
  79.4318342  22.4071145  37.7618432  78.8788176  21.2958622  38.6280298
  71.9671917  34.9686718  79.7932673  72.3120785  34.0804672  79.7017479
  72.7279472  35.5353642  79.6654224  63.5753632  18.8204432  41.5500259
  62.9376793  19.1801560  40.9334278  63.3896685  17.8815663  41.5661621
  96.6469669  36.5920234  21.8874121  96.0741711  36.8597198  21.1687517
  96.4629650  35.6601882  22.0059776  93.0203247   4.0801960  52.1630955
  92.6206303   3.9641613  53.0250740  92.7150249   3.3289981  51.6544390
  20.0305867  33.1607342  23.3021164  19.5482564  33.9835525  23.2211375
  20.9368801  33.4283686  23.4545469  58.1768036  10.2805603  72.1569872
  57.9675102  11.0597551  72.6720476  58.6257172   9.7004265  72.7719307
  43.9930058  15.6738997  45.3672647  43.5519505  15.9113586  46.1829376
  43.3325720  15.1920974  44.8693466  94.2484856  25.2495241  38.8816810
  94.3546009  26.1019301  39.3040252  94.0460777  25.4576874  37.9695773
 107.4097824  54.6097422  18.1531835 108.2394981  54.7394037  17.6938426
 107.1352863  53.7263775  17.9071021  39.8944759  38.4145427  39.8546386
  38.9476609  38.5226703  39.9445391  40.1046896  38.8302445  39.0184379
  76.6670513  26.7419314  30.2586675  76.8338156  27.6461005  29.9923968
  75.9955883  26.4330864  29.6504045   7.5000893  15.9492004  34.4820881
   7.5077664  15.9179008  35.4387450   8.3320557  16.3613141  34.2492437
  77.2406340  18.0290544  25.1954889  77.6007128  17.3237848  25.7332349
  77.2936535  18.8057876  25.7523608  42.1878124 101.6555568  53.0085754
  41.8544651 102.4598574  53.4063292  41.8758751 100.9568322  53.5836458
  72.4591064  36.0113263  28.1856823  72.6070404  36.0648656  27.2414994
  73.2998276  36.2535310  28.5739541  45.7095051   7.5398535  71.7246819
  45.6430674   6.6501039  71.3780355  46.6462135   7.7357513  71.7037010
  65.1095724  25.5664468  72.1269035  66.0003090  25.9153605  72.1598053
  64.6635437  26.1093283  71.4768505  56.3227987  52.0909023  26.3796830
  56.2340498  52.4313688  25.4894924  56.8105936  51.2738609  26.2761045
  26.9775963  15.4844546  22.3426294  26.2976527  14.9336529  21.9546556
  27.5819182  15.6623137  21.6219401  82.6333714   4.1718629  31.1078215
  83.0262756   4.6607682  31.8308902  81.9337082   4.7405487  30.7864261
  45.5341221  97.0832192  41.5465784  44.9471833  97.4959736  42.1801233
  45.6908013  97.7605235  40.8885956 100.8129787  17.6609921  74.9091530
 100.7380009  18.3692634  74.2696524 100.5779839  18.0661511  75.7439327
 102.7142525  23.0118585  14.1932750 103.2509136  22.4448252  14.7470772
 103.1481552  23.8642073  14.2315340  34.9757172 102.6559057  52.9277992
  34.3498780 103.1671670  52.4147987  35.8191611 102.8146766  52.5039673
  37.7744366  98.8472705  37.6175976  36.9607950  99.1581815  37.2206664
  38.3691860  99.5952039  37.5618958  61.9309044   8.9255995  35.6334877
  61.3994551   9.7007769  35.4521227  61.4203024   8.1971204  35.2801704
  95.1711845  18.0063438  25.5852747  94.5250893  17.5255966  25.0679040
  95.4571819  18.7167943  25.0110817  62.6887274  31.0406160  27.1853709
  62.7339792  31.7087579  27.8693080  61.9100475  31.2696123  26.6779733
  21.3811852  76.9979083  50.6615114  20.9952570  76.1741292  50.3637218
  21.3054348  77.5839221  49.9084663  36.3563372  93.1647449  48.3216619
  36.0882212  92.3341297  48.7146282  36.0926510  93.8277464  48.9597321
  80.3566360  16.9185150  10.8015728  80.9466267  17.6708651  10.7556152
  80.7624054  16.3347340  11.4424944  85.7591152  39.0619969  63.0864668
  86.2812996  38.7999129  63.8446665  86.3586521  38.9843297  62.3443317
  46.2960100  11.7765641  27.4218178  46.0072374  11.8401587  26.5114355
  45.9274197  10.9497261  27.7328038  79.3273830  19.2915273  46.9145250
  79.9916124  19.7015357  47.4685335  79.2512703  18.3991718  47.2523737
  44.8897148  96.3278930  36.4509654  45.8303620  96.3928228  36.2860775
  44.5609356  97.2166263  36.3157248  24.4748379  90.4268884  51.2958384
  23.8781096  90.0747990  51.9562721  24.0193821  91.1923062  50.9452343
  85.1465034   3.9787504  65.9981155  85.9143066   3.9831996  66.5696907
  84.4032955   4.0682086  66.5946674  58.7049294   2.2463159  53.9376068
  58.7507343   1.7056142  53.1490803  58.5075378   3.1253165  53.6141491
 108.3967972   5.0988197  61.5316010 108.0678463   5.0514334  62.4292564
 107.6540756   5.4212320  61.0210562  55.4951239  11.8913150  53.1382179
  54.9790239  11.8829978  53.9443207  54.8871613  11.5935695  52.4614954
  13.8412335  95.1757487  85.3297512  14.7948220  95.0930842  85.3218807
  13.5706761  94.9118765  84.4503178  28.8518288  53.3575366  85.7980858
  29.6905091  53.1828214  86.2250726  28.3516839  52.5495109  85.9129043
  93.7817097  29.4204712  38.5342407  93.8739395  28.7091160  39.1680360
  92.8757572  29.3560171  38.2320142  74.5434475  11.4119422  44.5783424
  74.8582745  12.3158491  44.5701694  74.7174215  11.0897195  43.6939573
  84.9367634  68.5902556  88.2952524  84.6948544  67.8049060  87.8043983
  85.5903307  68.2869955  88.9254219  84.5258617  23.3814859  10.7027423
  83.6634731  23.6610532  10.3955781  85.1437187  23.8859606  10.1735950
 103.9459038  26.7899156  46.1155939 103.3253956  27.2427845  45.5445290
 104.4809723  27.4894977  46.4904404  78.1708050   2.3367119   1.8421899
  78.4718609   2.6308253   0.9824853  78.3118200   3.0898404   2.4158998
  67.2665024  25.8852863  41.0517216  67.0882130  26.2405610  40.1809597
  68.1665707  25.5637527  40.9995317  91.4448357  22.8968906  34.3682671
  90.9453869  23.7121797  34.4139457  90.7798386  22.2125196  34.2931271
  83.7115288  26.8354106  44.2262173  82.9517555  26.3197756  44.4965839
  83.6302757  27.6552629  44.7135258  45.8314896  10.2583718  67.9084873
  46.5199280  10.8359373  67.5787735  45.4331827  10.7472789  68.6285877
  93.8597870  36.1988878  75.0251627  93.8913059  36.0468173  75.9696770
  94.6928024  35.8577323  74.6996975  64.6081114  19.0439355  44.2874861
  65.3922462  19.0623069  44.8361444  64.9348688  18.8490081  43.4091568
  66.1878395  16.7437243  60.0181770  65.7517576  17.5882268  60.1316690
  65.9853745  16.2600756  60.8190012  71.7645693  22.6003480  69.7995996
  70.8153534  22.5235987  69.7030210  72.1122074  22.3732162  68.9371681
  22.6842499  23.2756877  28.2698560  22.5104403  23.9534664  27.6166821
  21.8175435  23.0172896  28.5833526  83.1044006   1.3243839  51.2649775
  82.5599480   2.1106243  51.3052654  83.0415344   0.9443541  52.1412516
  85.9589767  63.5996771  43.0215263  86.6304207  64.1376257  42.6019812
  85.3364277  63.4043264  42.3211670  87.9623795  28.2379389  49.2932177
  88.3320999  28.3334541  50.1709509  88.6390495  27.7772307  48.7971306
 100.6712532  29.8808074  33.5728717 101.1249542  29.0532899  33.4128952
 100.4635239  29.8633552  34.5070982  89.6020603  22.8751135  50.8023405
  90.4204750  23.3705592  50.7711554  89.2464828  23.0545354  51.6727448
  26.8585907  47.9820299  24.1966701  27.2653519  48.6794615  24.7108388
  26.2721955  48.4395313  23.5941172  88.1224155  24.5402002  69.2967415
  88.3540535  24.8498726  70.1723385  88.4387779  23.6371708  69.2705870
   4.6874367  55.5453062  36.8133688   5.4739891  55.5320787  36.2680387
   4.5730244  54.6363640  37.0908022  97.4850273  26.9685245  57.3216105
  97.2283649  27.8901124  57.3538399  96.9112396  26.5831232  56.6594362
  83.9289761  51.4541292  59.6019363  84.6228218  51.2628698  58.9708805
  84.3916321  51.6234875  60.4226017  82.3674870  37.5180030  28.5988402
  81.9978714  38.0123067  29.3304658  81.8843174  36.6916990  28.5996556
  81.0524178  47.1557379  60.5477953  81.8409538  47.3258638  61.0630560
  81.1548138  46.2538433  60.2439308  85.1366425  31.2773061  39.1429377
  84.6168232  32.0333529  38.8701463  85.8596802  31.2451720  38.5165095
  88.4024239  16.8387771  52.8042603  89.3281364  16.9582760  52.5921106
  88.4000301  16.5695250  53.7228060  18.8805233  37.6295781  84.5691776
  19.6918904  37.9888725  84.2102528  18.9605938  37.7552581  85.5147076
  97.8571320  15.7184029  54.7726297  98.5819244  15.3369451  55.2680063
  97.1132660  15.6872797  55.3742313  74.9074602  13.8673747  55.6690693
  75.6300211  13.8771856  55.0413418  74.2789602  14.4997311  55.3207254
  91.6730976  38.2813668  42.9402065  92.4785328  38.7896562  43.0358982
  91.0867023  38.6334658  43.6098289  43.3303022  31.2952995  38.8628244
  44.0872145  30.7764602  39.1350842  42.6057434  30.6700993  38.8436818
  81.5254593  77.5699329  19.9869549  81.1757088  77.8730488  19.1490829
  81.8004990  76.6684914  19.8196566  62.8566122  30.2845120  44.3713856
  62.7113104  29.3391800  44.4097137  63.4391403  30.4071021  43.6218071
   1.8551575  46.7808962  52.7202892   1.4103829  46.1109734  53.2395220
   2.5505387  46.3074827  52.2636127  75.3564072  23.0925274  46.5619278
  74.4911480  23.1147718  46.1531925  75.6510830  22.1887422  46.4498329
  92.7561855  47.9867077  13.7421954  92.6354885  48.8916731  14.0297806
  93.5307884  47.6857281  14.2172062  79.0508652  34.1352248  14.9350893
  79.3421173  34.2129159  15.8435869  79.1420507  35.0186110  14.5779598
  72.5554848  54.6612310  34.7472000  72.0732784  55.1185703  35.4360723
  73.0475235  53.9826012  35.2093601  82.2238255  12.9284286  25.6951213
  82.4993896  13.8286710  25.5223203  82.5173283  12.7556348  26.5896797
  88.6286926  53.8444328  19.6654809  88.9562035  54.4754601  20.3063989
  89.4128609  53.3967781  19.3478096 104.4905472  62.3005724  68.9493799
 104.5896149  62.2898579  67.9973793 105.1725578  61.7092228  69.2678261
 107.0635509  23.4337568  43.6902761 106.5501404  24.1360903  43.2910633
 107.9658413  23.7522769  43.6645412  91.7759132  47.1493053  60.1404762
  91.2824440  46.3598728  60.3630066  92.3781872  46.8689775  59.4513321
  23.4303795  17.4656713  26.4187288  23.4758698  18.3622587  26.7508340
  24.3301331  17.2575676  26.1669874  40.7511832  89.6844172  32.0344353
  40.0606133  90.1380228  31.5511298  41.1418272  90.3618573  32.5864387
 103.5909748  16.9318032   4.0286908 103.4206009  16.3166356   4.7419736
 102.8972340  16.7587328   3.3922994  14.8311840  21.0599971  36.4253092
  15.0083100  20.1656318  36.1338162  15.6442486  21.5341401  36.2510991
 107.8219032  47.9865170  53.8511753 108.2749176  48.8228273  53.9588499
 106.8925953  48.2081699  53.9101982  51.9983181  12.4759952  16.7413957
  51.9221577  12.7178851  15.8184011  51.9597420  13.3090345  17.2112806
  86.8834019  31.6803408  37.0652246  86.3208008  32.1922445  36.4841318
  87.7636623  31.7925477  36.7063642  67.4764204  21.3320374  69.0272856
  68.1189871  21.9806957  69.3146563  66.8709087  21.8240881  68.4727859
  11.2601067  97.9765134  49.7692776  10.6935908  98.6615064  50.1243496
  11.9490792  98.4521564  49.3052578  62.3498678  41.4601278  21.0931945
  62.3055220  42.4152708  21.0488200  61.7897654  41.2285137  21.8340540
  79.0383720  11.8740749  47.4689817  79.2247534  11.4779401  48.3201981
  79.0518284  12.8166127  47.6353359  96.8837372  93.7933644  88.5635951
  97.6586214  94.2411049  88.9031774  97.2037617  92.9328498  88.2928103
  81.2308216  64.6628952  37.9486156  80.3992367  64.4717455  37.5148344
  81.3241196  63.9708042  38.6032462   4.3053280  33.4205413  30.8847022
   4.4043385  34.3502212  30.6794691   3.3659302  33.3056593  31.0281587
   8.0768524  30.9421515  41.5589523   8.7006413  31.2892485  40.9212685
   7.8455006  31.6955209  42.1022224  72.4279165  23.8511181  65.3609610
  72.1298838  24.7590995  65.4155016  72.6426792  23.7246299  64.4367790
  81.9452763  24.0726280  41.6704321  82.3111916  24.8018575  41.1698627
  82.6856136  23.4819436  41.8090963  58.6836720  22.4148154  52.0416403
  58.6136580  23.2829142  52.4387932  58.5986328  22.5739312  51.1015940
  74.1176510   2.6594958  88.6089516  73.9285040   2.5731549  89.5433044
  73.2699203   2.5396898  88.1809044 100.3315544  12.9997563  73.5770369
 100.1351547  13.9136088  73.3708096  99.7838211  12.8026354  74.3368769
  12.7281987  16.5776849  22.1797466  13.0587136  15.8569431  21.6435385
  13.5050141  16.9271696  22.6163769  90.0611019  29.0704060  29.9489570
  90.9613609  28.9325356  29.6544051  89.6335983  29.5109153  29.2145014
  17.5584055 100.1517498  57.2746611  17.1608139  99.4319134  56.7847729
  16.8153883 100.6316411  57.6405334  10.0971272  83.0241164  82.8816848
  10.4400589  82.4240025  83.5438709  10.7667878  83.0342253  82.1978186
  50.6695057 100.2960595  26.1556172  50.2769829 101.1690124  26.1658669
  50.6231190 100.0233307  25.2392673   0.3632199  32.0704579  48.9839554
   0.4415070  31.6315627  49.8309946   1.2672745  32.2131109  48.7036514
  80.3977871  35.5118918  42.4095535  79.7284079  35.5735707  43.0909872
  80.1189995  36.1391950  41.7424774  24.1507031  97.6524829  62.5880623
  23.2659460  97.4248861  62.8737736  24.2146994  97.2978347  61.7012930
  11.2056576  29.9915242   8.5520524  10.5495583  29.6844220   9.1777098
  12.0397030  29.8907852   9.0108031 100.3088379  21.7508030  30.9481525
 101.0160255  21.4042902  31.4922500  99.5187664  21.3275695  31.2841511
 102.4005222  36.7649865  35.2917528 102.5222301  37.7067304  35.1711917
 103.2599163  36.3866806  35.1058602  93.2220554  38.4635472  47.6116514
  93.7632561  39.1040969  47.1500969  93.8164997  38.0583835  48.2430935
  65.1224089  38.7089777   9.0853107  65.5184174  39.1504741   9.8366374
  65.6204987  37.8965831   8.9950186  89.4442081  18.8902307  19.0429223
  89.7706413  18.1266391  18.5668993  89.3619156  19.5713830  18.3754706
  97.1018124  40.0150585   5.3071398  97.0595169  40.9276533   5.5928242
  96.4916039  39.9659133   4.5713016  37.7012523  13.4669868   1.8293626
  37.1282944  14.1369430   2.2023351  37.4201711  13.3920852   0.9174307
 108.4844494  25.9397173  36.5536332 109.0059566  25.3364778  36.0241389
 107.6301098  25.9596610  36.1224341 102.4039364  34.5777249  51.5900135
 101.7934322  34.5499039  52.3267221 102.8677750  35.4084754  51.6945696
  72.6805353  20.2924275  61.8588495  73.5548496  20.5121279  62.1806240
  72.8059387  20.1152325  60.9265947  93.1890869  58.9596033  53.2115555
  92.8440952  58.2560539  52.6618004  94.0602970  59.1358137  52.8563452
  99.0074825  42.0406580  45.6689596  99.9079609  41.7166138  45.6502008
  98.6146259  41.6124296  46.4295626  75.0710154  21.0277629  44.1538525
  74.7752333  20.5098557  44.9025297  74.3971682  21.6989255  44.0456963
  84.3137836  44.6686077  18.9603353  83.6457062  44.2630577  18.4076703
  83.9536476  44.6203899  19.8458898  11.8158089  35.7724500  49.0183401
  11.8960224  34.8803449  49.3558979  11.4148938  35.6669354  48.1555748
   8.0071389   4.2080340  73.5973501   8.0937611   3.7381986  72.7679062
   8.9074551   4.4035676  73.8570261   4.7106777  15.4546714  18.2932460
   5.2605473  15.0671721  17.6122749   3.9865242  15.8588052  17.8152132
 100.6747341  66.4761305  42.5265312 100.1597023  65.6904125  42.7098751
 100.4690170  67.0710325  43.2476425  83.4599876  11.2613952  23.7608409
  83.1294823  12.0816970  24.1270423  83.4043789  10.6366932  24.4839501
  92.9472542  62.4157429  12.7834773  92.6365948  61.6298628  12.3339069
  92.3598385  63.1102180  12.4853504   7.5441300   1.4541164  82.0662117
   7.8924691   2.0418830  81.3958168   8.0195748   0.6336323  81.9358730
  86.5472126  37.5586867  53.0015087  87.4103737  37.6610470  53.4023905
  86.3708878  38.4061289  52.5928688  15.2238712  66.9025829  10.4122503
  14.8086128  66.3891449   9.7193010  15.1332150  67.8109541  10.1243742
  71.3613939  13.0024934  28.7847829  71.8078470  12.9218209  27.9419327
  70.4906940  13.3331704  28.5639334  72.7440500   4.2139629  31.1545300
  71.7955685   4.1545895  31.0401201  73.0270672   3.3084905  31.2820220
  23.1675770  63.9890882  83.0028872  23.6143639  63.2794007  83.4643601
  23.8357403  64.3565448  82.4242924   9.7966420  25.5896330  35.3549600
   9.3287026  24.8135710  35.6631684   9.1758000  26.3078833  35.4770565
 100.7927895  54.3233776   2.2615324 101.2555408  53.7863207   2.9046953
  99.8875523  54.3421507   2.5720701 107.8102970  18.6527109  15.4622853
 107.6156902  17.9782796  14.8115146 107.9498577  19.4481647  14.9484682
  72.4713182  26.7532206  16.5081215  73.2334518  27.1210694  16.0608280
  72.6597309  26.8716478  17.4390936  77.5947428  21.6957378  49.6626043
  78.1020546  20.8938456  49.7884369  78.1164265  22.3779941  50.0852251
  86.4328671   2.3885792  46.2802124  86.1935043   3.0851778  46.8915129
  86.0031605   1.6069704  46.6275883  14.8952900   9.5042902  34.3745351
  15.8014427   9.7827017  34.2418361  14.9178444   8.5539579  34.2623210
 102.2151375  42.9014874  26.4502025 101.5889072  42.7564287  25.7409573
 102.9631901  42.3479033  26.2261772  77.3003578  37.8579426  19.0681565
  77.0785236  38.5362506  19.7060597  77.7083492  37.1650338  19.5874381
   0.4627262  42.4003315  45.1388597   0.1945244  41.7023611  45.7364750
  -0.3535331  42.6994276  44.7382402 101.1966515  22.9334736  18.1428158
 101.8268013  23.1336474  17.4506617 100.4156971  23.4346771  17.9080009
  81.7350674  36.7182040  48.8761091  81.7869377  37.3284721  49.6117115
  81.6515446  35.8567715  49.2849922   5.1902233  28.6006522  32.8636026
   4.6182572  28.4986639  32.1028948   4.9477612  27.8791523  33.4440184
  84.8050976  19.5554936  51.0660648  84.7108078  19.9478543  51.9340515
  85.2664852  18.7319052  51.2243462  86.5076065   3.0176201  27.6585007
  86.2570763   2.9584536  26.7365646  85.6847095   2.9178977  28.1371832
  87.6114845  28.5504198  73.1954288  87.0332336  27.8165555  72.9873466
  87.4569035  29.1834283  72.4942589   8.1182133  36.5771055  43.4580517
   8.6386811  37.2286606  42.9881334   8.2305275  36.8016982  44.3817234
  69.6437740  63.7994909  52.5221014  70.4465103  64.2487478  52.7867031
  69.0461349  64.5042086  52.2722292  75.8174372  78.3266401  29.9219942
  76.3354635  78.9912653  30.3760338  75.6522703  78.7014484  29.0568542
  69.4479609  33.3306050  73.7086964  69.5120907  33.7006736  72.8282595
  68.7728024  32.6559544  73.6363459  98.6139393  45.9768152  34.0231419
  99.3656826  46.5327358  33.8180327  98.6680412  45.2586317  33.3926558
   6.2407528  31.1867285   1.7549463   6.3439976  30.2817845   1.4605823
   5.3642117  31.2153101   2.1384798  92.0237446  24.4451714  51.6718006
  92.4934864  24.1292310  50.8999443  91.9131279  25.3833532  51.5174818
  92.3086643  62.9341984  48.9441776  91.6524982  62.2426939  48.8575411
  91.8833160  63.7140322  48.5875702  93.4646416  53.8108015  42.0632172
  93.4619904  54.7678757  42.0785999  94.3718815  53.5707474  42.2516966
  79.0628958  44.7638988  19.9391103  79.3012333  44.2345524  20.7001781
  78.3967590  44.2464685  19.4865990  82.1595001  84.9479198  17.3952651
  81.4508629  84.4028378  17.7372396  82.4759865  84.4744015  16.6259420
  11.9294392  18.9925480  26.3506818  12.2417294  19.1177499  25.4545641
  12.6099240  18.4659982  26.7701006  85.3936291  62.5232267   1.7636584
  84.6615696  62.1035147   1.3118020  84.9861908  63.0055809   2.4830779
   7.9537140  28.5991406  33.1509209   8.3005654  28.2028246  32.3516321
   7.0031582  28.5470080  33.0511093 102.3259830  45.6746054  21.9192624
 103.1183147  45.3446627  21.4954853 101.7991447  46.0261202  21.2015510
 108.8074207  51.2498522  46.6429186 108.1960869  51.0513306  47.3522139
 108.7399006  52.1975756  46.5267563  43.8747727  24.8102927  19.9911368
  44.3093048  25.3026509  19.2947161  43.9065110  25.3914881  20.7510304
  68.0724192   5.9632301  47.0614576  68.9214611   6.3302183  47.3077822
  67.4520350   6.6780925  47.2040462  22.4511563  50.1181936  66.3385344
  23.1360375  50.7834530  66.4063501  22.2715222  50.0541353  65.4005241
  98.7435055  66.6565323  47.8960848  99.5495796  66.4819002  47.4103069
  98.4074974  65.7892466  48.1222534  11.6950356  53.3116293  74.1149998
  11.1414086  54.0326929  73.8153362  12.3262440  53.7235308  74.7050428
  88.1429005  48.4412479  62.2923565  88.7544918  49.0807438  61.9273424
  87.6188087  48.1566191  61.5436602   1.6991936  65.2274132  37.3762631
   1.3204037  65.3160381  36.5016770   1.1010205  65.7104731  37.9464197
   6.5094410  79.4960499  36.4365053   5.5968701  79.4696140  36.7241693
   6.5733658  80.2967548  35.9159136  54.4355440  62.0493603  21.2470627
  53.7467861  61.7770433  20.6406879  54.9133110  61.2437057  21.4442849
  72.8095388  63.5690928  11.3746810  72.2542048  63.2516432  10.6626010
  72.3814344  63.2543182  12.1708417  82.5115776  33.2246733  58.8814926
  82.6714706  33.3887601  57.9521132  81.7289734  33.7372613  59.0840292
 100.9619808  35.9426618  33.1234908 101.5681553  36.4323735  33.6793327
 100.1207638  36.0017562  33.5763669 102.6916577  12.0921681  87.1210720
 102.7821804  12.7662251  86.4475133 101.8971230  12.3341772  87.5968553
  79.5182467  37.4228358  53.5119438  78.7494087  37.2524190  52.9678154
  79.1618299  37.5906658  54.3843174  97.6099491  85.6745529  49.7162771
  98.4349918  85.6400108  50.2003622  97.1412468  86.4184856  50.0945950
  57.9745270 100.8546611  53.5596991  58.8974167 100.6358363  53.4307528
  57.9332234 101.8025915  53.4333897  96.3979721  48.0831861  33.7396145
  96.6907024  47.2046518  33.4972906  96.8432713  48.2642031  34.5673656
  85.0034714  80.6351280  28.4053826  84.5277977  79.8045635  28.4162188
  85.1263714  80.8286476  27.4760413  77.3948526  59.4083691   0.9065995
  77.1710157  58.5111713   1.1539165  76.9281483  59.5534658   0.0835762
  97.8760338  41.4864731  36.0022807  98.1880665  42.3820114  35.8723760
  97.7214622  41.1559629  35.1173496  15.7953583  55.8603048  31.8965149
  16.2183892  56.3154221  31.1683989  16.4504753  55.8641672  32.5944042
  88.9840603  24.9990916  59.4823599  88.6390972  24.1342711  59.7044468
  88.2191658  25.5742407  59.5016479 107.3282337   8.7692720  36.0285068
 107.2436047   9.3654549  35.2844405 107.4885845   7.9128551  35.6321836
  89.9558735  23.7331915  47.7200222  89.2461967  23.6429906  48.3559942
  90.4741096  22.9352498  47.8246546  73.7752151  47.2208881  11.3922942
  73.0338192  46.6573334  11.1710107  74.3171167  46.6867542  11.9730496
   7.0722328  73.5033989   9.4399661   6.8419777  72.5853634   9.2970288
   7.6369416  73.7266970   8.7000549  71.0963488  28.6042404  83.3775711
  70.6294632  27.8638482  82.9901791  72.0095778  28.4708476  83.1236839
  84.7522640  74.8776817  48.9723730  85.3179264  75.5442667  49.3621445
  85.0830364  74.7748327  48.0800438  79.0557337  55.7935143  52.3040485
  79.7560549  56.2953854  51.8870258  79.4898367  55.3213453  53.0145741
  12.3633339  93.7818726  73.8410072  13.1481698  93.7068328  73.2982080
  12.5038483  94.5758971  74.3567769  93.6847973  77.2002268  44.7085190
  93.8334846  77.9199696  44.0952539  92.7386284  77.2006321  44.8534250
  82.7030087  92.9617214  37.0458889  82.7090263  93.6115265  36.3430762
  83.4543800  92.3991299  36.8583655   5.3413712  13.1470907  56.8322849
   5.7576596  13.7932742  57.4027061   4.6627652  12.7485132  57.3771381
   9.1410862  24.0159464   8.3548802   9.8775708  24.0605617   8.9646697
   8.3703648  23.9303231   8.9160258  93.7157154  72.1647978  47.5447750
  92.8807068  71.7438650  47.3403311  94.1786003  72.1978235  46.7075872
 108.7021637  47.7833366  37.7946281 108.7361240  48.0062199  36.8643594
 108.3636761  46.8881989  37.8142524 102.2245884  27.5791049  33.0081725
 101.8843842  27.5717092  32.1134973 103.1515789  27.3600006  32.9137492
  89.2981434  38.3234429   8.8558882  89.5166779  37.8244948   9.6429861
  88.8176060  37.7047586   8.3058429 104.5211792  82.8933430  40.4692411
 105.2859688  82.3589993  40.2552032 103.7725163  82.3404026  40.2456951
 102.7216530  53.4832764  46.8062162 103.2877731  54.2335224  46.9875193
 102.8149414  52.9213953  47.5755119  81.4040661  98.8387966  32.3239350
  81.9821644  99.1819286  31.6425371  80.8962917  98.1558895  31.8857074
  26.0367346  66.1118841  26.9274378  26.7032933  66.7363977  26.6412234
  26.0453987  66.1733007  27.8826261  52.1570206  16.1145139  38.2224965
  52.5288630  15.8607697  37.3777604  51.8741655  15.2896166  38.6171722
  12.9406391  31.9471073  38.2626605  13.4379898  31.9370103  39.0804458
  12.0831333  31.5937996  38.4994674  12.5070320  31.3824892  34.4744992
  11.8870484  31.8008685  35.0718331  12.0027958  31.2277055  33.6757421
  93.3676720  44.4318199  42.9904652  92.7817059  43.7183285  43.2430506
  94.1187286  43.9943743  42.5894785  57.0267630  32.7529120  31.0913134
  56.5667582  33.4175801  31.6039944  56.6314888  31.9246459  31.3632822
  89.7341919  75.2249765  53.2307053  90.4278278  74.7424650  53.6804676
  90.1578522  76.0289574  52.9301071  79.5072794  51.4376259  51.3142395
  80.1267529  50.7639456  51.0337925  79.9572134  52.2642803  51.1397982
  13.1214844  19.2616868  49.1103649  13.9251267  18.7859964  48.9003229
  12.7015435  19.4084275  48.2628107  23.9371525  71.8527269  49.3497944
  24.2111336  72.6987934  48.9957523  24.7551857  71.4166689  49.5883369
 103.3002090  53.9581490  55.2195168 102.6917744  54.4263411  55.7912111
 103.6068058  53.2214212  55.7481527   3.3533512  43.5781050  13.9940178
   4.3032109  43.6410236  13.8938916   3.0408608  44.4760895  13.8835371
   0.0539242  40.1310539  18.0093837  -0.4768528  39.5742798  17.4397218
   0.8686959  39.6432424  18.1294501  22.3866116  64.2187452  30.0240612
  21.7399346  63.8413668  30.6204176  23.1168686  64.4691467  30.5899596
  96.4944553  28.9178395  41.4280891  96.9875813  29.0137148  40.6133080
  96.3545132  29.8152113  41.7303658   4.1948258  43.6905718  68.2845163
   4.1034542  43.5183144  69.2216492   3.3501374  43.4387636  67.9112387
  18.5290371  32.8941989  40.8756113  18.3805023  33.8257456  41.0380602
  19.0503441  32.6008964  41.6229010  93.8612461  56.8411160  45.1368093
  93.5721588  56.7294693  44.2311668  94.7549725  57.1759367  45.0634003
  28.8593041  37.1504712  57.5533295  28.7712036  37.6837325  56.7633247
  29.4687306  37.6398468  58.1059027  91.7598248  57.8483295  37.9886270
  91.7675972  58.3678341  38.7925482  92.2379303  58.3820200  37.3539472
  99.5103264  63.5910797  56.4828634  98.8485432  63.7796640  57.1482325
  99.4115925  62.6557064  56.3052130 108.1919384  30.8710837  35.3767538
 107.2938442  30.8240008  35.0489593 108.4251404  29.9625826  35.5677319
   6.1760365  88.6214256  63.2123423   6.2660443  89.0178013  62.3457289
   7.0596443  88.3278847  63.4344006 106.1231899  11.0968482  57.8658485
 105.9235191  11.0303771  58.7996292 106.8315887  10.4682422  57.7270555
  81.1347675  56.1090374  64.6632051  80.4646397  56.0859823  63.9801121
  80.6524563  56.3100481  65.4652023  85.3579807  59.9915886  57.4995184
  85.3495884  60.8525085  57.9178238  85.5357170  59.3798780  58.2139778
  84.1448212  49.4739580  57.0367765  84.1236019  48.8177824  56.3401985
  83.2901096  49.9021864  56.9885349 103.1220722  83.8335705  42.6821518
 103.8585758  83.8527393  42.0710611 103.5242939  83.6814213  43.5373116
 104.7502708  55.1552057  46.1336994 105.0528145  54.2483854  46.1824799
 105.2591133  55.5393839  45.4197550  14.0905987  26.2998128  36.6485620
  13.2998120  26.7983389  36.4427757  14.3735348  25.9414625  35.8072734
  24.4120060  73.0351448  70.9815025  24.2368733  72.1330118  70.7137060
  23.6614167  73.2734728  71.5256071  11.2248837  44.7017860  23.1831217
  11.4474713  45.5752373  22.8609943  11.0069691  44.2041874  22.3949981
  91.9551754  55.3443003  54.0974522  91.9691277  54.9137402  54.9522352
  92.5991249  54.8641443  53.5768652  93.3271503  64.7159529  54.1674328
  92.6877213  64.7693968  54.8777103  92.7975368  64.6625328  53.3718872
 102.2840786  59.0128613  44.9177885 101.5434265  59.2257214  44.3500280
 102.1464443  58.0964613  45.1575661  97.9757309  68.7011909  52.0468283
  97.1723270  68.5473394  51.5497303  98.5736561  69.1038179  51.4170551
  97.7925205  49.8363924  41.6915417  96.8912792  49.7032213  41.3978529
  98.3277702  49.4060183  41.0248137  77.5839090  20.0586152  27.7966285
  77.4508905  19.2494810  28.2904291  77.3590994  20.7552862  28.4133482
  10.2063690  28.4895039  58.2093668  10.1168095  29.2132092  58.8294172
  10.7271992  27.8365636  58.6769485 102.8105927  35.0431466   8.7858951
 102.1629238  35.6190610   9.1922110 102.4270630  34.8103023   7.9403615
  87.9026127  36.8805718  24.2235923  87.1386051  36.6254306  23.7064624
  88.4447289  36.0923076  24.2549181  91.3682079  58.4851694  15.3905213
  91.1233234  59.4052362  15.2918494  90.5342674  58.0232763  15.4767191
  95.0075150  49.9540997  45.0268316  94.9718666  49.9358463  45.9831953
  94.1478920  50.2808571  44.7613049  92.6958179  82.5196171  22.0747304
  93.5185146  82.2997284  21.6376376  92.5221825  83.4249592  21.8169737
  84.1426659  14.0553856  64.0882540  83.4803009  13.6729705  63.5127020
  83.7571335  14.8808753  64.3817902  97.5986195  47.1195936  74.1521549
  96.6990376  47.3811769  73.9558077  97.5501251  46.7324638  75.0262308
  21.0233818  25.8637404  29.4351721  20.0939118  25.8705354  29.6638060
  21.4537941  25.4696512  30.1939034  20.4556404  40.9390306  64.9100876
  20.3046833  40.1400852  65.4151869  20.6953846  40.6286573  64.0369177
   2.8572499  70.4631901  42.2080183   2.1677433  70.7912159  41.6307688
   2.4161278  70.3062057  43.0428839  86.9025326  76.6970205  41.4054298
  87.3924255  76.0593796  40.8861494  86.3575268  77.1574974  40.7673359
  64.6380234  21.1468887  59.4003439  65.2632284  21.5130997  60.0258398
  63.8657999  21.7071819  59.4776440 108.7250233  51.3598490  29.6926713
 107.7951336  51.4300489  29.9085689 109.0738297  52.2376442  29.8477030
  40.7289482  17.2381184  85.6250532  40.4048420  17.1051762  84.7342594
  39.9579550  17.5114081  86.1221539  11.4906441  63.5364151  60.1965046
  10.8383213  63.5800695  59.4973564  12.0667778  62.8156757  59.9418736
  11.1231171  24.4425678  28.7393999  11.7802941  23.7734008  28.5481572
  10.5800282  24.0555763  29.4260740  83.3882618  54.6188593  48.9700365
  84.0941525  54.5373869  49.6113777  83.2103062  55.5584240  48.9277983
  38.2400856  96.8224171   1.8172128  38.4312115  96.8266180   0.8792932
  37.5145683  97.4388435   1.9165666  95.3126526  68.4352016  36.5360856
  95.9766293  68.5086966  35.8505440  94.5191574  68.1663275  36.0731506
  95.3296661  57.8925180  70.3245687  95.9757614  57.1869946  70.2923536
  95.7682419  58.5973358  70.8011389  13.0796181  81.4028549  37.7118039
  12.5146996  81.9107342  37.1294308  12.5464283  80.6495667  37.9657578
  81.1808586  35.4781175  54.6427774  82.0017624  35.6557012  54.1836357
  80.5787277  36.1513805  54.3259430  79.0751123  71.0396099  50.9587717
  78.8024282  70.4793119  51.6853714  78.7686968  71.9132328  51.2019253
  94.7893333  14.8974550   6.9057137  95.1146698  15.2813828   7.7199554
  94.1272354  14.2657924   7.1865344  93.8732433  47.4834871  46.2354803
  93.0681610  47.4518585  45.7186747  93.7745190  48.2607746  46.7853069
  12.9322373  50.4668140  44.6779299  13.7431561  50.4490900  44.1696787
  12.5588547  49.5928669  44.5637560  86.8404198  64.5942736  63.5004234
  86.1579704  64.8632908  62.8855085  87.0106411  63.6776876  63.2833385
  88.3013439  40.2203417  71.7926884  87.6456261  40.3285837  71.1038065
  88.2419682  41.0245657  72.3083687  98.2915401  29.8198318  14.1177225
  98.8362980  30.1371646  13.3974648  97.3961639  30.0269818  13.8500905
  99.0964985  24.1730952  29.8608708  99.7062206  24.6073771  30.4574299
  99.2545223  23.2386518  29.9953175  72.7363014  32.5063396  26.8328238
  72.0184565  32.2817087  26.2408161  72.3932695  32.3198843  27.7067780
  21.6543328  77.1572924  25.0543523  21.2937867  76.5490770  25.6995702
  21.2969910  78.0097818  25.3029418   9.9656712  59.6721601  33.7179232
   9.6537434  59.9105120  34.5909190  10.3443085  58.8000441  33.8287115
  89.2794800  63.5920429  54.7600079  89.2558861  63.1769371  53.8978243
  88.6573792  63.0887270  55.2852631  99.6565628  48.3993196  61.8294525
  99.4252110  48.0351257  62.6838970 100.5809689  48.1778288  61.7170286
  14.9649178  46.2458134  67.3189068  14.3076359  45.6461859  67.6719809
  15.7005822  46.1802673  67.9277754  85.7569885  70.3108406  52.8801060
  85.5726147  71.2454796  52.9733276  85.0946808  69.9962664  52.2647858
  90.3502369  78.4856987  53.6206961  90.5610371  79.4045830  53.7863588
  90.8157825  78.2753277  52.8112316  94.9564934  69.2694521  40.4790020
  94.0642452  69.4043207  40.1597309  94.9502468  69.6285868  41.3662529
 106.3180542  59.1179562  35.4005170 106.1621571  58.7883520  36.2855530
 105.9614754  58.4402275  34.8262644   3.1955754  45.0790167  51.0117006
   3.0675827  44.2823696  51.5266800   4.0211235  44.9351311  50.5491066
  11.9413029  30.6934309  65.4113293  11.2527882  30.1688910  65.8200169
  11.6034161  30.8939648  64.5384884 104.2908669  60.6981897  39.6939158
 104.6768665  61.1697435  40.4320717 104.4487476  61.2648296  38.9387846
  81.3132954  37.9930973  62.7281666  81.7059135  37.3529220  62.1346521
  81.5833282  37.7076149  63.6009884  99.1943550  40.9162331  38.5745049
  99.0593719  41.7988968  38.9193535  98.6438084  40.8778572  37.7924204
  11.6993653  27.6023340  39.1486573  11.2924801  26.7387247  39.2183661
  11.9710385  27.6658964  38.2330251  10.1686322  43.1212187  21.3029480
   9.9006497  43.0493593  20.3868389  10.9864937  42.6264000  21.3527751
  87.8776360  72.9239798  41.2122631  88.1803226  73.4493303  40.4715776
  86.9852352  72.6700163  40.9769726   6.3780533  14.4928992  65.0069475
   6.7888485  13.6287498  64.9800777   5.6271206  14.3830860  65.5902863
  89.7080803  62.7115250  52.0372152  89.0093517  62.8643179  51.4010859
  90.3075218  63.4478807  51.9160509   9.4510208  42.5458527  15.2112556
   9.1603600  41.8728876  14.5957303  10.3450714  42.7507305  14.9375355
  64.3705845  69.9663305  37.4003482  65.0066757  69.2620707  37.5254226
  64.7564125  70.5197430  36.7213035  91.9278908  62.1771526  66.2033272
  91.1773396  62.3943424  65.6504059  91.5416718  61.9116592  67.0379400
 105.0757217   3.1678778  29.0315676 104.8130322   3.4672752  29.9019623
 104.4428158   2.4840599  28.8123703 105.2709770  71.3806009  30.5098319
 106.1492443  71.7350101  30.3710246 104.9479198  71.8382788  31.2859726
  69.8400784  80.6046486  48.9448452  70.4806900  80.0396061  49.3767929
  68.9942217  80.3083134  49.2809153  90.3269482  75.6180143   8.7093443
  89.4749355  75.6256342   8.2731551  90.1318932  75.8398724   9.6198195
 104.6520996  57.9459429  24.6030927 104.4142151  58.5944796  23.9404941
 104.2256165  58.2532740  25.4030228 102.3186207  20.5235052  32.5640988
 102.8318310  20.0520730  31.9079018 102.6314640  20.1835155  33.4024119
  17.5182186  39.6931005  25.6863570  18.2737099  39.2069340  25.3560424
  17.1666085  40.1410294  24.9169636 103.4676933  50.3986025  68.9386272
 103.0412483  49.5417356  68.9261818 103.6851597  50.5445528  69.8592997
 106.2662697  29.2061591  33.6172032 105.6783772  28.8582921  32.9466796
 105.6821728  29.5379233  34.2991114  26.5697361  89.8268663  30.4827142
  26.0270382  89.4243776  31.1607361  26.5312077  89.2129635  29.7493172
  37.5962784  93.9221343  77.6279561  37.6468232  93.6109742  78.5317569
  38.4682896  94.2725285  77.4461632   0.8491837  14.9085987  57.4246645
  -0.0513805  14.5977116  57.5172138   1.1244808  15.1145101  58.3179951
  13.6872994   9.3934941  45.3430510  13.3834969   8.5495597  45.6772757
  14.5977532   9.4520938  45.6326580  85.4690838  80.6130695  15.2186477
  85.9815884  79.8344612  15.4362285  84.5771503  80.2869511  15.0989139
  14.6634423  22.1295166  13.1160617  14.6740567  22.4413681  14.0209746
  13.7383972  21.9705009  12.9283547  71.8276978  50.3740072  21.2472177
  71.4439821  51.2238073  21.0308075  72.5961828  50.3069067  20.6805086
  96.5891171  30.7138467  24.3425822  96.7482662  30.0061870  24.9671769
  97.2166824  30.5563545  23.6371803  21.1103665  41.0673618  35.9751678
  21.4912163  40.5808687  36.7062688  21.8598877  41.3050985  35.4293346
   4.1572987  49.6409512  18.1909156   4.7770344  50.0828838  17.6105297
   4.7077118  49.2023659  18.8397014  89.1135597  27.6023507  11.9264865
  88.9691734  26.6575909  11.9795001  88.2699966  27.9872751  12.1640956
  77.2113752  16.7935240  51.3190699  77.9901981  16.2926638  51.0765648
  76.5558100  16.1291230  51.5312862  77.7973127  55.8652115   9.0008485
  78.6700249  55.8257961   8.6096370  77.8833294  55.3890324   9.8267329
  95.3205967  34.5172167   8.3277613  95.0937271  33.6584234   7.9710555
  96.2148762  34.4129491   8.6527550 103.7977219  87.8233624   4.5800903
 103.9953613  88.7020588   4.2559710 104.6399879  87.4851513   4.8841196
  34.4515930  51.2981319  54.8509026  35.0962101  51.6335392  55.4739618
  34.6769749  50.3736162  54.7474432   7.3326050  47.8145218  70.8601046
   6.5925919  47.2838831  70.5650806   7.2599636  47.8172255  71.8145418
  21.1900189  74.1401061  80.9683298  20.5038121  74.1435846  81.6356747
  21.7090085  74.9225839  81.1543666  63.0748345   5.2209971  77.0073883
  62.1476246   4.9973127  76.9268529  63.5356976   4.4035742  76.8185465
  10.7287537  77.8455973  50.0869656  10.3835808  76.9645691  49.9424505
  10.9119641  77.8800344  51.0258389  56.8749857  42.0941210  41.9605446
  56.6475344  42.6439095  41.2107277  56.1395931  41.4871550  42.0443344
  25.8461796  47.3922348  40.2010345  25.0193154  47.4453115  39.7217512
  26.0709130  46.4618731  40.1886415  94.9717617  76.7645597  37.6416850
  95.8104134  77.2244120  37.6794696  94.3158436  77.4534369  37.7487040
  99.7640610  51.1523342  47.1329069  99.5745564  51.7723656  46.4287186
  98.9495468  51.1017609  47.6331377  74.7085094  26.0379291  42.0822906
  73.9176416  25.5689096  41.8162441  75.4273176  25.4603958  41.8253851
 107.3422718  42.3921919  84.6399689 107.8734303  43.1691742  84.8143196
 107.1838093  42.4172068  83.6963081  91.4412594 102.2602654  51.9552231
  91.0726833 102.8840542  52.5807428  90.7279396 101.6463089  51.7806625
  23.4341465  64.6040106  68.1133461  23.4051453  65.4089594  67.5961876
  24.3677269  64.4272566  68.2291937  57.9520369  81.0949326  54.8521423
  57.2005987  81.6877556  54.8405886  58.1260538  80.9468937  55.7816792
  23.0136229  30.9201452  82.1232377  22.0813204  31.0228941  81.9322108
  23.4416319  30.9853098  81.2695448   9.0953385  77.4706602  39.5759535
  10.0285088  77.2999811  39.4483066   8.7342869  76.6298389  39.8568320
 101.4503765  58.2793856  63.7659788 100.8934116  58.6509180  64.4500780
 102.3076820  58.1836462  64.1808176  93.9740467  25.9719253  23.1006670
  94.7747707  25.5966234  23.4670329  93.3087921  25.2975368  23.2380319
  11.5659558  60.7852936  71.0984612  11.6837250  61.6849804  71.4032936
  12.1750294  60.2711630  71.6284847  21.7406689  72.0471334  46.1185455
  21.9589745  72.6660967  45.4217958  21.5358864  72.5987959  46.8735027
  40.3747521  10.6433118  37.4814939  41.1672459  10.4089273  36.9985318
  40.6523762  10.6735815  38.3970499  62.3396349  82.2198009   4.9207520
  63.1600428  82.6680660   4.7152877  62.5683022  81.2903118   4.9217492
  72.6645088  57.9808903  47.6724577  71.7998743  57.5891495  47.5492668
  73.2265186  57.5220156  47.0481062  68.4860897  83.5927010  39.5021343
  67.6637363  83.8395405  39.9252605  68.9160109  84.4260025  39.3097472
   5.8670651  67.2589064  45.7732153   6.3073860  66.4240170  45.6141281
   6.5317952  67.9205418  45.5818701  32.8753220  77.8492117  70.5018568
  32.8029190  78.1561136  71.4056253  31.9698464  77.7788544  70.1995373
   6.2190567  35.8598232  54.9178267   5.3137909  35.5490589  54.9055338
   6.7156063  35.1684165  54.4800758 107.9272652  56.8920088  39.0854764
 108.5673141  57.5971842  39.1818786 108.3924389  56.2111330  38.5994172
  84.3938541  79.6988869  66.8343592  84.2259979  78.9956379  67.4616480
  83.6641884  80.3065777  66.9549036  25.6348454  79.2729902  51.3283014
  25.1474797  78.9249134  52.0749950  25.1881443  80.0912380  51.1111403
  95.3688049  59.7177553  51.9117308  95.8284950  60.2514696  51.2636089
  96.0533333  59.4349432  52.5180864  84.9260235  61.8166542  54.6591663
  84.4955635  61.1230564  55.1590252  85.7083416  61.4006710  54.2969990
  69.4824743  56.0294437  59.1897917  69.3898964  55.4177332  59.9201822
  68.9627647  55.6419706  58.4855175 105.2396774  60.8590746  33.8920784
 105.7289696  60.2161789  34.4054151 105.9134483  61.3735533  33.4475875
  89.5625496  70.6441545  43.4362555  88.6805820  70.8223772  43.7627745
  89.4906044  70.7413912  42.4867296   6.9210755  71.3089752  59.9692154
   6.1551987  70.7419395  59.8790455   7.0502793  71.3884926  60.9143162
 109.0734100  53.3923626  75.0331783 109.7774506  53.9731503  75.3216934
 108.6580372  53.8608265  74.3091345  88.0515289  61.5152407  47.6061058
  88.9131069  61.1134672  47.7178240  88.1386280  62.0539904  46.8197298
   0.7027088  49.2573786  28.2509303   1.1214958  48.7390137  28.9380574
   0.2044331  49.9239540  28.7238312  89.5049667  86.6345501  29.5208907
  90.1036644  86.7688465  30.2555728  89.2376518  85.7183647  29.5941472
  88.0026245  73.6233711  82.7663994  87.2991467  73.0162764  82.5366688
  88.6590385  73.0768776  83.1984806   7.6259934  29.7367740  44.5459747
   7.9638707  30.6240320  44.6678352   7.1644532  29.5421100  45.3616476
   2.2988640  59.0449810  65.0922346   2.4547516  59.4670105  64.2473555
   2.9606377  59.4202662  65.6731462  95.4216003  93.5038185  27.5932598
  95.2993298  92.7115250  28.1162953  96.0963535  93.2686043  26.9563746
  72.7322754   1.3035194  18.0171354  73.0953773   0.4449550  17.7997453
  73.0823406   1.8886892  17.3453767  87.7345371  76.1103535  69.1350937
  88.2746983  75.3234005  69.0633154  86.8411160  75.8023119  68.9829683
   7.1961914  50.7015133  22.0734525   7.7286564  51.1499739  21.4164877
   6.4966523  51.3217449  22.2788477  32.4237763  28.4419942  86.6899204
  32.1807896  27.7774787  86.0452461  33.2703339  28.1497097  87.0277500
   5.2938591  49.5443726  48.9315701   5.4582058  50.2262020  49.5829773
   4.5764386  49.0289259  49.3001461  23.0286442  87.4604893  64.3691158
  23.4559189  87.6483059  63.5334206  23.5965573  87.8652382  65.0247765
   4.4739472  59.7061777  24.6072173   5.2660881  60.1038790  24.9685597
   4.6798455  59.5582342  23.6842036  74.6783139  96.3779174  47.7368164
  74.8774792  95.5783503  47.2497272  74.2411400  96.0717027  48.5313940
  12.8492962  37.2727847  11.2948251  13.6940323  37.4823952  10.8964336
  13.0243717  37.2619486  12.2358155 103.7957478  28.5891604  18.2205689
 104.0080070  29.0650034  19.0235329 103.3812904  27.7812266  18.5233963
  22.5949990  30.3731084  21.3852954  22.5299107  31.2377024  21.7908454
  23.4106671  30.0083256  21.7285752  76.1536551  55.2800131  36.6244721
  76.3079739  54.4571733  37.0885277  76.5472412  55.1461887  35.7622600
 101.8338776  69.8513460  70.7637644 101.8277073  68.9762402  70.3759718
 101.8475437  70.4456758  70.0135517  16.8577706  63.4974098  23.9957762
  16.3831269  62.8581047  24.5270324  16.1815964  64.0988970  23.6839318
   7.7456795  70.7551908  34.9166918   7.4727570  71.0779238  34.0578651
   8.2868134  69.9895144  34.7239399  21.3420998  79.5539093   7.4970376
  21.2092243  78.6083841   7.5645703  22.2921120  79.6592236   7.4459195
  24.4992291  41.8119383  51.8478775  24.0914189  42.1203661  51.0386896
  24.6425473  40.8767557  51.7025232 100.3663515  22.0823301  81.4122295
 100.4808544  22.2457040  80.4760456 101.0247539  21.4199747  81.6220570
  11.3823448  73.1417322  28.6555052  11.3795983  74.0529728  28.9485335
  12.3054730  72.9435205  28.4981418  25.0404011  32.8874922  24.5812130
  24.9729763  33.2156539  25.4778719  25.8796154  33.2229185  24.2658710
  89.0367699  44.4597244  49.0067625  89.9587345  44.4971323  48.7521696
  88.6237621  45.1702547  48.5160398  93.6909294  44.8117924  69.6285629
  93.2492352  44.2425871  70.2587509  94.6082115  44.8055649  69.9020576
  16.1523281   6.6172796  54.9476099  16.5054642   7.3310411  54.4165087
  15.2241169   6.5832275  54.7163343  10.9948479  68.2735491  36.2910914
  11.2729775  69.1690207  36.4834666  11.8008076  67.8203964  36.0434675
  19.3764817  67.4365139  45.8716869  19.2058216  67.7044249  44.9687338
  19.6442257  68.2420683  46.3139915 102.0167637  59.4567060  67.5640821
 102.6348400  60.1119900  67.2403240 101.2274456  59.5923328  67.0398521
  73.5876131  67.8421450  63.6240721  74.3998384  68.2634115  63.9052343
  73.7121105  67.6822615  62.6885653 106.1213112  85.3561115  39.7748590
 106.2328053  86.0915661  40.3772831 105.4869461  84.7853470  40.2084970
  39.3550240  72.3578739  35.0683832  39.8107945  71.6448021  35.5156326
  39.2136132  72.0315981  34.1796875 102.9097557  50.0386953  79.1890812
 103.3837509  50.5395222  79.8529625 103.0104160  49.1262388  79.4602251
  80.6156063  63.6220169  42.1775293  81.3575268  64.0903044  42.5602579
  79.9329710  64.2870378  42.0881271  85.0269699  26.9766450  23.1198716
  84.8208714  27.0441031  22.1875620  85.4921818  27.7884889  23.3216763
  88.1844425  63.9715385  37.3585749  88.0137157  64.4930267  36.5742707
  88.2163811  64.6116447  38.0695438  11.1989342  22.4850678  75.9703112
  10.9156262  22.7830863  75.1059294  10.6894146  21.6903448  76.1285400
   0.9104477  55.0773239  38.3197451   1.0977017  54.1421747  38.2381105
   1.3925492  55.3508949  39.1001105  46.7633377  77.2055197  25.3299809
  47.6040398  77.4680758  24.9551225  46.6988026  77.7029324  26.1452389
 103.1634903  85.2019787  33.3874273 103.9828587  85.6287479  33.6378837
 103.3383274  84.8385525  32.5193357  95.2623272  37.8524303  36.0194778
  95.4669857  36.9176054  35.9982181  94.6140003  37.9398513  36.7182374
  13.9912258  71.5622854  42.9584694  13.1447731  71.1782360  42.7298737
  14.2252766  72.0955563  42.1988153  11.9188153  67.3471212  64.1433954
  12.0129620  66.4063454  63.9940357  10.9770714  67.5065279  64.0806627
 100.9410477  42.0882082   2.2764042 100.1951790  41.8579960   1.7224003
 100.5679703  42.1840048   3.1526887  62.2262478  82.8917980  23.1520915
  62.4846458  83.4042835  23.9181280  61.5691090  83.4319019  22.7131319
   1.1633622  93.7183666  66.9999933   1.4306485  94.6067333  67.2357512
   1.9859062  93.2383919  66.9036245  87.2179794  55.9307909  58.6092329
  87.1858692  56.5889740  57.9149723  86.3395882  55.9406710  58.9894581
 104.2890263  64.4461441  73.0173016 104.0451431  64.7404909  72.1397400
 105.0946617  64.9237967  73.2148647 100.9448910  35.2767730  45.4759407
 100.1452732  35.2879667  44.9499083 100.6923962  34.8340583  46.2861776
  68.8497448  53.3535528  31.1718392  67.9709053  52.9840946  31.2577081
  68.8227987  53.8477612  30.3525305  96.0437965  29.1626000  32.9364538
  95.5451393  29.9503660  33.1532216  96.7943001  29.4841218  32.4368453
  82.3111534  46.1939812  63.0963373  81.3787079  45.9780407  63.1084585
  82.6848125  45.6824446  63.8139343  84.4847584  76.4504051  43.4876728
  83.6093235  76.1595249  43.7430763  84.3336105  77.0570803  42.7628803
 104.5725918  62.3838902  84.2430019 104.7842121  61.4723206  84.0417862
 104.8614597  62.8725767  83.4722996 107.0078087  41.2988520  26.9374824
 107.3156738  41.5397882  27.8112125 107.8059292  41.2250233  26.4142299
  85.0067902  79.0822411  48.7718296  84.9767494  78.3861542  49.4281816
  85.6177807  79.7249651  49.1321278 107.5504589  67.0949697  35.4351735
 107.4136162  66.5663815  36.2213707 107.1857452  66.5668535  34.7250223
  91.6724205  25.5125403  57.1055937  91.2507725  26.1204600  57.7129459
  92.4853802  25.9507084  56.8539381  82.4696445  61.3136482  24.3726778
  81.8106842  60.7784081  23.9304996  82.3440456  61.1278534  25.3032351
  95.1916885  48.4928131  52.4625206  95.4999447  48.5175514  53.3683920
  94.7031498  47.6721954  52.3980951 106.4747906  72.7975559  48.6773634
 107.4255753  72.7643394  48.5717773 106.2834263  73.7221575  48.8346052
   4.3314968  36.1923742   6.9239217   3.4466397  35.8731556   7.1010160
   4.3840920  36.2350774   5.9691221  38.6765992  44.0613127   5.0064057
  37.9344117  44.3163204   4.4583505  38.5088860  44.4841766   5.8486009
 102.3967648  49.7392273  60.3213024 102.8924656  49.0797997  60.8067560
 102.3953056  50.5068064  60.8931828  46.6675221  83.1590462  64.6546268
  46.0294472  83.1733799  63.9412642  47.3638760  82.5817204  64.3415451
  87.4072361  51.4727592  40.6138706  88.1435394  52.0811939  40.6763220
  86.9917011  51.5103865  41.4753532  10.3187119  51.8562555  34.8454952
   9.4430195  52.1025038  35.1434040  10.8669125  52.6097488  35.0644898
   2.4592434  35.8824396  35.2779770   1.9272839  36.4926362  35.7887721
   2.2242676  36.0636735  34.3679357  81.9563675  54.1451788  44.5855141
  82.2420120  54.8027611  43.9513063  82.7669907  53.8296223  44.9849272
  74.1588879  71.1659813  49.7274446  74.3309975  70.4353714  50.3214312
  73.2481813  71.0463047  49.4581413  51.1350800  20.6380627  76.5585773
  51.9799305  20.2634260  76.8077843  50.9734322  21.3195154  77.2110515
  12.0482765  84.7411537  45.1773405  12.1327912  85.6791210  45.3485394
  11.1902844  84.6496773  44.7629642  85.9656143  58.4458876  38.3424616
  86.5695190  57.7037907  38.3712006  86.0929680  58.8247776  37.4727178
  94.0978527  37.5720263  26.6254592  93.8586998  38.4988546  26.6308379
  93.8998318  37.2684288  27.5113773  74.0596199  96.7890644  42.2780037
  74.1595459  97.7134991  42.0506859  73.5508728  96.4186954  41.5567303
  98.0181980  51.0581255   8.7930882  98.1980038  50.1183748   8.7653089
  97.0886993  51.1306524   8.5762709 103.6100101  60.5877495  36.3379717
 104.1547394  61.2275457  36.7964053 104.2051315  60.1676702  35.7170057
  99.8512745  43.0247307  53.2064199  99.4604397  43.8716745  52.9915476
  99.3277931  42.3887682  52.7188158   4.7355496  89.4723034  54.6249676
   3.9211785  89.2687416  54.1649771   4.5727860  90.3214073  55.0357771
   3.0343567  85.8094597  58.2972145   2.2991883  86.3877869  58.5004234
   3.8096558  86.3599968  58.4070539   8.6473690  63.4106302  16.9735813
   8.9233910  64.3267107  17.0026159   7.6989018  63.4500408  16.8507576
 103.8449478  37.4887466  62.4545813 103.3197498  36.7356300  62.1840000
 103.2027626  38.1723714  62.6455927 107.6551056  62.2428465  34.3154335
 108.2165718  61.5040684  34.5503664 107.2401142  62.4996376  35.1388836
  72.3445272  77.1750736  35.1818347  71.5558767  77.7091646  35.0869489
  72.1493101  76.5872002  35.9115791   0.9105717  72.0032930  41.0754251
   1.4424263  72.7340269  40.7601595   0.4082238  72.3692560  41.8033934
  78.3261204  73.9594460  75.0024414  78.7500525  74.2730188  75.8013105
  78.8973045  73.2589722  74.6873045 103.3170509  60.0627470  59.0326166
 103.6927032  60.6361532  59.7006845 103.9253330  59.3255424  58.9801502
 100.6610298  41.1112356  71.2083483 101.2073994  40.3253031  71.2038040
 101.2690830  41.8267250  71.0224056  83.5766220 101.0419273  37.9322791
  83.6421680 100.9843159  38.8854909  82.8560352 100.4539680  37.7057862
   3.0731140  66.9884109  46.7452574   4.0117775  66.8191624  46.6647100
   3.0007778  67.5886679  47.4873447  94.2312527   3.0280143  21.2116575
  94.4097328   2.4962738  20.4360104  93.4286785   3.5033157  20.9967160
  95.6859207  55.6230593  57.6582527  95.1266479  55.1561260  58.2790804
  95.1578426  55.6886768  56.8626022   2.8620755  68.5886574  15.1927829
   2.2642456  68.2677555  14.5176184   2.2888790  68.8737440  15.9043968
   9.6186768  78.6783600  55.7913780   8.7029396  78.9241266  55.9227180
   9.7822033  78.0030060  56.4496994  67.1920395  75.5985498  67.9190826
  67.1363115  74.6929216  68.2239866  67.3769283  75.5250931  66.9827890
  80.5151081  64.2206097  50.4753447  79.9133110  63.8041258  49.8584127
  81.3102055  64.3769646  49.9658155 106.0024548  62.7937841  43.6004257
 106.4639187  62.4650431  44.3719292 105.6099796  63.6177158  43.8891029
  87.5871944  59.1607904  77.2371292  87.1849060  59.4101238  76.4051247
  88.3561420  58.6484051  76.9873285  19.2475090  12.4576868  44.8446417
  19.5270023  12.3046411  43.9420366  18.4161911  12.9249204  44.7620058
  18.2843815  72.4050331  48.8009405  18.5284458  73.2484579  48.4197569
  17.5621258  72.6104832  49.3945408  98.9155102  70.9205532  41.8448257
  99.8069668  70.5813551  41.9253683  98.6074352  70.5867100  41.0022879
 107.8593731  57.8397417  55.5775738 107.0616913  58.1694126  55.9914064
 108.0903244  58.5102034  54.9346352  10.0131451  98.4913731  32.8170443
   9.0606343  98.5853672  32.8277469  10.1621853  97.5979424  32.5075269
  32.6469647  78.5184336  75.7609081  31.9182049  78.5022449  76.3812923
  33.3020150  79.0799141  76.1754894  36.3611914  87.3189281   3.4432751
  36.1708189  86.4550685   3.0775729  35.5019213  87.6849758   3.6528057
  81.3446140  14.1152883  20.4241848  82.0519543  14.4186985  20.9932566
  81.7891693  13.6407471  19.7217548  67.6692486  19.1257370  75.7896137
  68.1297445  19.7662020  75.2474165  66.8987417  19.5939279  76.1110926
  58.3091545  14.1869569  33.5485101  58.8646412  13.4327400  33.7455344
  57.9292965  14.4316018  34.3923640  90.9042454  16.1446679  43.0484104
  89.9476719  16.1445975  43.0829954  91.1471653  17.0659649  43.1402349
  96.4072514  12.4495935  39.4911933  95.5111027  12.4945080  39.1578245
  96.7468548  13.3382857  39.3857193  68.4214640  34.9950242  28.8093710
  68.2894373  35.8032632  29.3049002  69.0386057  35.2357912  28.1184316
   1.2829020  76.4518722  82.3595320   1.3214686  77.2061785  81.7715107
   0.6715634  75.8491596  81.9361673  63.0789829  91.0668706  39.5374393
  63.4018971  90.6703102  38.7283039  62.5782086  91.8292748  39.2472720
  61.5422249  28.4631371  31.7579794  62.1408272  28.9843464  32.2930050
  61.8437147  27.5616360  31.8703866  71.8191719  13.5901308  35.1606894
  71.1266851  13.2142472  34.6171761  72.0228863  12.9046786  35.7969975
  55.5604889  94.6744307  88.5509879  54.7844651  94.4329127  88.0453243
  55.3971341  94.3192395  89.4247091  69.8928213  26.6657257  15.5839705
  69.4198751  26.6270351  16.4152694  70.8161116  26.6134953  15.8310330
  90.6466675  36.3383698  28.9787412  90.0484562  36.2630248  29.7221804
  90.2396965  36.9911027  28.4090495  45.5589294   7.3606545  24.8610377
  45.1188803   6.8980604  24.1478777  45.3335476   8.2808918  24.7246623
  85.7769585  32.0462537  53.3719873  86.6630268  32.0097375  53.0117321
  85.9011269  32.2912335  54.2889404  42.2758534  37.0469578  82.5421016
  41.9577935  36.2718042  83.0049251  42.8541615  36.6998860  81.8628840
  84.7065163  25.9313297   7.8596485  83.8291740  25.7323527   7.5326759
  85.2532196  25.2194595   7.5270951  53.5391762  55.0498479  81.5607505
  54.1409447  54.8112624  80.8556383  53.3805134  54.2296483  82.0280092
  97.3928642  13.6678481  28.1050014  98.0827141  13.8413119  27.4644923
  97.6100349  14.2296040  28.8489771  72.4220730  91.4960085  21.4500213
  72.4978138  92.2657072  20.8860540  71.6245915  91.0583686  21.1521530
  86.7575645  33.4340978   5.9834075  87.0402431  34.0254784   5.2858484
  87.1359158  33.8055754   6.7803299 104.5670319  30.5363774  35.2390456
 103.8977528  31.0168505  34.7517633 104.9246502  31.1788702  35.8518624
 105.3296089  26.3695884  10.0010395 105.6593990  25.8349848   9.2787743
 105.9158611  27.1258283  10.0263941  77.3207951  17.3885703  75.3912544
  77.2211647  18.0716217  74.7281218  76.6502094  17.5890422  76.0442209
  50.8827473  94.0060460  23.1981421  50.5592037  94.8857050  23.3924484
  51.8152596  94.0413343  23.4112191  69.8485088  24.8707700  40.5178022
  69.9760723  24.2338133  39.8147750  70.1393795  25.7022715  40.1433229
 103.4968281   3.0053350  20.2792597 104.1793919   2.7528355  20.9010243
 103.5796928   3.9560986  20.2056789 104.4919109  10.4818130  51.7274475
 104.1833115   9.5787954  51.6528606 104.2022991  10.9015703  50.9174061
  18.1014286  30.4004073  27.0213318  18.1382977  31.2925315  26.6763854
  17.5286137  29.9322414  26.4139342  76.8909241 101.1927599  41.8701982
  76.0883309 101.6246565  42.1626854  77.0870949 101.5984016  41.0256863
  41.2009026  93.0280655  49.1881180  41.6817213  92.9914176  50.0149822
  40.3739620  92.5824236  49.3719673  58.1109715   4.3972749   5.6339395
  58.7518883   4.6063337   6.3134605  57.9731464   5.2242893   5.1721138
  87.5754929  24.5908213  42.1384525  86.9179726  25.2852845  42.0982647
  87.7957249  24.5229673  43.0674982  31.1795307  86.1737882  60.3916788
  30.4330803  86.5324186  60.8717108  31.8494393  86.0332572  61.0607910
 106.9873905   5.8299899  30.7983899 107.9367542   5.8968711  30.6961179
 106.7596054   6.5446985  31.3929796  66.5925074   8.0355769  51.8778944
  67.2042561   8.0939692  51.1440134  65.7266760   8.0605018  51.4705324
  55.1462723   4.8169634  88.9943655  54.5689274   4.5099470  88.2953344
  55.9642864   4.3393919  88.8564716  61.5005970  12.6527703  50.8102846
  62.3171234  13.1507659  50.8492088  60.8191204  13.3175480  50.7108307
  89.8821522  92.6754664  30.6935406  90.5040528  92.8171312  29.9798155
  90.0076748  91.7597353  30.9423661  50.0189686   5.1182204  31.1316800
  50.1640892   4.5823753  30.3519082  50.1482248   4.5154673  31.8639469
  72.0261383   0.7282984  49.0858269  71.1758375   1.1086318  48.8654470
  72.4572229   0.5997035  48.2409191  56.1048031   2.2766095  33.2604194
  56.0449886   2.8034708  32.4635077  55.6412315   1.4666891  33.0474424
  92.5867844  25.4341841  42.9299116  91.9736862  24.7085977  42.8121138
  93.3005524  25.0628543  43.4484386  73.7232447  22.3079133  13.4417999
  73.0612898  22.3415303  12.7512038  73.2861996  22.6743555  14.2105281
  21.5266373  47.4394425  89.1525285  21.8094971  48.3001318  88.8435968
  20.6084683  47.5614839  89.3939725  74.3056726   4.7020960  44.8517084
  74.7020674   3.8310111  44.8694468  73.3863020   4.5425725  44.6383047
  52.6378441  17.2950327  50.1359463  51.8193579  17.6585066  50.4738760
  52.9528761  16.7230213  50.8357954  70.3962278  12.5499701  38.7880087
  71.0695982  12.4282348  38.1186914  69.5696545  12.5018096  38.3077145
  57.4923874  84.9628746  54.0849113  57.4896885  85.9040891  53.9107227
  56.9269158  84.5922767  53.4073162  95.6660557  24.7450662  35.1012015
  96.3908958  24.3643069  35.5970526  96.0621071  25.4685450  34.6154499
  35.4329920  19.4167113  18.1883693  36.3430882  19.1218865  18.2205176
  34.9190712  18.6255479  18.3501673  10.3464543   6.6417086  18.4348094
  10.9477650   7.3427647  18.1834519  10.4646241   5.9718633  17.7613282
  40.2281452  81.6238414  27.5870109  39.8533274  81.6939079  28.4649801
  39.7201706  80.9313833  27.1642828  43.8600899  98.5109164  43.2444525
  43.9596344  99.4614737  43.1918907  43.6998821  98.3378058  44.1721344
  17.8777386  83.7125789  14.7157753  17.2443844  84.3519651  14.3897641
  17.3417307  83.0206954  15.1033688   2.6958119  33.0870128  45.3999138
   1.8089806  32.8470612  45.6685781   2.5793110  33.8692307  44.8606586
  46.7797711  33.3462330  87.0616405  47.0417645  33.0324789  86.1961068
  46.2768795  32.6231309  87.4364190  85.0615120   1.1000127  49.4257450
  84.4269753   1.1104959  50.1423264  85.4815388   1.9592288  49.4651747
  47.5521923 102.4348023  19.9122810  46.6492344 102.5582228  20.2049732
  48.0856682 102.7400423  20.6460762  83.5131645   6.2172461  46.1673403
  83.8317394   6.4578182  45.2973557  82.7041721   6.7178333  46.2730503
 104.3503380  18.2431567  54.8786545 104.7337914  17.8101528  54.1159582
 103.4667301  18.4825563  54.5990896  55.7088470  34.3326974  16.5429461
  56.5892029  34.5203567  16.8685114  55.8282614  33.6007977  15.9377229
  89.8085403  39.8538208  31.9770312  89.0787983  39.2561364  32.1397901
  90.0032520  40.2330494  32.8340626  23.5654579   4.9291661  19.1794682
  23.4043251   4.5091391  18.3345735  23.4620510   5.8647168  19.0054417
  53.6507679  75.7701551  11.6571784  53.4660984  74.8598730  11.8885136
  52.9225613  76.2651502  12.0325756  92.3445129  31.0020041  82.6722240
  91.9894409  31.8156171  82.3141956  91.5764141  30.4506159  82.8213215
  62.7449108 100.8093964   4.9255112  62.5112225 101.2821563   5.7243365
  62.0944000 100.1100796   4.8620859  73.0822897   3.5632405  39.3428755
  72.1957970   3.7482393  39.0328145  73.4177494   2.9072917  38.7317872
  30.5060602  97.4762218  36.0740209  31.2006689  97.5647955  35.4214096
  30.6824661  98.1718048  36.7074847  33.1382920 102.7355108  40.7544231
  33.0735422 102.5468027  39.8182440  33.4755541 101.9264764  41.1390638
   5.1320111  41.3779974  35.1949382   4.5572792  41.2235212  34.4452357
   4.7495591  40.8573008  35.9012222  85.4096317  15.0342381  59.9319553
  86.3460255  14.9124420  60.0886965  85.2131176  15.8915949  60.3095150
  80.4869175  13.6175346  32.4694443  80.3999233  12.6728988  32.3416638
  80.1870632  13.9994323  31.6445351 100.7690239  26.9503307  30.7767463
 101.3975048  26.2333465  30.6920576 100.2822208  26.9407201  29.9526310
  69.9467897  21.1122227  51.0940361  69.1450024  21.3160896  50.6125736
  69.6755362  20.4701138  51.7500496   4.6576916  16.4678752  42.2482538
   4.6792828  15.8374715  41.5282822   4.1568123  16.0290790  42.9358721
  93.9964008  12.6707768  37.5507021  94.5286274  13.1088185  36.8865538
  93.4983826  12.0142019  37.0637560  83.0788231  26.9728518  18.0679691
  82.9114056  27.7556181  17.5431061  83.5752678  27.2915769  18.8217545
  91.5584660  21.6360688  47.8468609  92.3450565  21.3369203  47.3907661
  91.7715549  21.5465522  48.7757349  83.8982105  15.5783617  40.5191660
  83.6891174  15.0962830  41.3192368  84.2558479  14.9165297  39.9273014
  75.6440712  80.8742367   6.3524604  76.1455513  80.9268295   5.5388325
  74.9209095  81.4889227   6.2282550  78.8611008  82.6704275   6.5908962
  78.1432701  82.7557718   5.9634715  79.3516613  81.9051706   6.2909555
  98.3907509  10.2188551  61.0754299  99.1803551  10.7572722  61.1288548
  97.8903008  10.4493022  61.8581724  83.1370926  19.2574167  13.7481618
  82.4276447  19.8731852  13.5644901  82.6925087  18.4425032  13.9815974
  70.1302767  15.3687418  15.2050030  70.2194691  15.5558014  14.2705047
  70.7107306  15.9988940  15.6318712  26.5263773 100.4684510  25.1786208
  25.8133484 101.0117752  25.5142212  26.2141777 100.1628529  24.3269324
  99.1778755  41.0154581  27.2612715  99.7441006  40.2925253  27.5314331
  98.2897568  40.6685972  27.3458767  89.7088337  42.6307106  22.2027421
  89.7545433  42.9856205  21.3149452  88.8725376  42.1659756  22.2321320
  74.0014458   4.5575479  27.8855634  73.6901808   4.8923391  28.7265539
  73.4118128   4.9467921  27.2397685 103.8278675  24.0652585  18.4255707
 103.3391476  24.8733997  18.2697058 104.7465801  24.3331265  18.4046686
  78.1257010  51.2314034  15.9462404  77.2960901  50.7784796  15.7951200
  78.0004072  51.6898489  16.7771196 102.5829506  11.4568126  15.2539980
 102.3190975  12.0989716  14.5950246 102.1941853  10.6343937  14.9561274
  78.3004522  20.3369260  11.0135162  78.9717388  20.2919078  11.6943800
  78.7063122  20.8436513  10.3101420  81.0977818  97.0366179  61.7805767
  81.4135720  96.4097141  61.1298084  80.3195549  97.4251043  61.3809872
  79.5494270  21.3354635  34.1815472  78.6754036  21.2194920  33.8089037
  79.5036697  22.1725154  34.6435905  76.9010925  24.6475554  21.1267161
  77.1827364  24.5166945  22.0321369  77.4065876  25.4024720  20.8253741
 107.9961744  72.6622423  78.9497666 108.9393536  72.5621470  78.8208227
 107.6317087  72.6585802  78.0646770 101.0318470  30.9549284  29.9846101
 101.3936520  31.2278891  29.1415048 100.4519749  30.2239299  29.7710299
  75.6160307   5.4219836  34.0208721  75.8791018   5.7651323  34.8748469
  74.9526691   6.0377234  33.7093401  75.9514618  34.2111540  36.9795465
  76.5034485  34.8593998  37.4169469  76.2987709  33.3671165  37.2680116
  63.1327416  92.9939710  21.8041205  62.6080490  92.2736358  21.4547634
  63.1585671  92.8357469  22.7478004  90.7059479  34.7263288  23.9358044
  91.5429115  35.1246476  23.6969209  90.5198765  35.0665736  24.8109293
   8.0733635  61.2169405  79.1786115   8.5652974  61.5045782  78.4095232
   8.5396245  60.4387053  79.4838791  75.8278179  35.0223589  24.8514676
  75.7998228  35.0656319  23.8956547  76.6804075  35.3907394  25.0830317
  95.1383686  42.1420956   2.9050291  95.8433914  42.5181437   3.4320566
  94.9883080  41.2775993   3.2876033  51.0255957  33.1526279  26.9714832
  50.4797935  33.1307125  26.1854458  50.7335186  32.4007988  27.4869204
  89.3895054  27.2355437  25.6005502  89.8161983  26.6756558  26.2491584
  89.6306324  28.1257081  25.8568573  83.1807327  22.6300097  25.9796309
  83.2550526  21.8679214  25.4052353  84.0016460  23.1058788  25.8536148
  74.9258280  16.9750845  29.2653751  74.3506241  16.6278732  29.9471521
  75.3233051  16.1995173  28.8694739  40.9648609  23.2314086  11.7195368
  41.9126225  23.3049726  11.6074312  40.7344007  23.9608598  12.2948825
   3.2759129  53.0104876  29.1599798   3.1333672  53.8547230  29.5879769
   2.5150906  52.8995037  28.5898447   7.0915415  97.3683318  88.0818889
   6.1680081  97.4505576  87.8440690   7.1341040  96.5668877  88.6035239
  66.8891598  92.1812414  22.6524401  67.6330067  92.2023736  23.2545018
  66.3844563  92.9655801  22.8676701  25.1839291  10.0417221  75.9730911
  24.3554531  10.5147827  75.8951521  25.8267342  10.7180333  76.1867142
  66.8547869   3.0566758  45.4472113  66.4118195   2.5813028  44.7443342
  67.7733755   3.0794635  45.1790571  54.4100332  34.9772739  24.0034175
  53.8583374  34.4647932  24.5943713  55.1041365  34.3732285  23.7396264
  74.1041470   8.6428249   1.8169752  73.8917971   7.8870559   2.3646545
  74.2378902   9.3587232   2.4381302 105.7822132  10.5540371  43.3841228
 105.8321667  10.0950980  42.5456047 105.7454109  11.4809346  43.1480312
  89.0877834  80.7246431  84.8695176  89.8314348  80.1239332  84.8209052
  88.7134806  80.7142075  83.9885985   7.4308064  60.7438066  88.6311623
   7.7605393  60.2177795  89.3597273   7.7111485  61.6362771  88.8339793
  90.7242203  15.9160733  49.3019867  90.0946617  15.5669260  48.6711264
  90.3491688  16.7528331  49.5765734  85.6800842  80.1058006  20.4591823
  86.4941502  80.4449177  20.0869799  85.1923847  79.7733879  19.7056043
 106.4396921  53.9975011  82.9133026 107.2719208  53.5319649  82.8302173
 106.4062468  54.2663210  83.8313709  66.8143940  24.4402409  19.3349314
  66.6970396  24.7188306  20.2431417  67.5725079  23.8563895  19.3595505
 105.8801746  33.9112926   1.2532014 105.6051731  33.0209064   1.4718774
 106.4924812  34.1505384   1.9489577  91.2113380  46.3350058   7.6228362
  90.4776669  46.4334106   8.2297027  91.9561958  46.1130476   8.1815380
  52.9839970  93.3263593  52.9487181  53.3551098  94.2013382  52.8350401
  52.8853966  93.2292151  53.8958597  51.2464882  95.2937966  39.5413661
  50.3842331  94.9932640  39.2542815  51.0803105  96.1434769  39.9496031
  90.7816410  44.3317270   1.1918940  89.8435020  44.3711329   1.0059539
  90.9162903  43.4586620   1.5604727  55.8720067  84.4257458  83.2575731
  55.2040722  83.7531980  83.3909033  55.9154751  84.8892578  84.0939330
  91.4638042  31.4081526  31.9645715  90.8970547  31.2586975  32.7213311
  90.8935547  31.2727499  31.2077999  20.2422558  52.0650387  55.4532862
  20.8238541  51.9125986  54.7084761  20.3824269  51.3102627  56.0250378
  78.7950611   5.6379980  49.6356440  78.8169098   4.7604087  50.0172043
  78.3235836   6.1672115  50.2789736  99.7757912  30.5666184  24.8508859
  99.4797611  30.2205300  24.0089703  99.7981834  29.8039269  25.4288411
  69.1933012  48.6545563  21.3356018  68.9764738  49.5025301  20.9480953
  70.1284266  48.5445738  21.1633134  86.9951820  33.7079000  30.1140618
  86.4943504  34.4799113  29.8506474  86.9015217  33.6750078  31.0661006
  49.6223309  81.8283924  86.9698170  50.0392201  82.5522050  87.4372940
  50.2888634  81.5262421  86.3528286  35.8892952  17.6334822  33.8259697
  36.6634022  18.1953704  33.7902784  36.0668980  17.0264220  34.5444179
  61.6085529  23.5477734  17.7176630  62.0731211  23.2453465  16.9373119
  62.2676134  23.5278177  18.4115458  80.0361156  36.0680985  20.8101559
  80.0263023  35.8193135  21.7344093  80.2785397  36.9940853  20.8139348
  69.1877224  85.9380420  88.6780924  69.8738148  86.4451440  89.1121036
  69.5005848  85.8315047  87.7797611  11.5640786  92.3891123  65.4121463
  12.5059845  92.2375067  65.4899232  11.3335564  92.8752526  66.2038271
 105.4743004  34.6449041  27.0833373 105.3998375  35.5957413  27.0021343
 106.1198807  34.5136476  27.7777648  67.4531984  40.4354095  31.2334323
  68.0717754  40.8748579  30.6499267  67.2470236  39.6133018  30.7886219
  99.1053581  19.3375266  14.5485449  98.2921219  19.0319157  14.9503839
  99.3025589  20.1577258  15.0008941  86.9765927  99.5266642  56.3047123
  86.1734654  99.0164115  56.4089060  86.7395474 100.2243110  55.6937027
  90.6769085  25.7213497  19.6967149  91.4128494  26.2245393  20.0451851
  90.4550552  25.1061630  20.3956795  68.0755854  30.8114386  39.5862126
  68.0218077  30.4301357  38.7098837  69.0120411  30.8264303  39.7838402
   3.9560734  30.8426833  20.6860137   3.1173168  30.9154654  20.2305722
   4.4855820  31.5552545  20.3281093 100.4787636  32.4818707  50.3374004
  99.8117828  32.2409296  50.9802914 101.0482502  31.7143679  50.2839804
  58.7512779  38.2240462  21.8550825  59.4301701  37.5495911  21.8339348
  57.9550171  37.7546644  22.1038437  87.7673531  54.9548483   2.0925179
  87.4296093  55.4002190   1.3154669  88.6213303  55.3584242   2.2476883
  93.0215168  60.6914806  36.7541647  92.3699570  60.7265949  36.0538316
  93.8462639  60.5064821  36.3049412  86.3756371  21.0924029  23.7810230
  87.0348167  21.4371967  23.1786680  86.5394115  21.5525293  24.6042418
 105.4371643  44.5824480  17.4407303 106.3255596  44.9228334  17.5461912
 105.5151749  43.6471128  17.6286006  11.8772065   1.9953741  61.6800213
  11.9234406   2.9514343  61.6734171  11.9854580   1.7440061  60.7627821
  55.8004738  96.0361474  44.1094065  55.3128601  96.6721230  44.6328640
  56.5778328  96.5121489  43.8172340 101.3729858  23.0559206   9.8579389
 101.7696857  23.4999824   9.1084969 100.8231926  22.3753715   9.4695830
  17.4063717  25.1371264  57.3863697  16.4855038  25.3604579  57.2508812
  17.4867092  24.2419839  57.0569801  89.8755646  10.4025555  15.6998050
  89.4131756   9.5769888  15.8442581  90.3586102  10.5519247  16.5125728
 103.6190796  62.3438978  32.2676015 103.1942654  63.0127859  32.8045893
 103.9179516  61.6865444  32.8959250   8.8316952  27.2600245  31.1088443
   9.7227989  27.3837185  30.7819486   8.7402855  26.3117838  31.2021852
  77.5665998  21.8826747  36.2746286  77.2746181  21.0649204  35.8718181
  76.7670822  22.3994970  36.3741136  26.6087471  25.7883406  31.5581560
  26.2570797  25.0466800  31.0657144  26.6327702  26.5061855  30.9254241
  80.3357124  18.7908280  68.1964016  79.6289635  18.7671959  67.5512791
  80.3994751  19.7121203  68.4481668  56.1534595  32.0503807  10.4624891
  55.9913540  31.7050362   9.5845985  56.9863939  32.5159001  10.3867090
  85.8776951   5.8655947  41.5434742  86.5449047   5.9831202  40.8672619
  85.5031872   5.0033581  41.3631344 103.5187531  12.4318230  45.6389713
 103.2556438  12.7687216  44.7825241 103.2983780  13.1342936  46.2506914
   8.2703720  44.4026899  22.9268026   9.0632283  43.9883375  22.5863194
   8.5895096  45.0497675  23.5558271  91.8801689  18.4299576  38.6433959
  92.0171547  17.4828970  38.6200833  91.0478783  18.5403323  39.1031051
 102.6311398  47.9396534  17.3515213 103.4464836  47.7279997  17.8061116
 102.7581978  47.6053143  16.4636528  21.8331372  21.4018607  16.3539195
  20.8767258  21.3654304  16.3680327  22.0371758  22.0950508  15.7261562
   6.9858967  23.5798597  16.7305386   7.3856579  24.3203449  16.2743497
   7.4274765  22.8104186  16.3710940  19.6363770   9.3574423  64.2752743
  20.2154671   8.6245179  64.0662098  18.7633168   8.9676070  64.3202209
  96.9483662  19.6830952  20.7989907  96.6460228  20.3664613  21.3971782
  97.4223423  20.1560664  20.1149774  27.3456719  83.6739668  87.6724860
  26.4080575  83.5646494  87.8311218  27.5722744  82.9610213  87.0753324
  82.4152279  35.5319786  19.6112537  82.7361107  34.6799254  19.9066734
  81.5115833  35.5694151  19.9247158  83.7154007  15.5060422  53.9440823
  83.8730907  16.3067234  54.4443560  84.4923592  14.9691820  54.1001463
 108.8849354  49.1093636  20.5604649 108.2976913  49.8652172  20.5681992
 109.6401119  49.3874598  21.0787439  34.8892739  62.8250512  88.1893355
  35.4439213  62.8066393  88.9692430  35.0676682  61.9941410  87.7488882
  80.6979656  12.1548069  22.0789623  81.2376785  11.5292478  21.5956283
  80.6972504  12.9417360  21.5340114 107.9704857  40.2997732  20.8074045
 108.6699581  40.4717302  21.4378023 108.4253883  40.1621342  19.9765289
  91.8958664  31.0012341  88.0758667  92.7880096  31.2370348  88.3302689
  91.8152428  30.0775385  88.3135986  91.0551453  57.4852705  79.4202757
  90.6469250  57.8092766  80.2231503  91.5248680  56.6966772  79.6917963
  54.8761036  88.1084212  84.6005862  55.7049611  88.5167535  84.3505992
  55.0469353  87.1680530  84.5480655  66.1222792  27.3396826  35.8106327
  66.1553574  26.9431353  34.9400663  65.2176714  27.2136021  36.0970378
  60.7745361  52.2126532   5.5316341  61.4841652  52.4082518   6.1435187
  61.0005713  52.6995993   4.7391540  59.5337178 100.6044247  19.3817556
  60.2087857 101.1486999  18.9764333  59.8621060 100.4332243  20.2644134
   9.2745053   0.2129905   1.9888179  10.2176796   0.3714447   2.0281841
   8.9785324   0.7163031   1.2303274  26.2669407  22.7914500  21.1518455
  25.9404599  22.6924849  22.0461869  25.7423722  22.1789145  20.6362247
  89.5654011   4.4464481  46.3572645  89.5409966   5.3932607  46.4957619
  89.4953537   4.3412957  45.4084396   9.3216263   9.8352724  38.2569551
   9.8584782   9.3899173  37.6014471   9.9294888  10.0348377  38.9689350
  39.8513558  46.0065790  77.5761621  40.4406979  45.8160230  78.3059566
  40.4122784  45.9762397  76.8011289   9.0894162   8.1490093  54.7956753
   9.5922123   7.8301769  54.0461588   8.6689221   7.3665619  55.1523161
  65.9195089  14.5067501  45.0652742  65.9695911  15.1416373  45.7798672
  66.0450315  13.6580265  45.4897070  70.9936024   0.7444260  82.0589839
  70.0815464   0.7214138  82.3485618  71.4350773   0.0948116  82.6061051
  59.8141911  65.3515693  83.3483134  59.9622014  64.4148930  83.4785538
  58.8619092  65.4404577  83.3095168  10.1789128  33.7501669  16.1358953
  10.4402672  34.5618653  16.5707195   9.6381031  33.2957959  16.7818868
  91.2929630  32.7177238  38.9957809  91.5519524  33.6262441  38.8416862
  90.7934189  32.7461863  39.8117924  98.7137867  97.3354416  23.4697723
  99.2616249  97.1954863  22.6974320  99.2760445  97.8143506  24.0786576
  80.3474712  34.8670626  17.4881804  79.5448971  34.8601818  18.0097783
  80.5789757  35.7931185  17.4170840  53.4300518  33.1582522  26.0848975
  52.6027012  32.9430223  26.5154767  53.7800169  32.3132563  25.8025193
  72.9234648  53.5294867  10.8777928  73.7054443  53.2123470  10.4259431
  72.8528929  54.4481277  10.6182683  48.1368113  37.6168418  23.8302684
  48.5014772  38.1063795  24.5675611  47.3139286  37.2592354  24.1637564
  82.7795483 102.4584802  19.9789047  82.9710652 101.9605169  19.1841829
  83.1945873 101.9577028  20.6811857   9.8567139  19.3012083  33.6477304
   9.7777973  18.3811522  33.3957314   9.3734967  19.7768831  32.9721117
  92.7537346  23.3981776  26.7222881  92.3646545  23.1397390  27.5577855
  93.5696125  22.8999639  26.6737223   8.5778652  22.2072053   6.3011950
   7.9047238  22.5424838   5.7089961   8.5778271  22.8208637   7.0358062
  63.9593172  43.3666754  27.0607948  64.1034269  44.2542744  27.3888731
  63.6405230  42.8793478  27.8204751  17.0747410   9.4722116  21.2344694
  17.5038277   8.9701933  20.5415821  17.3093640   9.0149146  22.0419717
  84.2218758  95.9629946  36.1519480  84.7349526  95.3792762  36.7107463
  83.5540177  96.3257628  36.7338347  79.7293282  21.6437531  16.7310190
  79.0178776  22.2841120  16.7283320  80.2802372  21.8946910  15.9895563
  57.3614311  40.0832272  15.4786134  57.0198774  39.2347026  15.1965237
  56.5813398  40.6032419  15.6716740  99.3757820  16.5588546  16.8550324
  99.8205662  17.4063730  16.8444133  98.5294437  16.7376471  17.2648704
   8.9641129  18.3609569  19.8354697   8.4033142  17.6444221  19.5382869
   9.4274079  18.0040371  20.5932283  56.8065596  49.2076969  26.7176723
  55.8857346  49.0690184  26.9392180  57.2879410  48.6726856  27.3487544
  93.7668705   1.4291488  14.5580852  93.2960415   0.6713644  14.2112195
  93.3554459   1.5994650  15.4054081  15.6366478  26.2273383  23.7540221
  14.7998272  26.2846375  23.2928538  15.9452282  25.3379726  23.5807061
  92.4494457  13.4328282  48.8930845  92.2848892  14.2533565  48.4284496
  93.0934143  13.6620140  49.5631695 107.8345585  34.6698356  57.7015352
 107.2638702  33.9909458  57.3414564 108.3961201  34.9239087  56.9691849
   6.1449181  16.2748730   2.0427200   6.5438305  16.3011861   2.9124373
   6.0033261  17.1940541   1.8162511  54.5055462  93.9482759  45.3849363
  55.1099755  94.4940536  44.8819160  54.0088059  94.5693164  45.9176493
 100.9737301  70.4229355  29.7864580 101.6501141  69.8575592  30.1594043
 101.4571762  71.0592556  29.2595744  71.1441565  30.2880597  17.5873339
  70.3277397  30.7849598  17.5345135  70.8662176  29.3881965  17.7583003
  13.4012829  23.1218266  37.2017789  13.8746487  22.2906518  37.2379470
  13.7179314  23.6110282  37.9611516 108.1547737  30.8015227   1.4782371
 108.6053562  29.9570537   1.4695723 107.2320938  30.5820227   1.3488960
  95.9803581  40.3546953  50.0273800  95.4123306  40.5555773  50.7711744
  96.5897465  39.6968365  50.3622007  90.8045197  46.8236160  40.0840855
  90.4343414  47.4844217  39.4988179  90.3200245  46.9303083  40.9026957
 104.1654301  42.8152704   5.3279960 104.0417576  42.2967768   6.1230445
 103.7203884  42.3148632   4.6440667  88.2863235  26.7504478  22.1231246
  89.2059612  26.9301891  22.3185563  88.3128548  26.1432672  21.3836241
  14.6514546  51.4738941  19.4324994  14.1609131  51.4175987  20.2525210
  14.4985043  52.3665714  19.1227078  74.6439314  14.8145199  17.4664545
  74.0745449  15.4671896  17.8739524  74.0567112  14.2920375  16.9201779
  57.5327253  50.6233406  23.9434552  57.7574015  49.8339891  23.4508324
  57.6794672  50.3843832  24.8586607  27.0186077  33.5646987  12.5639045
  27.9285847  33.2887292  12.4542820  26.5441262  33.1063914  11.8703270
  90.6104565  23.6834598  17.7067602  91.2493515  23.0214334  17.9708874
  90.6592274  24.3501592  18.3918619 107.4019527  27.3260117   4.3399572
 107.8021431  27.2657752   3.4725195 106.4818573  27.1054006   4.1950849
  32.2113469 101.9358071  72.7803295  33.0320408 101.4764651  72.6022975
  31.7442658 101.9241770  71.9449072  70.2678276   2.3899719  72.9631357
  70.7711865   1.5840885  72.8473251  70.2491070   2.7878401  72.0927446
  78.2905626  57.0866919   3.5115719  77.4740505  57.0239210   4.0071544
  78.5679102  56.1785364   3.3908853 106.9985485  32.7397156   5.3568965
 107.3618317  31.8583655   5.4433799 107.4210835  33.2423496   6.0533535
 100.1125622  29.2704582  36.1919332 100.7296085  29.8195934  36.6756010
 100.3829670  28.3740234  36.3907313  91.4460182  29.7955489   8.4571093
  90.9335709  29.5930481   7.6744032  91.7208195  28.9416099   8.7910342
  55.7767559  77.8833090  45.1143456  55.4830624  77.0098483  44.8554134
  55.0265480  78.2622324  45.5724239  76.0050656  93.8083463   1.0771762
  76.7700554  93.2540678   1.2314510  75.2583863  93.2556885   1.3079979
 102.3084164  46.5236521  24.8445034 101.5594769  47.0356417  24.5392418
 102.4989128  45.9242964  24.1228986  23.7254368  41.7140102  18.6498535
  22.8447663  41.5423298  18.9832675  24.1271912  42.2757196  19.3126559
  29.6820675  30.6348324  49.2921638  29.2477261  31.4816332  49.3946695
  29.3517910  30.1067090  50.0189590 108.3381081   9.7616374  22.5903058
 108.7760448   9.1320729  23.1630969 109.0434742  10.3218079  22.2664380
  79.8770571  31.8881297  30.9427261  80.1307106  31.7207670  30.0350475
  79.5332575  31.0506558  31.2536478 104.6987247  20.3249812  48.3012676
 105.4491138  20.6420946  47.7986908 104.2740059  21.1195135  48.6246300
  19.3034397  16.2307334   1.6426912  18.8818299  15.6588495   2.2841138
  19.4502198  17.0512331   2.1132933   1.4428173  36.9490957  61.5416288
   1.5265881  37.5789165  62.2575474   1.0606705  36.1721087  61.9496584
  82.5682926  29.0947843  36.5261483  81.9135380  29.6094012  36.9980669
  82.4169540  28.1940722  36.8125796   7.9992520  19.0323758  28.5989141
   8.1953083  19.0035570  27.6624537   8.7999092  18.7208223  29.0209484
  67.7604103   9.8303562   8.3130866  67.2281885   9.0812713   8.0450523
  67.7873755   9.7754532   9.2683303  93.8536930  62.3226643  51.3733912
  93.9815521  61.5116501  50.8813143  93.3248806  62.8726768  50.7953978
  62.4541330   3.2159787  19.8662281  63.3205175   2.8342465  20.0072694
  62.1147728   3.3719712  20.7475519 108.5051823  39.3200588  34.4149065
 108.5354710  38.9334440  35.2900314 108.0766201  40.1665115  34.5417166
 108.8446045  29.3470144  46.1688948 108.1418800  29.4134831  45.5223703
 109.6442032  29.5209193  45.6722784  88.2930851  17.0366013  41.2380886
  88.2039928  16.1972666  40.7866335  87.4528122  17.4735570  41.0993624
  22.5876557  14.1653812  56.6036558  22.4051510  14.0261412  55.6743908
  23.3777176  14.7056878  56.6142416  27.1492245  70.6363305  87.6892771
  27.6197293  71.4532741  87.8549902  27.2549679  70.4853233  86.7499975
  60.3059841  96.7998688  20.2401686  60.9844853  97.3999988  20.5495262
  60.7896019  96.0533546  19.8865366  26.1924603  77.6595482  64.3344848
  25.4714730  77.6165374  63.7063424  26.9447281  77.3053869  63.8602583
  71.8932295  30.4949450  46.7508936  71.2474155  30.9644365  46.2229443
  71.9403553  30.9906960  47.5683546  50.3965902  22.6706839  22.1224284
  50.3750324  23.4187007  22.7192831  51.2637758  22.2864413  22.2511959
  15.5543076  13.8521826  30.2249146  15.9709202  13.1514227  29.7233152
  15.9339176  13.7782884  31.1005068  89.1084576  16.8331015  27.8286409
  88.4455299  16.1453354  27.8897548  89.9415779  16.3721383  27.9268909
   7.6834046  13.3601534  55.4222059   6.7898308  13.2406938  55.7439232
   7.9647671  14.1932249  55.8004284  69.5627785  20.3274202  35.2151012
  68.9962196  20.9568858  34.7689915  69.0268469  19.5385075  35.2964854
  32.2548806  43.1575203  17.6886487  33.1082379  43.5846996  17.6142573
  32.0698201  42.8368092  16.8059671  85.8570290  26.0674548  59.1469574
  85.9697723  25.7316875  58.2576990  85.6512833  26.9947505  59.0285540
  60.2401329  76.0809170  24.1408396  60.6541611  76.0175978  23.2801390
  59.5033432  76.6775452  24.0088892  21.1153065  19.6295571  33.7910366
  21.2999760  18.7586927  34.1427827  21.7493855  20.2017999  34.2231345
   3.7221657   7.0321816  21.0531878   3.4165226   6.2262940  20.6368208
   2.9568516   7.3645455  21.5222979  80.5083656  16.2551010  44.9921322
  80.3341103  15.9567976  45.8848143  79.6407032  16.3831437  44.6087265
  83.6599064  25.4419303  33.4487247  84.3944454  25.8992624  33.8580227
  83.6143208  24.6031451  33.9076304  83.9086056  22.1480656  17.4025226
  84.4979763  21.3938284  17.4018717  83.2539272  21.9398832  18.0690742
  87.9387951  45.8271456  20.6886506  87.4038029  46.0646152  19.9312663
  88.1074238  44.8913383  20.5788255  44.8152211  93.9365014  85.2574177
  44.7830060  93.2394513  85.9126435  45.4902985  94.5349511  85.5773585
  75.4884291  49.9773550  12.8164303  74.8759651  49.2994452  13.1020069
  76.2879658  49.4999170  12.5950181  69.0471817   2.9340431  84.1090529
  69.2057205   2.3470089  84.8483031  69.8990418   3.0142662  83.6799430
  69.2711687  24.9476409  59.9120951  69.6616650  24.0744042  59.9468040
  69.5222092  25.3553867  60.7409191  99.0654945  33.0851769  10.8749139
  99.5647526  33.0542088  10.0588202  99.3850040  33.8691759  11.3215566
  86.0861778  56.9484425  15.0366330  85.2601147  56.5972185  15.3690469
  85.8251762  57.5870800  14.3731189  87.9796600  60.1599836  14.9124348
  87.0869541  60.4608536  14.7427940  88.0095482  60.0203133  15.8589196
  15.8242546  41.4737511  42.3666859  16.0656678  42.3781633  42.5666571
  15.1461636  41.5496922  41.6953802  56.2541533  54.0800762  28.4100628
  57.1061373  54.1216183  28.8443756  56.3385916  53.3596849  27.7854514
   3.5028206  59.4306374   8.0463535   3.1707894  58.6173201   7.6662135
   2.7247177  59.9759054   8.1624657  95.2718067  74.8421717  23.1029081
  96.0273075  74.5276356  22.6063967  95.0849819  74.1395235  23.7254977
  93.5560799  38.1343365  24.0083671  93.6175823  37.6553965  24.8348451
  93.6359787  39.0548301  24.2584515  77.8075552  36.7390537   7.2417027
  78.7626743  36.7243695   7.1803832  77.6036930  37.6037478   7.5980395
  39.1494706  78.1356200  73.2939415  40.0568726  77.8640207  73.1557565
  38.6713173  77.7577909  72.5558083  58.4233284  23.8579202  28.7754893
  59.3702316  23.7259865  28.7286615  58.0718279  23.3263493  28.0612659
  96.2421989  11.6541588  26.6086960  95.5384445  12.0068359  26.0641098
  96.5346432  12.3989284  27.1340799  77.7316475  16.5538120   9.9983799
  78.6810255  16.6007817  10.1111138  77.4779654  15.7427931  10.4389799
  30.2566864  56.7595997  83.2242315  30.3645661  57.0745995  84.1216551
  29.5788720  56.0866015  83.2864718  26.1540448  46.6083241  52.2338152
  25.4278885  46.4240599  51.6380119  25.9709393  46.0744143  53.0068922
  99.6388245  37.8936934  10.7630146  99.9612427  37.6808929   9.8872334
  99.2440605  38.7605977  10.6688178  49.4243481  88.0659803  83.3567856
  48.7222149  87.4401458  83.5344838  50.0735238  87.8979238  84.0398322
   1.0359989  18.3843958  43.0709171   0.2600895  17.9959917  42.6667500
   0.7032620  18.8267434  43.8518429  84.1294956  48.5238886   9.8151571
  84.8567581  48.0019188  10.1540756  83.3597755  47.9672384   9.9330896
  88.8510227  23.2865477  40.1782131  89.6534634  23.7682700  40.3788614
  88.1785965  23.7077427  40.7136202  89.8937702  37.3952699  35.4298401
  89.6366692  38.2008481  35.8783627  90.7315826  37.6072192  35.0182748
  18.7730458  60.0385263  89.0761543  18.1795647  59.4847693  88.5688424
  19.4499352  60.2992644  88.4515983  57.9014349  34.6462083   3.2297859
  58.5840321  34.1525412   2.7752706  58.3109331  34.9217367   4.0499234
  65.3802824  22.0251822  25.7173443  64.9097347  21.1991453  25.6056237
  64.9270391  22.6390672  25.1394558 107.1676540  33.8352323  16.8830800
 107.3601532  32.9203343  17.0883465 106.3027191  33.8119864  16.4737082
  92.4081516  76.8449736   7.3423463  92.7965355  76.0334063   7.0156157
  91.6667461  76.5580273   7.8754681  83.5445118  23.1820416  21.3425708
  84.0908337  23.3152604  20.5679607  84.1452789  23.2870626  22.0803189
  82.7668095  16.3773942  43.5253620  81.9609070  16.3421261  44.0406322
  82.6687622  17.1582723  42.9805231  12.1493851  52.5858116  77.6422548
  12.6849781  52.0489311  78.2263136  11.2727772  52.5552273  78.0254745
  31.0209728  99.3547749  39.1706944  31.5283037 100.1031916  38.8564920
  30.1218439  99.6791740  39.2212749  18.8651310  19.9601364  11.5188706
  19.1054570  19.7792780  10.6101525  17.9093109  19.9097359  11.5284157
  30.0241791  37.0144296  11.9590044  29.2740570  37.5944090  11.8279445
  29.6917664  36.3168621  12.5239193  21.9210659  15.1706111  27.1241236
  22.2757279  16.0104597  26.8323970  22.2285115  14.5412040  26.4717793
  81.4888573  17.4795198   7.0713550  82.0239544  17.5557506   7.8613460
  81.0965347  18.3459127   6.9632852  85.4328728  22.7031755  29.9728203
  85.9547520  21.9007993  29.9643445  84.5604897  22.4244308  29.6944880
  18.0870678  84.7740992  87.0129922  17.5071099  85.2934297  86.4560624
  18.8233235  84.5461305  86.4453663  81.9913864  17.1196175  16.9551277
  82.3950195  16.6286731  16.2393904  81.0771942  17.2211659  16.6902280
 104.5675278  41.3630915  16.2189269 105.4376030  41.7563295  16.2865472
 104.3985462  41.0041857  17.0900548  17.5579884  57.2946133  85.3061690
  17.4028924  56.6120436  85.9590672  18.1174042  56.8769749  84.6512942
   3.7353360   8.6361462   7.2608393   3.7033688   8.1287545   8.0718654
   4.6408497   8.5530734   6.9618869  12.0976292   4.6864450  57.4155474
  11.8053376   5.5121452  57.8015757  11.4495312   4.0441483  57.7047777
  80.7604027  24.7459650  18.5296786  80.0682926  25.0761247  17.9567802
  81.5457344  25.2183223  18.2533288 107.2720242  61.3156414  11.9103682
 106.5128899  61.4134598  11.3355887 107.1237564  61.9487429  12.6128125
  12.3842083  17.5000584  68.8588762  13.3344590  17.5757098  68.9457035
  12.1259056  16.9056189  69.5632553  90.6540489  67.2540045  25.7188106
  91.3877392  67.2045755  26.3315749  90.5269146  66.3522053  25.4241419
   2.0496689  20.8624291  19.2448437   2.9618870  20.6722283  19.4637287
   1.8266999  21.6203547  19.7852767   4.9659001  30.8119345  34.7363186
   4.9122940  31.6834521  34.3441272   5.1323067  30.2266073  33.9974451
  83.5677052  63.8635111  23.9453602  84.0484142  64.1728687  24.7131109
  83.2678986  62.9873228  24.1875148  26.4951756  92.0434769  59.6441333
  26.6006711  91.0933217  59.5961230  26.9823601  92.2992858  60.4273598
   6.6581475  21.9566917  50.0745535   6.6722523  21.0005593  50.0315952
   6.9254528  22.2397017  49.2000914   0.5910717  16.5108764  52.2744751
  -0.3624405  16.5775192  52.3255825   0.8839737  17.4032342  52.0897198
 103.3856964  29.1166377  74.8467731 102.8869057  29.8786497  74.5521975
 103.3410263  29.1558480  75.8021212  40.6682637  63.3916768  87.4501145
  40.1004460  62.8353580  86.9169037  40.1200631  63.6547979  88.1893498
  95.0556564  22.8338766  39.9994206  94.6391487  23.5016251  39.4545698
  94.4255829  22.1135640  40.0190687  19.3790757  20.1160717  31.7311502
  19.1571842  21.0246015  31.9350314  19.9849640  19.8559892  32.4250484
 108.8346767   3.1023455  34.5335722 109.1473961   3.3091486  35.4142928
 109.6194077   3.1367689  33.9865422 107.1266460  30.4538107  54.5434284
 106.7163086  29.5900774  54.5007277 107.9546547  30.3033328  54.9994802
  69.0701056  91.1525822  69.0349054  69.4007587  90.6181335  68.3129168
  69.5526266  91.9761944  68.9637566  93.2583046  38.1860137  38.1913376
  93.7929630  38.8046241  38.6890268  92.3574638  38.3956575  38.4378576
  91.0065842  65.7429790  28.8308978  90.6130314  65.3963709  28.0301452
  91.7361736  66.2820005  28.5253072   4.7086083  16.6434646  36.9650531
   3.8139283  16.9142497  36.7589855   4.6186100  16.0895848  37.7405214
 107.6673698  80.8149433  50.9976768 108.3736324  81.3867092  50.6968260
 107.8750038  80.6405258  51.9156599  98.5540485  41.8238211  17.3535466
  98.9076710  41.1121464  16.8199742  99.2823792  42.4378729  17.4469018
  16.1471020  36.3582134  34.7207594  15.4505955  36.5474367  34.0920305
  15.6966053  35.9561229  35.4634571  89.6770954  53.0142021  40.7455873
  89.8312950  53.8930416  41.0921383  90.1637650  52.4362230  41.3332319
  27.4153649  24.7422338  58.5220575  27.9995095  23.9984989  58.3741808
  26.7316948  24.3991113  59.0974617   6.0982548  71.7403173  48.3881664
   6.3059174  71.8846798  47.4649858   5.1440750  71.6677094  48.4105206
  73.8387918  12.2004986  19.2881262  74.5697689  12.7901018  19.4732440
  73.3890915  12.6025355  18.5449123  18.1982647  32.8934741   0.4666676
  18.9481770  33.2804179   0.0148483  17.8603398  32.2403812  -0.1461165
  19.8638665  21.6209793  22.2114754  18.9912926  21.3705468  22.5150156
  19.9908959  22.5065136  22.5519514  86.4248085  32.7449822  20.6347489
  87.1383286  32.2727752  20.2056384  86.7977524  33.6004066  20.8478141
  92.7179146  41.9350004  35.0111222  93.0515766  41.2949419  34.3824553
  92.1925068  42.5369835  34.4840550  81.4466381  58.0319452  20.1123333
  81.9109917  57.6190424  19.3842423  80.7996845  58.5992002  19.6929133
  13.9685013  87.4909218  61.5251367  13.3399250  88.1855782  61.7215316
  13.8772824  86.8732294  62.2506492  -0.2422775  45.9385824  41.2700796
   0.6606518  46.1839628  41.4719057  -0.2128757  44.9884462  41.1577892
  18.9369252  93.6069640  81.7107438  18.0494835  93.9655884  81.7029713
  19.5020154  94.3688258  81.8390624 106.6192055  55.1129007  32.6424122
 105.6989002  54.8564816  32.7017021 106.6005611  56.0697460  32.6243973
  80.8082199  39.9461627  15.7996488  81.5065384  39.3281817  16.0157025
  80.5890369  39.7509480  14.8885596  78.1383848  64.7013807  25.2075100
  78.5755301  63.8674831  25.3799939  78.4413338  65.2798748  25.9073639
  70.9643316  60.5280256  26.3343096  71.2623405  59.8310184  26.9187808
  70.6404829  60.0687313  25.5594540  72.3604679  53.6560822  53.9286804
  72.1679878  54.5921087  53.9837933  71.8717957  53.2679272  54.6544647
  47.6068642  90.4891118  89.2032382  48.0195858  90.6248911  88.3503246
  47.9974511  89.6794876  89.5321481  92.9349613  51.9818068  46.3861847
  92.2290039  52.1561050  47.0086622  92.4870396  51.6970634  45.5896187
  84.1512775  58.2706642  81.8715286  84.8502254  58.0484724  81.2564373
  83.5797596  57.5028086  81.8721962  89.1547680  47.5116777   9.4670659
  89.2071533  46.7528152  10.0481164  89.9130058  48.0463743   9.7024751
  77.6180363  22.9977131  17.4715889  77.5512028  23.9512634  17.4215090
  76.7207241  22.6879382  17.3486924  93.9366627  23.2402539  10.3182840
  93.1753826  22.6621580  10.3682518  93.9592934  23.6804748  11.1679459
  63.4234501  98.8749777  19.0636253  64.3360878  99.1447498  19.1663575
  63.2698513  98.2688089  19.7883308   9.7181069  34.5726943  41.9068050
   9.7331368  34.8451996  40.9893370   9.3324410  35.3156447  42.3710394
  92.8422451  41.1683655  15.1195812  92.8892899  40.5424452  14.3969178
  91.9864655  41.0101748  15.5181301  19.4598614  32.9189420  43.5342836
  19.8390995  33.7654233  43.7706804  19.5535027  32.3856974  44.3236589
  16.4561688  24.0792394  27.8336835  16.9056259  24.7475457  27.3163939
  15.5812393  24.0268517  27.4490047  91.6077210  91.0928117  49.0222168
  91.4136387  90.3496193  49.5933867  91.1491371  91.8303477  49.4246721
  99.2010975  56.3565493  18.4466684  98.5051155  55.7550669  18.7113643
 100.0086784  55.8579540  18.5709631  94.8315144  52.3730373  24.6161103
  95.0740719  52.3665476  23.6901736  95.4478073  51.7683697  25.0293851
 101.0587692  78.8543415   1.4225861 101.2415504  78.5830688   2.3221627
 101.5540600  79.6659184   1.3118336  18.3432041  26.7161441  35.3602409
  17.7557503  26.1758709  34.8318172  18.2248246  26.3949251  36.2541294
  77.1121670  20.8379051  75.9876494  77.2889782  21.6863272  75.5812662
  76.9114090  20.2577517  75.2532451  96.1606884  74.6016216  27.1716619
  95.3400517  74.1595888  26.9539714  96.4544964  74.1777086  27.9780149
  11.1497055  35.8880043  13.9320862  11.9087349  36.4692497  13.8844967
  10.6052910  36.2612534  14.6252942  37.2571694  32.3337507  33.1832886
  37.9333054  31.9280005  33.7259078  37.4525105  32.0360661  32.2947741
  97.5182247  56.2035942  16.3005042  98.1277657  56.1297226  17.0348239
  97.1113873  55.3393364  16.2390625  77.0770311  73.6966467  55.6964397
  77.0660877  73.0902338  56.4369631  76.7516565  73.1801939  54.9591160
  18.9519726  17.2831213  32.9334021  18.7328278  17.7948737  33.7120652
  19.0764366  17.9362178  32.2447753  91.8355465  37.8388095  22.0056200
  92.3429203  37.9635930  21.2035990  92.4496841  38.0410218  22.7114415
  37.9818108  77.5144418  70.7717841  37.2672131  77.2510918  70.1919322
  38.6716988  76.8711504  70.6091170  12.8358303  19.0475595  10.1610029
  13.1074845  19.7202337   9.5365477  12.2685372  18.4659803   9.6548653
  97.4229050  26.5158749  37.6574206  97.1327972  26.7076039  36.7656183
  97.4593449  25.5601978  37.6971793  94.0872192  32.5152326  28.3962560
  94.2539120  33.4573054  28.3655095  94.4309807  32.1839738  27.5665998
  92.7876091  28.5121751  28.5039997  93.7303448  28.4894276  28.3398271
  92.3918533  28.4727621  27.6333356   6.1686074  40.0022936  14.1872799
   7.1219097  40.0878286  14.1992033   5.9123646  40.2995777  13.3142447
 101.4792442  36.2229466  21.2963104 101.0045338  36.0523391  22.1098065
 101.0165787  36.9608688  20.8992624 101.1758423  61.7838240  39.1421080
 100.6759262  61.0658979  38.7536550 101.8037510  61.3523769  39.7216058
 101.0162354  72.8798246   4.6649227 100.1205826  72.5928116   4.4869775
 101.5128231  72.6073647   3.8932985  12.6703106  62.1162319  55.6347513
  11.7395150  62.2978783  55.5049324  12.6980625  61.2051630  55.9270000
  99.7720528  28.3443928  15.8523524  99.3896961  27.4689913  15.7914460
  99.3450737  28.8413310  15.1545143  91.1162949  48.8769054  25.6041765
  91.7909622  48.9610004  24.9303937  90.2963352  49.0626907  25.1465893
   7.1099188  92.4377354  82.5752090   6.4458468  93.1184777  82.4664234
   6.9078925  91.7951926  81.8950914  16.9160496  36.4887381   2.4657276
  16.7656170  36.7351794   3.3783445  17.6135575  35.8344650   2.5061655
   1.8900143  65.1308060  25.1788712   1.2781369  65.8645535  25.1201510
   1.9332920  64.9292469  26.1136103 104.8485088  44.4768381  31.5287113
 104.8890972  44.6671629  30.5915022 104.5921516  43.5557747  31.5751839
  93.5604382  16.9240129  30.2332878  93.2091713  16.5217936  29.4388962
  94.0235806  16.2134087  30.6768870 104.2682838  45.5060387  34.0008736
 104.6101665  45.2779245  33.1364012 104.8575306  45.0676966  34.6147776
  73.8810682  15.3938925  34.6440959  74.0793371  15.8847404  35.4415846
  73.0545187  14.9504960  34.8350167  87.3000908   6.0021138  17.6061106
  87.5171185   6.1399221  16.6840792  86.7729187   5.2031827  17.6112640
  15.0492035  54.3309069  18.6370683  15.7947384  53.9007807  18.2182658
  15.4202687  54.7522163  19.4123363  77.0537903  96.2445983  84.1532307
  77.0918992  96.9356211  84.8144929  76.2225773  95.7998713  84.3191739
  51.2548590  33.9817023  57.1193218  50.6435919  33.8676953  57.8470516
  50.8142376  34.5939946  56.5301037  84.7783947   8.3858001  24.5311737
  83.8388062   8.5636610  24.5731854  85.1897526   9.2044669  24.8082972
 105.6308556  45.4823112  22.5542212 106.3720322  45.8271742  22.0562601
 105.9787464  44.7076607  22.9959440  24.0787827  31.7094684  28.6329031
  24.8157440  31.6125131  29.2359853  23.7103878  32.5680876  28.8409662
  32.0604550  29.8622990  24.6890926  32.0530068  29.7145367  25.6347919
  32.7325474  30.5308104  24.5564079  98.4449863  11.0344708   5.1095575
  97.9001999  11.7116404   5.5106562  97.8612423  10.5907333   4.4942728
 101.6417694   4.2351657  40.6555176 101.8740273   4.5721298  41.5208149
 102.3990917   3.7131462  40.3905725  94.7315121   6.1884058  21.3408375
  94.0143204   6.4840209  20.7800651  95.5247211   6.4436233  20.8697438
   9.4515168  15.4121792   3.0445376   9.3957650  15.9093440   2.2284797
  10.1393162  14.7659254   2.8847679  80.4826927  24.7665834  21.1891270
  79.8676395  25.4997635  21.1695027  80.6403160  24.5614481  20.2675486
  89.8614597  32.9120684   6.3836491  89.3909931  32.7791929   7.2065943
  89.8172855  32.0635748   5.9428102  33.2110058  60.6663990  59.2002916
  33.9843499  61.0589790  58.7952614  32.8691803  60.0692463  58.5348606
  17.4681984  48.2367277   3.9622879  17.8119503  48.8711119   4.5912749
  18.2460915  47.8736973   3.5388154  10.2021649  88.6383065  86.3873287
  10.6273415  89.4870123  86.2642156   9.8530343  88.6722716  87.2779373
  20.1137196  27.0433569  60.3308296  20.0467335  26.1318660  60.0463438
  20.9980713  27.1179748  60.6894064   4.1710125  51.8027210   4.3827295
   3.2598721  51.9799709   4.6164790   4.5413052  51.3863468   5.1610303
  99.2764091  45.8805990  26.1793685  99.6108913  46.7640018  26.0245848
  99.2760372  45.4697418  25.3148293  13.9262139  16.9121313  26.6585422
  14.0958439  16.0787225  26.2193513  14.1898571  16.7624271  27.5664568
  91.7645931  52.2584772  30.6251550  91.7102146  52.3257732  29.6718740
  92.4149323  51.5734577  30.7801938  12.3099076  73.5192013  13.8483906
  12.4855648  72.9427814  14.5921087  13.1587159  73.9113998  13.6436176
  55.4494740   4.4768259  84.8238604  55.9592034   3.6677095  84.7822224
  56.0573746   5.1248190  85.1799368 108.8085270  56.0206985  42.2722483
 109.6764374  56.2906933  41.9721556 108.5932255  55.2615070  41.7304802
   4.5016514  39.8284006  37.8574920   4.6764218  38.8976312  37.7183604
   3.6301457  39.8520041  38.2526517  16.1934315   8.9066881   2.6813370
  15.8603798   9.8039806   2.6944143  15.5640827   8.4099662   3.2042390
  28.9029251  59.3376875  40.7789373  29.6784149  59.7361231  40.3838444
  29.2290341  58.9158154  41.5738583  30.4502045   6.2158608  32.9396510
  30.5166279   5.4033720  32.4379730  31.3579403   6.4830303  33.0841231
   5.5027806  11.3895488  53.9766932   4.7413288  11.8091750  54.3771076
   6.2548195  11.8085134  54.3951941 106.3666439  51.8065262  31.0181308
 105.7704544  52.1306038  31.6932344 106.0412407  52.1935558  30.2053857
  34.1081368  71.2745810  58.6098146  34.1653763  71.1957502  57.6575899
  33.7467705  70.4364538  58.8982391  72.4359274  62.2794342  21.2250304
  71.5654278  62.6696157  21.1461377  72.9432964  62.6812077  20.5197740
  90.1390171  55.0928402  33.0104995  90.9318829  55.6002378  32.8368831
  89.9002171  55.3215313  33.9087772   0.0332867  38.0753684  36.7781591
   0.0808178  37.1195292  36.7967916   0.1582085  38.3392000  37.6897621
  12.4029957  26.1101627   2.3573984  12.7856671  25.7162690   3.1413940
  11.4590584  26.0881305   2.5146341  64.4158318  78.0005821  87.4369624
  63.6227086  78.5017737  87.6266785  64.9746850  78.1379946  88.2018379
 101.8179893  53.1276035  34.0899277 100.9540272  52.8846836  33.7570858
 101.6832352  53.2661390  35.0274134  98.1129742  89.4582939  23.8104391
  98.4527397  90.0158882  24.5103502  98.0610561  90.0352573  23.0484366
 104.7030354  77.5939178  44.2023039 104.9400902  76.8126774  43.7026072
 103.8029289  77.4331427  44.4854736  47.8963410  47.5557041  26.8519044
  47.8798233  48.5060263  26.9652557  47.9837929  47.2100258  27.7402115
  70.4395437  22.4771619  26.8067384  70.6660795  21.8961573  26.0805535
  70.0170517  21.9056416  27.4479055  32.6748444  10.0827047  77.5238745
  32.3349596   9.2290041  77.2557251  33.5491968   9.8957941  77.8656463
  87.2203922  65.1896095  39.8747039  87.1463394  65.6061840  40.7333136
  86.4746189  65.5280066  39.3791890   2.7597653  22.6427364  43.1282043
   2.8874909  21.7721057  42.7514744   2.5998436  23.2092166  42.3733807
  29.5762287  84.3593216  28.9792013  30.3139626  83.8853836  28.5953140
  29.2090641  83.7515736  29.6211195  21.4446865  84.0688419  19.7221541
  21.2782704  83.3544350  20.3371048  20.6549298  84.1094780  19.1828263
  67.2414160  27.1770263  12.7530468  68.0925655  27.5849938  12.9122376
  66.7541695  27.8284550  12.2486031  13.2372795  34.3123794  13.1180561
  13.0689083  34.5244288  12.1999514  12.4586045  34.6204472  13.5817242
  17.2537743 102.6958084  17.6570857  17.8859364 102.7472782  18.3739924
  16.5247284 102.1902561  18.0164516  37.7038360  46.1658907  60.7712221
  37.6228213  45.5893660  61.5310192  38.2059669  46.9151974  61.0915852
  63.8316725  64.5511153  14.5249326  63.4174775  64.4373742  13.6695154
  64.2582988  65.4063859  14.4726427  83.6643002   8.8272182   7.9909380
  83.4280286   7.9205123   8.1866415  83.8976250   9.2025319   8.8400133
   4.5361122  18.6098472  23.7726457   3.6700758  18.5054866  24.1667516
   4.7886309  17.7243129  23.5113199  60.4934762  13.7642661  14.1659792
  60.2778575  12.8325120  14.2056615  60.0728354  14.0734950  13.3636911
  31.9468649  91.4640596  22.3815973  31.1679273  91.8370226  22.7943761
  32.2541024  92.1486929  21.7873628  13.6004709  85.8521965  11.6403730
  12.8862070  86.0040000  12.2592600  13.3252739  86.3025883  10.8418520
  94.8959960  56.8569183  33.3104372  95.1943244  56.3606834  32.5482130
  95.6727410  56.9351149  33.8643169  57.5076232  13.3325712  18.2675226
  57.5663815  12.5235597  17.7593095  57.1186874  13.9663402  17.6647813
  13.9559793  51.8278408  73.7414169  13.0698895  51.8583965  73.3806610
  13.8931835  52.3008299  74.5712137  97.5031127  39.8532391  84.6820259
  98.2916821  39.6597123  85.1889229  97.8310932  40.1664305  83.8390732
  36.6594958  60.6280422  88.7953568  36.5620017  60.8244324  89.7271061
  36.3232350  59.7367239  88.7019920  53.5860931  98.2959965  59.5231111
  53.3055149  97.4052360  59.7329862  54.5382952  98.2353905  59.4464929
  30.3742336  81.9430020  24.7584779  30.1555614  81.0576108  24.4677980
  30.3719376  81.8887546  25.7141359  26.5900968  78.7620190  41.2317712
  26.8578027  79.4805816  41.8046816  27.4128501  78.3749512  40.9326227
  80.2745382   5.3273765  29.6369417  79.8578016   6.1710779  29.4616182
  79.8101357   4.9849645  30.4006918  79.3772624  28.2461110  44.4465120
  78.6946944  27.6386968  44.7317846  79.6932421  27.8804294  43.6202772
 102.7952716  15.8232633  28.5918005 102.7856419  16.7769185  28.6734922
 102.8012321  15.5055705  29.4947202   5.5698359  68.4786081  59.8239708
   5.8091062  67.8064394  59.1858721   4.7118515  68.2057285  60.1489830
 109.2134092  18.0616371  10.4701193 108.4670684  17.6088230  10.8627565
 108.8979957  18.9516250  10.3130586  21.6795349  62.7989483  80.4824066
  21.7433977  63.5136318  81.1159515  20.8042836  62.4360037  80.6181908
  46.8647538  99.8725489  31.7506845  46.3919179  99.2143133  31.2413843
  46.7424654  99.6041229  32.6613004  -0.0976554  84.5078555  11.4713533
  -0.1371638  85.4124633  11.7817552   0.4927834  84.0698615  12.0843656
 102.6611268  88.2566741  53.3280428 103.0782640  88.7155655  54.0571840
 103.1716573  87.4532988  53.2271536  98.8118265   8.1549159  11.7879827
  98.3548663   7.5964109  12.4168642  99.0429804   7.5667516  11.0690458
  52.5545942  72.3567202  23.7334688  53.3583020  72.0475152  23.3155210
  52.1952235  72.9958132  23.1181295  90.4197750  49.0002529   1.5059526
  90.9894106  49.1520206   2.2600896  90.6431434  49.7001640   0.8923776
  13.6216843  50.5633163  53.0322886  12.6930213  50.4644012  52.8224468
  13.9550042  49.6669149  53.0722427  78.5681490   2.5016824   5.0188692
  78.9534596   3.1308023   4.4089754  78.0370299   1.9275705   4.4670160
   3.5758566  98.0601910  23.4517820   4.2610143  97.4751642  23.1284673
   3.5658263  97.9172829  24.3981989 104.1221727  57.1068001  84.4076538
 103.2445468  57.4526978  84.2453003 104.3882300  57.5074911  85.2352333
 104.9546526  54.1677761  80.4158688 104.4946818  54.9217033  80.7849979
 105.6159462  53.9461613  81.0714722  94.9012992  47.1006862   8.4850557
  94.2265413  46.4443294   8.6586054  95.3647444  46.7700759   7.7155454
  39.6642836  90.6482723  17.2983415  39.7912385  91.2183144  16.5399511
  40.0976320  91.1070660  18.0180318   7.0970058  52.1746159  72.9794216
   6.2770438  52.0585823  72.4993896   7.1174216  53.1065655  73.1968689
  51.9118378  13.0046455   2.9472883  52.0986221  12.5488845   3.7680299
  51.0095141  12.7625505   2.7388723   1.0446130  53.8016224  78.3437777
   1.1264304  54.5128775  77.7084398   1.7832235  53.2235718  78.1526232
  96.6795434  65.8096313  69.7098398  95.9282495  65.4896450  70.2092361
  96.3273956  65.9938765  68.8390493  88.0612061  25.0082866  12.2716959
  88.0116758  24.1545526  11.8416746  87.6699743  24.8654262  13.1335313
   0.9229245  78.3173704  57.2307777   1.1549790  77.8956127  58.0581236
   0.2242738  78.9295721  57.4617147  52.8654907  35.3522293   9.6770342
  53.4458683  35.4831401  10.4268701  52.9922507  34.4353191   9.4332464
  14.3106282  54.3127918  67.2475815  14.2389536  54.4691896  68.1891966
  13.5726929  53.7383604  67.0433426  15.0991033  72.6374677  59.5016153
  14.6967291  72.4153331  60.3412492  14.4086288  72.4832490  58.8568742
  36.5321231  27.9126620  67.7719116  36.3643098  27.8043771  66.8357801
  37.2086287  28.5883117  67.8173876  68.0861238   2.3820726  21.6468866
  68.9306421   2.8251068  21.7289693  68.3077604   1.4940111  21.3667829
  92.0031641  25.6695024  15.4561002  91.2540362  25.7290260  16.0489710
  92.5734172  26.3925401  15.7173689  80.4968051  20.3345577  13.0166109
  80.0189594  19.8902265  13.7169416  80.5748681  21.2400381  13.3169992
  59.0487670 101.2925270  15.7679613  59.6394919 101.6290453  15.0941522
  59.4478272 100.4682281  16.0463865  69.3875978   8.6491290  42.9442556
  70.1692495   8.9895097  42.5090654  69.5447600   7.7077285  43.0170400
  54.9683568  33.7732784   3.3848055  54.8255787  32.8636924   3.1230886
  55.9058008  33.9158145   3.2539899  55.7368550  13.1214944  41.8585546
  56.5103052  12.7915422  41.4012392  55.1391671  13.3850232  41.1588724
 107.0919678  35.9841529  18.6768778 106.7554710  36.5101138  17.9513700
 107.2662423  35.1261321  18.2900198  42.2674536  93.9969566   5.1514681
  41.8973027  93.6359718   4.3459184  41.6459804  93.7450626   5.8345087
  66.3994411   4.8056690   8.0766637  65.5461392   4.9276821   8.4928663
  67.0266435   4.8514978   8.7982996 100.6395013  48.7436533  81.0874939
  99.7028912  48.5585165  81.1561775 100.9902258  48.5282707  81.9516850
  55.8503817  81.5124562  26.7312677  56.6751431  81.2640121  27.1487386
  55.3727912  81.9897893  27.4097211  62.7091632  21.7410175  52.4699838
  62.4965284  22.6427642  52.2294290  61.9260118  21.4216844  52.9182394
  50.3681158  97.4128225  46.6447885  49.9252211  98.2612970  46.6577585
  49.7046040  96.7916801  46.9450624  34.9285980  99.5868662  31.8520124
  35.0498623  98.8001182  31.3204534  35.3886444  99.3967798  32.6695974
  12.9385408  18.8610975  20.8294828  12.9024729  19.3612520  21.6448267
  12.7582296  17.9589359  21.0937364  86.4045892  20.5280534  17.9045255
  86.1889610  20.6006471  18.8342912  85.9139738  19.7631065  17.6038892
  98.8306392  46.6492605  69.1100454  98.7154092  47.4545097  69.6145535
  98.1209100  46.6652679  68.4679699  56.2385581  21.1941806  57.9554327
  56.0183856  21.9053117  58.5571439  55.7423399  21.3905231  57.1607931
  23.0568242  34.5437741  77.2669458  23.6106539  33.9930630  76.7135715
  22.6765490  33.9382267  77.9032898  73.5450641   3.2629959  16.2053068
  74.1864545   3.9389602  15.9863908  73.7533455   2.5361196  15.6183679
 100.2125878  51.8680477  71.2345219 101.1063613  52.1474123  71.4329100
 100.0758667  52.1311283  70.3243971  58.8088737  45.3256790  27.7980478
  58.9195988  45.1047603  28.7227972  58.8754950  46.2801448  27.7701719
 107.4358178  50.6015110  69.2618561 107.0631218  51.4518976  69.0291023
 107.1850858  50.4723883  70.1765680  73.1303190  98.2655361  10.6595857
  73.2038044  99.2186287  10.6101091  74.0356945  97.9571464  10.6973226
  19.1929972  61.7632961  80.2649879  18.7990820  61.3161802  81.0140896
  18.4475648  62.0395231  79.7318268  11.5636170  63.6564779  53.1701612
  11.5427125  62.7083540  53.0403280  12.2289169  63.9676666  52.5563431
  37.3329386  91.8028715   7.4140031  37.8588347  92.3265531   6.8094976
  37.9703529  91.2586000   7.8762872  65.7678220  15.4264299  29.0525205
  65.6461302  14.7420637  29.7106035  66.6177396  15.8129970  29.2633207
  49.7613834  93.8312891  18.9137228  48.8959049  93.4389618  19.0288789
  49.8460900  94.4433525  19.6447714  44.6933078  97.7736261  21.7204626
  43.9832561  97.2978952  22.1514375  45.4746281  97.5458506  22.2243364
  56.3841865   1.6437045  19.4593389  56.9443963   1.4380828  20.2077444
  55.7655690   2.2927657  19.7943933  91.9399573  51.5754700  58.5033751
  91.7708541  52.4461746  58.8632584  91.4031399  51.5350437  57.7119064
  28.0500412  50.4955196  82.4323177  27.4741745  50.7267475  83.1611156
  28.4330440  51.3281679  82.1562004   3.9511034  66.5598488  50.2146292
   4.7399879  66.3000774  50.6904554   4.2405686  67.2682524  49.6396446
  51.5820049  71.6076687   5.9013708  50.7983898  71.0579756   5.8972223
  51.9494056  71.5076259   5.0231702  62.3406314  68.8466742  15.1091535
  63.2012748  69.1986099  15.3364523  62.0851587  68.3275059  15.8716638
 104.5820663  34.2423335   5.2532442 105.4434130  33.8350002   5.1616247
 104.0155241  33.7385932   4.6688612  40.3414869  49.2036486  71.8379784
  40.8901882  48.4534550  71.6091442  40.8471680  49.6777630  72.4980736
  30.5235505  60.0689316  84.9231434  31.2105846  60.6370306  84.5746040
  30.5592656  60.2032089  85.8701992  78.2062606  12.4909202  52.4470670
  79.1188947  12.6985065  52.2464616  77.8653071  12.1055166  51.6399439
  23.2033253  28.5968947  86.6800022  22.4444890  28.0186796  86.7578983
  23.7048173  28.2367110  85.9485626  19.1744149  41.5706682  57.7437735
  19.3602550  41.4568472  56.8117142  18.2915378  41.9396400  57.7686548
  97.6370109  63.8141012  58.3590031  96.8514968  64.0594339  57.8701162
  97.3046364  63.4535694  59.1810608   3.0601734  52.2144747  77.8789282
   3.8368583  52.6285696  77.5027418   3.0353087  51.3448334  77.4797583
   9.2499632  59.4113731  80.7308865   9.9735302  58.7856388  80.7646656
   9.3287730  59.9127007  81.5424824  67.2835091  14.8379175   6.7762621
  67.7718321  15.0419942   7.5738390  66.9012055  13.9764253   6.9433172
  31.0875034  62.2753811  87.3587608  31.6740894  63.0307817  87.3198128
  31.6685915  61.5173912  87.2953796 100.4410551  19.0495578  18.9552934
 100.8807108  18.7128631  19.7360380 101.1518786  19.3664495  18.3980329
  94.0299270  30.7403175  19.1822393  94.5752833  29.9726764  19.0103777
  93.1530235  30.3840629  19.3248899  22.2120451  91.1235502  12.1074731
  23.0222570  91.5939596  12.3037012  21.6384946  91.7852714  11.7209585
  14.5038831  65.3730154  86.9876480  14.5874786  65.9890032  86.2597752
  13.7624741  65.7020044  87.4958897 105.7450531   6.0811464  42.2913416
 105.4987714   5.2112476  41.9769437 104.9211667   6.5675823  42.3200281
  69.8311797  10.8156530  25.9159620  70.6915323  11.1995784  26.0851534
  69.8672769   9.9543039  26.3318975  66.8269399  38.6848251  35.2065523
  66.4859310  39.0851489  34.4067533  67.6082877  39.1964809  35.4161604
  24.8710775  33.4028482  79.5292330  25.4382682  32.9892373  78.8784981
  24.0048552  33.0311060  79.3628073   2.7165779  10.3615610  19.2384679
   3.0847963  10.0909130  18.3974035   2.1522459   9.6333829  19.4983060
  96.6039131  23.8825790   0.8555658  96.1691043  24.4113866   0.1865823
  96.1663697  23.0324212   0.8106287   6.2025696  87.7508926  70.0343847
   6.1072028  88.2668686  70.8349562   7.0353866  87.2917461  70.1431465
 107.4250281  96.1884621  25.3369577 107.2607791  95.2592590  25.1762350
 107.3446667  96.2852648  26.2858541  91.1459707 101.9810751  66.2697275
  90.4049038 101.7365625  66.8240411  91.0861706 102.9335859  66.1963518
 103.0345381  51.7933559  44.5052862 102.8793437  52.3905134  45.2371025
 103.6555256  52.2581625  43.9444256  15.2255892  94.9742201  23.3628519
  14.3407582  95.0992134  23.7058981  15.8004378  95.2511003  24.0763815
  67.0698652  17.8909961  57.0572813  66.2839440  18.3924571  57.2742994
  66.7380706  17.0507995  56.7407186  73.8258122  85.1114896   9.5599611
  73.3846830  84.6389082   8.8540609  73.1536292  85.2188471  10.2329214
  89.4759772   1.9212381  10.8936651  88.7836192   1.3274995  10.6032331
  89.3002532   2.7395097  10.4291399  61.7476628   5.6543342  11.0551222
  62.1703968   5.9618894  11.8569620  60.8198915   5.8525792  11.1822946
  68.3086509  17.7244655  17.8931673  67.5708387  18.1900970  17.4994047
  68.9530174  18.4081451  18.0764921  87.2280730  41.4275646  81.7594242
  86.5187849  40.9139013  81.3730431  88.0082477  40.8858204  81.6408062
  36.3236928  48.4507799  51.0733318  36.7110252  48.8477898  51.8534565
  36.8762708  47.6905107  50.8920050  82.1105007  15.4850475  27.1991308
  82.8052542  15.8243648  27.7634103  82.4892012  15.4958288  26.3201006
 100.0136349   4.3160907  14.6512373  99.4719336   4.9575941  15.1108701
  99.3938563   3.8155357  14.1206224 108.0749366   9.8246519  13.9685209
 108.2354925  10.3216068  14.7706945 107.4582813   9.1407720  14.2298086
 109.1533858  48.5592175  65.8332253 109.2118851  48.6590338  64.8830414
 109.0477609  49.4520330  66.1617899  81.1538068   4.5826761  20.6599195
  80.9258935   4.0722886  19.8828848  80.3409038   5.0263206  20.9019907
  50.7806013  20.0428954  17.0388086  51.0759614  19.9214879  16.1364420
  50.1648066  20.7742778  16.9929083  12.3636472  68.9460754  42.0130873
  12.8728890  68.1438303  41.8977451  11.8037319  68.7677956  42.7686977
  59.1053246  77.0142773  32.0413454  58.4230493  76.8767765  31.3842161
  58.6714886  77.5077608  32.7374036  33.1798755  88.8961461  51.2454183
  33.0596398  88.9939144  50.3008516  32.4036293  88.4182599  51.5374811
  42.5550435   1.7689840   2.4746282  42.4516151   2.1634284   3.3406217
  42.3011658   0.8541194   2.5962694  90.7894764  39.9720374  19.8812730
  90.2272389  40.7168571  19.6682794  90.2648160  39.4390098  20.4786451
 100.0795839  37.3929874   7.7711923 100.4186652  36.5935890   7.3684271
  99.6753404  37.8725997   7.0481451  27.5275371   9.8143140   1.1896093
  27.4000690  10.7601968   1.2622984  28.4429166   9.7154132   0.9278162
  38.7860982  85.8733132  34.6549947  39.5136516  86.0145500  34.0492304
  38.5351418  86.7528894  34.9371297  23.2155132  27.4682450  50.0690603
  22.9738879  26.8252611  50.7357121  23.3634877  28.2771420  50.5589819
  49.4332408  72.3100284  11.6876943  48.8180374  71.6177276  11.9295080
  49.7199868  72.0778635  10.8044584  24.0156590  85.9683111   3.4173734
  23.1296049  85.6904796   3.1851061  24.0750586  86.8694022   3.0999811
  18.6831689  48.3154297  82.2611237  19.1065705  47.4612427  82.3467255
  19.2564654  48.8092422  81.6748524  92.0746372  16.6085712   1.2325628
  91.8190048  15.7829563   1.6439493  91.2907205  17.1553031   1.2853868
   4.0377241  30.4631376  77.9327774   3.1211162  30.4472661  77.6574421
   4.0000659  30.5246091  78.8872576  17.0696986  71.0544825  76.5699720
  16.3689518  71.7048025  76.5222883  17.5911176  71.2059975  75.7816839
  85.9705005  26.9459287  34.4565160  86.4151070  26.4964382  35.1752050
  85.8017597  27.8262130  34.7924669  55.0475953  25.2600376   1.8344076
  54.6051011  24.4925729   1.4718778  54.6669731  26.0009757   1.3628442
  76.1374310  17.7747814  44.2168863  76.4672778  18.4957591  43.6805780
  76.2156103  17.0034400  43.6554964  11.9882405  65.6635904  66.9107389
  12.8736937  65.5459070  66.5667105  11.9275415  66.5997934  67.1006632
  64.2977557   7.7496425  32.3166425  63.7862746   8.1661359  31.6229875
  65.2081785   7.8618184  32.0431860  47.1945477  63.8581276  62.8416300
  47.7398014  63.7614679  63.6223888  47.4051142  63.0931187  62.3062277
  90.1212670  57.4939728  62.5210190  89.8923231  58.2497120  61.9800282
  90.1160480  57.8304863  63.4171009  75.8044068  30.9125701   5.9179170
  76.6593376  31.2099925   6.2291391  75.3417367  30.6418411   6.7109354
  65.5748533  97.2786739  27.6151998  65.8905100  96.8678120  28.4200533
  66.3698529  97.4823263  27.1225221 104.0382001   0.4242793  36.8034704
 103.4703658  -0.3319558  36.6554792 103.8295958   1.0242120  36.0873754
 103.2937611  69.5123672  56.3841677 102.6149816  69.2883158  55.7475424
 104.0928091  69.1225100  56.0295343  74.7239172  34.9855224  16.1923082
  75.3348938  34.2718212  16.0090788  74.0088818  34.8544971  15.5695779
 100.7061787  93.7171745  87.8366947 100.2627827  93.4555435  87.0297337
 100.9399636  94.6344948  87.6949215  97.4192144  57.7426529  80.4021263
  97.0708753  56.9062185  80.0934792  98.3502198  57.5750732  80.5483341
   1.4653799  78.6166334  80.6342030   0.8712595  79.3670559  80.6452847
   1.7969379  78.5868740  79.7367573  34.0688705  48.6301565  74.9766207
  34.4414544  47.8331470  75.3537035  33.6752796  48.3438587  74.1523933
  63.0898145  15.9144155  41.5207346  63.5347871  15.2444068  41.0017736
  63.5546759  15.9172145  42.3574693  94.0882028  42.5110435  84.9535751
  94.2895104  42.3642254  84.0293694  94.0016509  41.6320181  85.3224277
  23.7415981  75.5724955  84.0102005  24.1903687  76.3864708  84.2388439
  23.8842130  75.4767132  83.0685425  57.7869222  11.2251130  16.5667589
  58.4255192  10.5122320  16.5517385  57.0128665  10.8623878  16.1360605
 105.3336103  66.0042477  75.9263563 105.5860369  66.0276556  76.8493748
 104.7024192  65.2869511  75.8687830  41.5542446  79.4377735   1.3604028
  41.8629550  79.6992543   2.2279031  41.6978483  80.2093652   0.8124502
  15.2361166  36.5788102  80.2290535  15.7649815  36.7953968  80.9969234
  14.3345451  36.5817809  80.5506039   4.7509211  67.1024275  73.3532190
   5.4898328  66.9612169  73.9450788   3.9845860  66.8288660  73.8573313
 101.3908551   3.5199682  28.1624277 101.0913012   4.0211717  27.4039514
 101.1013410   4.0321390  28.9174802  92.2757492  27.5744716   1.6014631
  91.7416797  28.2349340   1.1601026  92.3475895  27.8879205   2.5030286
  92.5401248  52.8945732  87.2231293  92.8627325  53.1451893  86.3574791
  92.2129739  52.0024443  87.1077728   5.6150925  80.7196331  72.3485422
   4.7917390  80.9279919  72.7900219   6.1831057  80.3891945  73.0445290
 100.1139487  70.9755564  76.2351894  99.6760566  70.2581263  75.7771778
  99.4034560  71.5599060  76.4997053 101.8149615  64.6447992  78.4073114
 102.7386798  64.4070864  78.4877539 101.5240980  64.2080688  77.6067495
   3.4414831  65.9227848  56.9156694   2.6371941  65.4875565  57.1983910
   3.2147756  66.8524170  56.8909121  97.1129797  16.0730640  50.0491388
  97.8636549  15.8193771  50.5861337  96.6169856  16.6776172  50.6011732
  89.9158738  17.9648105   6.1774404  89.3977509  18.6651269   6.5740926
  89.3701062  17.1834556   6.2660844  96.4394880  52.7707386  85.9280396
  96.7986728  53.6572886  85.8927441  95.5642701  52.8516436  85.5489922
  54.5068549  94.7926166   3.4535558  54.1528593  95.2626684   4.2085226
  54.0353023  93.9596489   3.4473951  60.8626530   9.4741670  21.4489610
  61.1965642   9.5841257  20.5586488  61.4237592   8.8008729  21.8337495
  74.7848598  23.2512895  18.9304121  75.4249845  23.7280122  19.4588144
  73.9436012  23.6465589  19.1590555  17.0764339  56.2373495  34.1618443
  18.0160367  56.1452627  34.0040541  16.8566859  57.0975971  33.8041830
  67.1953819  10.3249875  46.6974599  67.1844009  11.0839502  47.2806318
  67.9851697  10.4403201  46.1690958  12.1418941  44.0222597  81.3704300
  12.4834287  43.2080412  81.0007858  12.0802331  44.6172237  80.6231403
  12.7860248  69.2460966  78.1333542  13.7035060  69.1407204  77.8816509
  12.7855921  69.9954844  78.7288761  56.8017291  99.4705513  24.8966558
  56.6209506  99.1329506  25.7739122  55.9756457  99.8649242  24.6168478
  69.7924064  94.6854856  25.1685293  70.3446268  95.2262142  24.6038206
  70.3584145  94.4517973  25.9042318  32.4302583 101.2491634  16.8885954
  31.8541269 100.5962065  16.4911611  32.3962061 101.9949510  16.2895353
  85.9529469  46.8574039   0.4566534  86.7272863  47.1856014   0.9137304
  86.2705038  46.6247550  -0.4158537  93.0209968  25.0815479   0.7700880
  93.9017198  24.9729720   1.1289365  92.8060732  25.9993593   0.9364088
  80.1239071  18.7113658   2.2465284  79.9401889  17.8711883   2.6667459
  80.9960327  18.6037103   1.8670042  14.4109963  90.4177359  15.4403455
  14.1307663  90.6372812  14.5518072  15.3652905  90.3677776  15.3850515
  64.0998653   8.7024824   7.5682504  63.8375679   8.8529245   8.4764345
  65.0286756   8.4772674   7.6213796  92.8497884  53.7404434  10.5857713
  92.8498480  53.9412681   9.6498735  92.3980889  54.4814102  10.9897096
  87.0730910  22.4635879  46.1984880  86.2341795  22.5920574  45.7558210
  86.9468341  22.8462592  47.0667322  82.4382154  25.6326381   6.5364130
  81.7903552  25.0423423   6.1516245  82.1546433  26.5067808   6.2686689
  26.3440561  70.4631948  65.0790834  26.3484621  71.2455177  65.6306124
  26.0767269  69.7569609  65.6673002   9.8256096  15.6850234  16.7356928
   9.0976747  16.0206643  17.2588403   9.5567163  14.7994176  16.4914949
  23.5224032  71.3362980  75.6878281  22.6727366  71.7244530  75.8967161
  24.0904069  71.5992785  76.4120102  59.5698402  13.2758705  22.6284750
  59.2285583  13.5978595  21.7941625  59.5093200  14.0274850  23.2180936
  80.9836469  13.9080421  38.4424169  80.0383339  13.9254133  38.5917909
  81.2591002  14.8190109  38.5448797  87.7185295  22.4796716  11.0996492
  88.1042097  21.7757121  11.6211088  87.0978520  22.0366994  10.5210550
  54.8117957  15.7796232  42.6570661  55.4659519  15.6986991  43.3511598
  54.8300848  14.9330083  42.2108228  91.3129402  57.5761127  82.8254986
  92.0942105  58.1277132  82.7856827  90.6068231  58.1776571  83.0616665
  94.3855379   5.5830995  10.5305917  95.2581522   5.2229778  10.6889970
  94.5128748   6.5317575  10.5385072 107.9682763  41.6648722  66.1852884
 107.7659532  41.8511248  67.1021318 108.7015316  41.0506773  66.2218142
  20.6483483  66.4335346  69.8385143  20.9302521  67.3364401  69.6917915
  20.2921295  66.1538076  68.9952469 108.7231640  40.9610367  79.0470839
 109.4364439  40.5148506  78.5905933 108.0041431  40.3291893  79.0433979
  28.7775326  79.7148228  84.0200901  28.8169384  80.0970078  83.1433773
  29.6699429  79.4133806  84.1902924  75.7916889  20.2352039   7.7790983
  75.1135630  20.8985559   7.6512582  75.6921316  19.9636642   8.6915548
 103.1542606  52.5059271  64.2518663 103.5407705  52.7356291  63.4068346
 103.9043136  52.3953772  64.8361874   6.0569835  36.3835621  60.8642483
   6.4935791  35.6490350  60.4328728   5.6991363  36.9049716  60.1457024
  77.4848802   9.6645013  12.3256834  77.3517100   9.2088453  13.1568678
  76.6353706  10.0601283  12.1306379  96.1310435  53.1037521  51.0186672
  96.8476690  52.4845743  51.1576033  95.8981169  52.9974747  50.0963402
  12.2107327  60.8039284  89.0251255  12.7859592  60.6428432  89.7730541
  12.4650371  61.6711855  88.7097931  79.2065129  13.8851301  25.0574834
  79.6376578  14.4580404  24.4233568  79.1603968  14.4066326  25.8588178
 102.3714778  32.9798404  31.0779722 102.0559475  33.8165847  30.7365949
 101.8897984  32.3204605  30.5785520  94.1252730  15.9674112  13.1830175
  93.8824222  16.2041847  12.2879274  93.7032769  16.6307012  13.7290914
  74.1818463  24.8688737   8.1860788  73.3460922  24.7199432   8.6283071
  74.7050253  25.3579942   8.8211210  47.4321005  27.7902213   1.4024027
  47.2668192  28.3783094   0.6654794  47.9637573  28.3076850   2.0072229
   5.6796345  36.6761867   4.7112138   6.3932880  36.8202011   5.3326566
   5.8998188  37.2288791   3.9613588  30.0172447  87.5717452  38.3120687
  29.1079204  87.6527884  38.5998018  30.5144231  87.4497512  39.1208704
  34.8692707  95.1714304  15.4094942  34.4287166  95.6337717  16.1225088
  34.3279976  94.3971088  15.2556093  82.1014205  40.8269588   2.6741941
  81.3582603  40.3348342   2.3252542  81.7067603  41.4751903   3.2575281
 107.1632407  14.3323747  41.4832266 107.2832844  14.3644754  40.5341203
 107.1738956  15.2494804  41.7571504  47.8902076 101.6547611  28.1391676
  48.5905503 101.6017177  27.4888284  48.3383821 101.5729549  28.9809950
  39.5839571 103.0462864  20.2899988  38.8808953 102.6226929  19.7975500
  39.7688733 102.4434116  21.0101278  63.3879565  91.0904935  55.5327852
  63.4872721  91.2231687  56.4755304  62.5558757  90.6260112  55.4426248
  27.9338961  90.2223542  15.6261022  27.0867662  90.5720213  15.3498132
  28.1769060  90.7542255  16.3839204  51.4830016  93.1974295   7.2173174
  51.5378569  94.1389349   7.3809869  51.9630467  92.7996853   7.9436739
  41.4694946  89.2323234  38.7588937  40.6912805  89.7892406  38.7375314
  41.2134727  88.4445074  38.2792814  74.4757522  67.4269819  77.0358181
  73.7583364  66.9087791  77.4005318  74.8972739  67.8227282  77.7986670
  95.5674121  30.7289020  12.8701646  95.9813664  31.5897075  12.8078039
  94.6551559  30.9172241  13.0905111  57.3491988  40.4261867   0.4401357
  57.2249351  41.2949649   0.0580175  58.2786891  40.2380744   0.3101499
  88.1403578  44.3284941  81.7471123  87.1900309  44.2549181  81.8348503
  88.4722747  43.4697723  82.0091534  40.4444073  84.2426112  15.1097257
  39.9727030  84.4519093  15.9158952  40.6084673  85.0923398  14.7007330
  45.3828955  69.2095804  87.2128296  44.9053764  69.8508787  86.6865730
  45.6177521  68.5186529  86.5933990  20.6268867  25.5409614  10.0973470
  21.3046726  25.5312435   9.4215162  20.3844436  24.6214477  10.2066572
  80.5318228  22.8572122  13.5720976  81.0742811  23.6373702  13.4566457
  79.6424911  23.1529180  13.3774717   4.4615101  99.5491388   9.5043237
   4.5726823 100.4668930   9.2561395   5.3498720  99.1927221   9.5080335
  21.3644743  44.1246223  72.1846533  20.9307194  44.5221281  72.9396915
  22.2052717  44.5782328  72.1252251 106.7983324  71.4702225  86.2316322
 106.9952939  70.8809233  86.9597530 106.5737714  70.8876944  85.5060482
   5.7544816  72.5845051  79.2911625   6.3006425  71.8048573  79.1907215
   4.8996055  72.2454977  79.5566702  96.7337534  17.5516216  41.4710100
  96.8574951  18.0354825  42.2875841  96.1013410  16.8677083  41.6913374
  78.7248275  69.3097965  25.9195955  78.3872846  68.5075466  25.5212362
  78.0556134  69.9688140  25.7349737  40.5057936  90.9531477  24.2387445
  39.8703461  91.4661744  24.7379930  40.7938813  90.2718809  24.8462923
  70.3997826  24.7444049   5.8379896  70.1684297  24.8226205   4.9124677
  70.3498856  23.8057748   6.0188539  46.3084738  91.9859531  23.0333192
  47.2567950  91.8787601  22.9596384  45.9520255  91.1269596  22.8068121
  90.3670714  34.6730510  21.2466581  90.2881072  34.1423599  22.0393522
  90.9804258  35.3684989  21.4841230   9.6353086  16.6593448  33.0892332
  10.4345163  16.6421930  33.6157377   9.8946890  16.2838403  32.2478445
   3.9613599  43.5086060  82.8229427   4.1215912  43.6295843  83.7588501
   3.8303766  44.3948603  82.4858475  82.8948377  84.2604735  12.4787958
  82.7445720  83.7085750  13.2462938  83.0143427  85.1403668  12.8361948
  17.4898123 100.8521822   6.6835554  18.3459579 101.2087324   6.9204481
  17.6803981  99.9786308   6.3417776  24.1332030  61.6343594  65.2786112
  24.9459696  61.8075609  65.7536316  23.5786700  61.1777735  65.9112692
 107.2081720  53.5456371  67.3455477 106.6169361  54.2537737  67.0901632
 107.1067173  52.8887653  66.6567373  46.4023619 102.8335789  32.0173032
  45.8604525 102.6777485  31.2438162  46.4544295 101.9808462  32.4490125
  14.7380948  66.7551804  84.5185757  14.4147813  67.6162481  84.7836494
  14.8739612  66.8307066  83.5740852   5.1489377  37.6099229  78.3742619
   4.5447674  38.0345273  77.7652311   4.6895179  37.6206636  79.2139339
  72.9938792  19.6618358  36.8850477  72.3486258  19.5071117  37.5749357
  73.7898752  19.9130479  37.3535688  67.9606110  25.3918210   9.2742117
  68.4776769  25.8091537   9.9632127  68.1140346  24.4546214   9.3940027
  49.8496721  34.2576496   3.7239320  50.3387330  34.7977821   3.1031950
  50.3842018  34.2617408   4.5179708  14.7498119  72.3196840  76.3231707
  14.8250580  72.4267197  77.2713852  14.5423436  73.1960726  75.9989262
  87.6630602  27.1048013  29.2703874  87.4167154  27.3258106  30.1685484
  88.6158178  27.0169441  29.2980726 107.1217392  12.2706024  24.4312437
 106.4753506  11.7890874  23.9149530 106.6506217  13.0423681  24.7453458
  81.3229374   4.6478502  81.4257486  81.6187671   3.8313381  81.0232217
  81.7461113   4.6587268  82.2842462  95.0809095   2.6743738   3.7742574
  95.6713078   1.9517843   3.5608919  94.6588466   2.8921930   2.9432066
   7.7604469  19.4051448  39.1835172   7.7519354  20.0127164  39.9231203
   8.5348305  19.6533290  38.6785753  29.3642139  22.8941774  78.2490969
  29.1204643  22.0067644  78.5123730  30.2456832  23.0151367  78.6020994
  82.0729057  25.8459178  12.5728758  81.5096036  26.5735284  12.8365095
  82.7325282  25.7909671  13.2643373  91.0261617  45.9031669  19.5196970
  91.2171922  45.6475440  20.4221399  91.8410358  45.7365123  19.0459497
  17.7095938 100.3597546  84.6941185  16.9228232 100.3440189  84.1491699
  18.3584630 100.8232784  84.1646385  23.7207818  83.6514473  83.9191532
  24.5728779  83.9916992  84.1919136  23.5968232  82.8636742  84.4485760
  34.7396255  44.0535975  81.6877270  34.3178844  44.8199940  82.0763111
  34.0849400  43.6992884  81.0859966  71.6924367   6.0291044  28.2659395
  71.5621736   6.0313550  29.2142255  71.1400982   5.3140251  27.9499967
  89.1348896  12.2141448   3.4903867  88.5929856  12.0358268   2.7217634
  89.8229311  11.5494863   3.4577711  39.7271769  99.2188766  11.1902578
  40.0625347  99.0115765  10.3180177  39.2285820 100.0269726  11.0693414
  53.3749948  16.3613883  12.2131975  54.1391668  16.6267005  11.7014463
  52.7525446  17.0803920  12.1044786  12.2965645 102.2222212   1.9101007
  12.6300882 101.4047125   1.5403993  11.4773463 101.9745663   2.3387964
  72.5490087  26.7830125  34.5921476  72.5605007  26.1437408  33.8798006
  72.8312083  27.6015417  34.1839750  86.5650353  11.0290138  17.4795683
  86.2768493  10.8703748  18.3784731  86.9296381  11.9138709  17.4975736
  38.9800923  97.4234035  20.4941042  39.8871838  97.4238041  20.1884611
  38.4669876  97.6607969  19.7217043  91.7366097  21.4027015   4.4364030
  91.0695097  21.8067733   4.9913175  91.5473602  21.7303554   3.5571630
  21.6124868  37.9251075  54.7347975  20.7717323  38.3097434  54.9826241
  21.7873502  37.2736740  55.4139805  40.4580225  87.2982982   9.0942438
  40.6364687  86.7782333   8.3107145  41.0260339  88.0639103   9.0080316
 101.9550202   8.6454908  15.8788355 101.7078898   8.3396760  16.7515524
 102.9028389   8.7697641  15.9280832  88.9066767  50.6898304   6.4089830
  87.9894851  50.4636860   6.5634401  88.8905357  51.2289834   5.6182344
  82.6367227  37.8800098  16.4737089  82.8738079  37.3277656  15.7286985
  83.4697030  38.2368366  16.7820127  42.7024794  95.7256603  76.6648149
  43.5824251  95.3619289  76.5666962  42.5836992  95.8135033  77.6105452
  19.7700632  77.4890232  41.4715672  19.2501068  77.8813601  40.7701731
  20.3879237  78.1750822  41.7241573  86.5258659  68.3371973  81.4362049
  85.9165419  68.5160542  82.1524143  86.8860639  69.1943073  81.2084961
  99.2936541  68.9397955  78.2904434 100.0456698  68.4209442  78.0049610
  98.5801626  68.3061504  78.3656502   5.0067127  55.6845140  64.1013861
   4.7320351  54.7676611  64.1142750   5.9620857  55.6490088  64.1486406
  69.6316273  41.4472381  11.0844858  69.3194083  41.3406650  11.9830377
  69.1983978  42.2419444  10.7730539 105.6154178   1.7418397  83.0404377
 105.4629015   1.9885744  83.9526272 105.4947971   0.7923807  83.0257607
  36.7650437  85.6482983  82.0786190  36.1370468  86.0309029  82.6913738
  36.6171169  86.1194706  81.2586594  84.0424322 102.7208689   5.8958681
  83.6002182 101.9751528   5.4901750  84.5293354 103.1290462   5.1799448
  65.4520110  15.2360288  26.4320619  65.5786130  15.4535619  27.3555811
  65.1058326  14.3436710  26.4414747  11.3875473 100.0510979  86.7779636
  11.9249392  99.4946289  87.3416805  10.4863632  99.8398590  87.0218372
 100.4944489  51.9929973  19.2710073  99.6308491  51.6670314  19.0176828
 101.1051223  51.5134899  18.7112100  80.0611523  24.4057409   5.7245119
  79.6975467  23.8760463   5.0149686  79.5583210  24.1485254   6.4973219
 106.9773695  20.7547466  17.8914602 106.9072435  20.0289813  17.2713144
 107.6603887  20.4813901  18.5038240  78.8178751  11.9894306   5.1694734
  77.9209170  12.3105232   5.2621896  79.1808847  12.0340577   6.0540445
  96.4650009   5.3093473   0.1693876  96.2177942   4.4496910   0.5101354
  96.4779518   5.8775894   0.9395654 103.4209151  68.8095999  83.4530544
 102.8790916  69.5980120  83.4857082 102.8605796  68.1507158  83.0430222
  51.5922928  23.9040828  78.6302137  52.3620605  23.5937381  78.1533766
  50.8607578  23.7446547  78.0338383  31.3580084  52.6446152  87.1694279
  31.2126040  51.7950773  87.5858116  32.3098707  52.7445316  87.1550846
  58.9563559  98.0005100  24.2871053  58.9018224  97.3844078  25.0176389
  58.1988810  98.5745504  24.4008596 108.9117572  28.6064998  33.1845911
 108.0171487  28.9048187  33.3486231 108.9286039  27.7077094  33.5134084
  63.0648445  12.1824087  84.1714573  62.4197458  12.8872789  84.1146469
  63.3547734  12.0497526  83.2689190  71.6320918  33.2307521   1.1385687
  71.7596657  32.4731342   1.7095049  71.1297216  32.8907577   0.3981168
   2.6590284  26.4223710   6.5895136   1.7152604  26.3417283   6.7274530
   2.9556664  25.5258695   6.4329107  69.2328489   4.4450847  12.8340776
  69.7470409   4.2050640  13.6049421  69.3682698   3.7223235  12.2212942
  27.6188946  92.1004200  62.1044350  27.7844739  91.5022945  62.8331709
  27.1328950  92.8261948  62.4959564  83.2499384 101.3350323  43.8815363
  83.9346670 100.6667736  43.9100702  82.7629970 101.2139776  44.6966798
  19.9575838  11.8405620  29.2537840  20.1502928  11.6279642  30.1669653
  19.9627956  12.7972928  29.2243631  64.6475528  87.0401385  16.0557230
  65.2574037  87.7574613  16.2282426  64.4331287  87.1262458  15.1268251
  42.0461512  91.4996052  84.0100670  41.9379616  91.7082214  83.0821609
  41.1727428  91.6138935  84.3846703  33.0467772  61.6943741  84.4189262
  33.5846043  61.3759422  85.1438904  33.3293200  61.1760712  83.6654186
  59.8105464  25.1175157  43.0764253  59.1680393  25.3231470  43.7554891
  59.5167432  24.2817584  42.7139051  63.8914785  32.1817771   5.3251321
  64.1985688  31.3091651   5.0792272  64.3988625  32.4029914   6.1060674
  95.3655312  20.7156459  15.9586675  95.7130096  20.5472509  15.0828035
  95.0899479  21.6320077  15.9349115  35.2917790  97.5315094  85.3131294
  34.6688318  98.2077980  85.5792332  35.0946331  96.7871761  85.8817577
 107.7092501 102.8051281  83.5281277 107.1010787 102.4950123  84.1990852
 108.4104387 102.1535778  83.5208607  46.4814804   6.0975353   7.0511301
  47.3511717   5.8367578   6.7480428  46.6454003   6.8228856   7.6538141
   0.9823045  61.6718093  15.2012594   1.0316023  61.2198345  16.0435827
   0.0499305  61.6737453  14.9846895  24.3378257  98.1520203  26.7267473
  25.1558577  98.5517767  27.0221384  24.5542251  97.7612522  25.8801706
  73.0284518  35.5604831   3.1986673  72.0833408  35.4136363   3.2364996
  73.3791773  35.0530044   3.9305742  68.4809492  22.6902667   9.1956861
  68.6494455  22.2272054   8.3750684  67.6292679  22.3628513   9.4849451
  18.5005459   8.4700052  19.1116865  19.4390806   8.6422435  19.0360887
  18.1604704   8.6037437  18.2269819  94.7591326  14.9342958   2.6020486
  93.9505813  15.1693479   3.0572755  95.1589201  15.7738534   2.3750169
  91.1861751  31.8394462  25.8640821  91.6584418  31.6622344  26.6775949
  90.7794843  32.6944820  26.0046156  55.3069148  26.3918392   8.8595064
  55.7065759  27.1879331   9.2098386  54.5359955  26.7004148   8.3833749
  67.2719787  35.4098810  75.7363653  66.4453100  35.5667985  76.1926842
  67.1534442  34.5604719  75.3112936 105.4106710  29.1339866  46.0775621
 105.0193903  29.7571460  45.4653509 105.8329413  29.6815292  46.7394788
  91.0426424  33.8669101  10.4692228  91.6310129  34.2540065   9.8210008
  91.5502272  33.8621036  11.2807520  22.4457312  69.3766928  74.2773533
  22.8513193  69.9819660  74.8981428  21.8677711  68.8345385  74.8142576
  83.5501239  78.3171073   3.2380731  83.5555599  77.4162380   2.9146059
  84.0718815  78.8038436   2.6000269  55.4749810   7.5608743  88.6280441
  55.4107677   6.7014039  89.0444851  54.6207772   7.9651464  88.7801552
  42.1655226  91.0492611  86.6988182  42.9069424  90.4948616  86.9420624
  42.1117640  90.9729385  85.7461834  80.7010487   9.1297284   7.5818784
  80.9638230   8.5228149   6.8899019  81.1585281   8.8160983   8.3619936
  21.6256046  66.2199497  88.4768200  21.5366817  66.8237257  89.2142391
  21.0684323  65.4765654  88.7073994  80.1559935  23.7725440  23.6716993
  80.2246199  24.0812913  22.7682550  80.2305905  22.8205339  23.6057813
  56.9381021  80.4523280  31.3155134  57.8191160  80.1817086  31.5739877
  56.8413471  81.3322714  31.6796167  76.3303334  18.2389490  40.9596975
  76.8399376  18.9497129  40.5706651  76.2357966  17.5983421  40.2547701
  14.3017590  81.9837570  86.2546825  14.2297399  82.9366875  86.3092041
  14.1171587  81.6784000  87.1428871  65.3284237  36.8661777  26.0448892
  65.2819768  35.9202949  25.9057100  65.7387242  37.2054569  25.2494199
   4.4683870   6.0515491  11.8383176   3.8388285   5.4806510  12.2787244
   4.8748096   5.4934684  11.1752947   6.2402996  33.8813011  26.5712984
   6.2774023  33.0294887  26.1362512   5.3079017  34.0961067  26.5981825
  16.0046518  92.1157265  84.4395733  16.1372972  91.3755226  85.0318050
  16.8861449  92.4486065  84.2710876  98.1565831  14.5971624   3.0044706
  97.4170802  14.0661708   3.3001382  98.6811826  14.7372476   3.7927683
  16.5042961  80.9386444  71.1374140  16.9170547  80.0760269  71.1793280
  17.2027493  81.5499878  71.3712025  12.2813678  79.6299601  69.3470001
  12.6467550  80.4382229  69.7067785  12.2295833  79.7892237  68.4045649
  14.7015032   2.3817912   4.9514825  15.2655395   3.1424180   4.8116930
  14.1927656   2.6010887   5.7320745  73.1443232  23.0483333  44.4487245
  72.3213004  23.0095092  44.9359186  73.3626733  23.9798919  44.4212587
   3.2275468  90.3274632  88.7536049   3.4448966  90.1205730  87.8446484
   2.8455770  89.5202637  89.0982151  75.2958854  12.3956338  26.5261896
  74.8132814  11.7266837  27.0118196  76.1205540  11.9713727  26.2892110
  85.3062556  50.8388034  23.6513479  85.8557615  51.5229312  23.2689245
  84.4230900  51.0401241  23.3419664  33.5449776   1.1778346  48.8553007
  32.6580032   1.0736123  49.1997583  33.8292631   0.2866975  48.6521299
  76.7126266  40.4978649  11.0035188  77.3279036  40.9848873  11.5516813
  75.9932769  40.2721301  11.5932710  58.4248421  38.4013072   6.5624101
  58.5303864  38.3150474   7.5098570  59.1127357  39.0127746   6.2994726
  30.2148557  75.2797985  83.4610558  29.2744088  75.4095173  83.5833740
  30.6097722  75.6175184  84.2649364  73.8845966  15.9168426  21.7047174
  74.1372353  16.6589967  22.2539194  73.3033714  15.3958122  22.2587354
  39.8003364  93.9393616  87.2893429  40.7538939  94.0085316  87.2427273
  39.5053530  94.0857410  86.3905716   2.5647584  67.7392054  81.3158607
   1.7056535  67.9141665  80.9317207   2.3711579  67.3701572  82.1775723
  49.6083187 101.9926718  15.9184511  49.5725678 102.1819094  14.9808176
  49.6762227 101.0391691  15.9679277  27.8939962  53.4243011  65.9074020
  28.4363294  54.2112732  65.8546877  27.0353770  53.7033892  65.5894136
  73.4835409  22.7264322  86.9860744  73.3380388  21.8663896  87.3802757
  73.6619972  23.3032430  87.7288246  18.3071741  38.1895152  17.0455797
  18.6521896  37.4845401  17.5934847  19.0484365  38.4541122  16.5008314
  10.5112970  52.7426577  59.2322826  11.2514973  52.1828604  59.4667149
  10.8753800  53.6278057  59.2184162   0.6126501  65.5225658  78.1124830
   0.5621301  66.4275169  77.8046846   1.4255893  65.4860306  78.6164904
  96.0028789  34.8068897  28.5748155  95.6006167  34.5822135  29.4138200
  96.9378135  34.6506969  28.7079866  70.7793759  22.6568712  88.9780140
  70.5674289  21.8051637  88.5960388  71.4735078  22.4698747  89.6100235
  60.2349947  36.4782993  17.5946195  60.9812293  37.0316688  17.8251703
  60.0378356  36.7081825  16.6865881  92.6589153  10.3083936  14.3226488
  92.6129386   9.7035972  13.5821397  92.1971951   9.8572294  15.0293977
  25.2158436  19.7794382  10.3275354  25.8366999  20.4992811  10.2152975
  25.0420793  19.4721023   9.4378240  22.0274925  82.8203011  88.8513851
  21.5857244  83.6668682  88.7851143  22.8683496  83.0204678  89.2626381
   5.3044685  12.8351966  13.9701898   4.7883495  13.3000080  14.6288259
   4.7352918  12.1229259  13.6787470  79.9515638  31.5999023  28.1557329
  80.4093549  32.1229164  27.4976213  79.0317760  31.6363708  27.8932626
  92.5403152   4.3323032  30.0571115  93.1994030   4.6371166  30.6807478
  92.3814402   3.4209291  30.3028543 100.0671289  10.5221359  17.5040681
 100.3107879  10.3693382  18.4170396 100.7308934  10.0541488  16.9974764
  88.9224218  93.3305672  27.6594789  89.8477482  93.5048607  27.8315981
  88.7729810  92.4553659  28.0171449  34.6720346  40.5551616  29.2095335
  34.2484173  40.4548255  30.0620039  34.8681864  41.4900295  29.1480978
  25.3405070  96.0475540  85.6126690  24.7691512  95.4688835  86.1175728
  25.7261014  96.6322708  86.2650871 106.9681199  71.6270018  67.3535776
 106.8047185  71.1272860  66.5536880 106.7221231  71.0321903  68.0620384
   6.0928758  20.3092328  45.3077467   5.5694231  19.9504749  44.5911462
   6.5266832  19.5474759  45.6921537  52.7494787  99.9512175  42.7663477
  51.9016503  99.9301842  43.2101686  52.9438483 100.8830049  42.6652486
  98.4415806  73.1622219  60.8919525  97.9658009  73.7989044  60.3585672
  99.2910398  73.0746603  60.4595375 101.0402343  13.4282390  18.8791235
 101.4655111  12.5798503  18.7542112 101.3491485  13.9611951  18.1464822
  44.0811036  21.3759462   5.2918584  44.0210984  22.0781843   5.9395368
  44.4804738  21.7894737   4.5265253  98.0112312  36.7967979  24.3309457
  97.3892949  36.7513744  23.6047418  98.1355951  37.7338592  24.4815214
 105.5006764  29.1944591  28.6000402 105.9696648  30.0265018  28.6631830
 106.1904023  28.5371009  28.5084303  83.4202585  29.4417945  11.8677480
  82.8686438  29.2960636  12.6363332  84.3054864  29.2312614  12.1648748
   4.2377901  53.2386255  81.5999985   4.7544205  52.5728178  81.1460972
   4.2699423  54.0014696  81.0227108 102.8562543  14.9147407   5.6982668
 103.3912823  14.2039434   5.3450830 103.2022045  15.0601331   6.5788419
  10.9071159  65.8043337  82.0588493  11.1409044  65.5881834  82.9615402
  11.0012317  66.7555523  82.0082760   4.4491562  23.8854305  10.2024610
   4.6206840  24.8265354  10.2360685   3.5059460  23.8190547  10.0535162
  79.5353488  20.4982511  20.5467088  79.0576372  21.2834398  20.2793176
  79.4309620  19.8927966  19.8127039  24.4346460  71.0400287  33.4636648
  24.9363693  71.1830799  32.6611383  25.0858578  71.0819999  34.1639478
  83.1359648  25.8691228  83.0417347  82.9949211  25.3367341  82.2588539
  83.5565542  25.2747072  83.6630249   0.9532436  28.9934818  16.8612726
   1.1636599  29.6694175  16.2170179   1.7412170  28.4519044  16.9062765
 102.1539924  35.4541961  14.2717703 101.4709566  35.2419750  14.9078901
 102.6180313  36.1972324  14.6575220 104.8840234  47.1498863  19.3694742
 105.1905463  46.2431137  19.3629034 104.9214027  47.4086849  20.2902658
  24.4392633  84.3907547  86.8528652  24.8519683  84.7660160  86.0749912
  23.8652778  83.7047100  86.5121078  15.0673565   4.8010436   9.3414076
  14.5625719   4.1728345   8.8248975  15.8302578   4.3066303   9.6410234
  61.0669110  27.0505229   3.6757047  60.2010272  27.1701280   4.0658052
  61.1621246  26.1019174   3.5901888 100.1373861  31.1324779  12.3780878
 100.7892559  30.6853763  11.8382795  99.6569679  31.6870204  11.7633493
  13.4288692 102.4368191  85.7553864  13.9789844 101.6535378  85.7643414
  12.8853452 102.3567486  86.5392303  25.4193291  47.0295421   2.9456289
  25.3345665  46.0834590   3.0638368  25.5783018  47.1405116   2.0082719
  33.7589392  21.8016235  13.6610372  33.1340250  22.3847333  14.0919645
  34.0660700  21.2222759  14.3583639 101.8789811  81.9040203  68.2320499
 101.3633825  81.6149807  67.4791527 101.2894494  82.4795532  68.7193346
   4.0777373  75.7870960  88.8823986   3.2303607  75.6632805  89.3100166
   4.0821803  75.1478386  88.1699657   0.6557545  29.5113460  26.4469106
   1.2141212  29.0202991  25.8441408  -0.1951758  29.0762702  26.3934477
   2.9308208  50.2728835   8.7115820   3.7461122  50.3633396   8.2182844
   3.1024345  49.5624534   9.3296964  86.4394627   7.8977577   9.0033682
  87.0393000   7.1567336   9.0888746  85.5682931   7.5012056   8.9968736
  81.6384075  20.8721343   6.4108904  81.9474385  21.2451688   5.5853136
  80.8033041  20.4599182   6.1897333  57.3701117  16.7786971  12.7084978
  57.7016208  16.4914981  13.5592897  57.1551380  15.9670869  12.2488268
  44.2832587   3.1082288  21.5706403  44.0258548   3.8337366  21.0017736
  43.7223027   2.3812524  21.3003214  88.6562989  24.0659562  31.7069395
  89.2454455  23.9519969  32.4526937  87.7795432  24.0581123  32.0909555
 101.1216552  56.7440224  83.7321949 100.5443175  57.2330427  84.3185139
 101.0326190  55.8333063  84.0130901  89.6655045  34.6802894  56.1158998
  88.9576588  34.2979900  56.6345842  89.3394682  35.5449382  55.8662470
   1.0508069   8.3348457  19.3164117   0.1065096   8.3572046  19.1613825
   1.3765534   7.6655809  18.7145765  62.9687027  14.1105024  66.4001806
  63.5496131  13.7791387  65.7153661  63.0163214  13.4525148  67.0937402
 101.2355206  30.6415550   7.1001012 101.4491961  30.8438484   6.1892469
 101.9315526  30.0486747   7.3834093  66.1778592  91.0767868   5.2884443
  66.8661093  90.7358315   5.8596666  66.4157842  91.9931534   5.1473863
  98.7180302  28.2063190  10.2230604  99.6700594  28.1096546  10.2460249
  98.3852646  27.3885814  10.5929334  79.8107592  51.5758506   1.6276224
  80.2063665  51.1862174   2.4073084  80.3935543  51.3231365   0.9115846
  87.7347077  96.4374352  86.9629383  87.9015363  97.3443985  87.2194958
  88.0222143  95.9191513  87.7145767 101.9877861  20.5191461   6.8558271
 102.4604652  19.8318044   6.3864000 101.3699195  20.8669607   6.2127931
  41.7885301  28.2019798  12.9071386  41.7570469  27.3953954  12.3926885
  40.9331439  28.2471172  13.3343561   6.7693933  46.4392177  15.3717382
   6.8435892  47.3127166  14.9873884   6.1825403  46.5553848  16.1189611
  60.9744596  90.1090908  73.4946442  61.8076801  90.0375652  73.9603233
  60.6588793  89.2078304  73.4285498  57.3811339   3.0095781  88.2680035
  57.0939873   2.1007074  88.3559036  57.7835559   3.0507768  87.4004841
  78.4527706  86.6260889  40.2645643  79.1390203  86.4378241  39.6243723
  78.2101558  87.5363591  40.0949247   7.5568420  73.5495043  84.5182896
   6.6500407  73.5497761  84.8247910   7.5011200  73.8312483  83.6051941
  82.5318012  25.9740440  22.1935327  81.7749516  25.5372421  21.8028791
  82.8349874  25.3685275  22.8700407  38.6096692  87.5218582  74.0656328
  39.1807604  86.8379211  74.4153738  39.0714002  87.8475094  73.2929802
 104.2042803  96.1139276  10.7585390 104.5705913  96.9943312  10.6752451
 104.1208957  95.9775045  11.7022855  18.8007987  91.8182564  38.7872553
  18.1873655  91.3871574  39.3823075  18.2428885  92.2804451  38.1616688
   8.8820204  52.8816215   6.3494260   8.0245098  53.1239597   5.9998758
   9.4431528  52.8076736   5.5774839  48.7596606  90.5113271  19.8300321
  48.9048706  89.8025873  20.4567964  48.6253928  90.0669935  18.9929063
 105.3472675  66.0878277  83.6661816 104.4287188  65.9272909  83.8823509
 105.3886945  67.0254230  83.4779453   3.3054560  96.5996742  39.9618530
   2.9289550  95.7300282  39.8269844   2.5477034  97.1754169  40.0646257
  86.1318967  38.9864055   3.3670099  86.4203689  39.8968307   3.3027609
  86.8317184  38.5469333   3.8500650  75.8599023  19.4146148  29.8691232
  75.6221069  18.5179082  29.6333177  75.5045084  19.5328895  30.7499941
  24.9074984  91.8775463  83.8371181  24.2226839  91.7100430  83.1896591
  25.1703596  92.7841949  83.6786270 109.5034072   7.1439592  14.5409734
 108.9131830   7.8269760  14.2225988 109.0244601   6.7287389  15.2582128
  22.7541041  59.5140600  87.2062397  22.7568889  58.5681295  87.0598030
  22.4648428  59.8846483  86.3724422 105.8835505  80.7739353  80.0520515
 105.8035518  81.7244339  79.9721336 106.8179194  80.6016159  79.9358988
   7.1459516  36.0184089  15.0351865   6.5741571  36.6810600  14.6476610
   7.5419363  35.5752937  14.2847974  72.3788885  37.8011981  23.7884863
  72.6169520  36.9042293  24.0230234  72.9785918  38.3485214  24.2954595
  66.7907238  63.0200672  88.5938644  66.4280224  62.3673439  89.1927242
  67.7200699  62.7990627  88.5330105 103.1247828  32.1687404   9.4895227
 103.0573199  33.1111995   9.3364294 102.2211812  31.8549720   9.4536646
  13.5146987  49.7702932  47.3774099  13.7018597  50.2736855  46.5850735
  13.9565873  50.2515936  48.0769205  71.1975335 101.6618803   3.7393148
  71.1429881 101.8428591   2.8009660  71.7728208 100.8995178   3.8031633
  84.6901140  41.7493526   1.5386732  84.8196754  40.9900085   0.9704836
  84.0720818  41.4476673   2.2044428   4.8145136  24.3794814  28.2035120
   4.4021782  25.2261821  28.0323084   5.6171831  24.3941966  27.6822240
 104.8851631   4.3749610   0.8127840 105.2273796   3.5267440   1.0950143
 104.3256567   4.1702358   0.0636060 105.5364127  86.1167908  59.8483086
 104.9325810  86.5795803  59.2674065 105.9674079  85.4751110  59.2837572
  74.2701257  74.6951294  86.7315578  73.3849348  74.8952961  87.0358658
  74.3349994  75.1295805  85.8810997  94.9224470  24.6682922  44.1621263
  95.0708315  24.0580789  44.8845251  95.6185458  25.3191940  44.2516096
  81.2553858   1.7881692  83.3014011  82.2044395   1.6638196  83.2932663
  80.9277939   1.1746706  82.6437283  14.1123593  93.8564968  44.0991783
  13.3411086  94.0157890  44.6432638  13.7890077  93.9210320  43.2005644
   2.0016393  16.2582532   9.0831144   2.3899993  16.8129722   8.4065778
   1.6283974  16.8746702   9.7131593   2.1118769  29.3984691  22.5855501
   1.5585002  30.1688568  22.7140196   3.0046853  29.7222606  22.7050455
  86.4193652   2.4959461   0.4965456  86.7087064   2.2030631  -0.3675883
  86.6663263   3.4200851   0.5313261  81.5167788  43.1742565  19.2091615
  81.9704101  42.9656307  18.3925111  80.6397871  43.4418575  18.9343889
  79.2172407 102.5272634  13.0635126  79.2033838 102.3203495  12.1290453
  79.6886228 101.7965677  13.4636552  68.6387013 102.9066112  17.1782072
  67.7049803 103.0508020  17.0245607  68.9062976 102.3071840  16.4815576
  44.5146322  87.1662807  88.1384087  45.1896334  87.1923733  88.8165855
  44.5346642  86.2655640  87.8150845  98.0354450  26.7422668   1.5692766
  98.2435367  26.2659732   2.3730619  97.2895215  27.2942058   1.8042143
  50.3997803  94.3246078  85.9389114  49.8526573  94.2809963  85.1546955
  50.7536316  93.4402561  86.0335541  92.3649476   9.8568527   6.6586168
  92.1707246   9.0807716   6.1330564  93.1256101  10.2510110   6.2316854
  96.5505693  22.8625385  10.7124097  95.6477044  22.6617376  10.4659517
  97.0560501  22.1106998  10.4034479   1.5742978   9.1173879  15.8404882
   2.3508343   9.0165512  16.3909967   1.6700753   8.4451858  15.1658018
  93.3858703  16.7968954  88.9694118  94.2473530  17.1866716  88.8205719
  93.5443519  16.1027063  89.6091080  98.5722587  24.4614068   9.1965921
  98.5508249  23.7487499   8.5579355  97.7394626  24.3901101   9.6630724
  99.8147509  29.2996971   1.2520845  99.0590117  29.0905277   1.8010194
 100.1091645  30.1548377   1.5656049  81.6038255  54.3877403   6.7414816
  82.0604692  53.5505382   6.8239839  81.8903742  54.7346202   5.8966215
  32.7286323  22.5701133   9.3548734  32.2077020  22.0317069   8.7590749
  32.2435173  22.5523702  10.1798494  68.1168197   3.5766042  70.4667807
  67.7923964   4.0897573  69.7267485  69.0159534   3.8798250  70.5926704
  78.4227896  66.0159254  86.9087887  77.5012112  66.2598133  86.9950676
  78.9035177  66.7789030  87.2297192 102.5109456  31.4289276   0.1101072
 102.2117875  30.7035152   0.6582792 101.7466781  31.6617862  -0.4170649
   8.8651928  29.0161601   3.8959463   9.1210922  29.1388980   4.8101003
   9.0056261  28.0837861   3.7310274  11.7487320  28.9147273   4.5504148
  11.4419016  29.7216789   4.9638422  11.2654957  28.2187263   4.9957235
  42.6507521  88.9269924  82.7899265  41.8709040  88.3720016  82.7830887
  42.3085117  89.8207855  82.8053570   4.4645437  38.8379661   9.2045171
   5.0410208  39.5612804   9.4509466   4.4315418  38.8730041   8.2485254
   3.2527741  52.5322620   1.5245302   2.4812158  52.7818385   1.0159643
   3.0852946  52.8804580   2.4002798  99.9545190  34.9401943  15.9176691
  99.7345779  34.0959064  16.3114126 100.0426528  35.5358020  16.6617925
  17.4899086  43.8052551   4.8929746  18.3092865  44.3000690   4.8955782
  16.9459852  44.2391578   5.5503233  82.2304058  76.7623949  64.8768854
  81.8321133  77.6326656  64.8919296  83.1717205  76.9289112  64.9262571
   3.2350477  54.0993015   6.4176328   3.0354413  53.5993663   7.2091158
   2.7645882  53.6421386   5.7205637   1.8622955  43.0745593  24.1796072
   1.7319115  43.1965629  25.1200063   2.7563104  42.7412406  24.1030176
  93.6740992   8.9810077  24.0026624  93.3348677   8.9782230  24.8977335
  92.8955076   8.9041034  23.4512003  72.7106761  99.1591862   3.4950216
  73.3625625  99.1434410   2.7942808  73.2251619  99.2279890   4.2992647
  20.1909280  85.8601379  81.7346478  19.7419620  85.1092148  81.3463497
  19.9929631  86.5883160  81.1457539  75.5558167  28.9126579  20.9775598
  75.3449688  29.4734756  21.7240484  74.7736398  28.3750526  20.8534010
  38.9045048  98.5221863  86.7045116  39.4964409  98.2427216  87.4028873
  39.4241571  98.4439182  85.9044647  98.6863515   7.2496978  29.7542532
  98.1610439   6.7833511  29.1040189  98.2875655   8.1183282  29.8060281
  39.1665062  25.2909128  12.4774797  38.3626303  25.0564138  12.9411943
  39.4416126  26.1159841  12.8772314  41.0764265  84.8367596  78.1699610
  40.2812910  84.4807148  78.5664749  40.8661795  85.7537746  77.9935884
  88.2820295 102.6543024   9.7424848  88.9070247 102.0141294  10.0827749
  87.4587892 102.4426582  10.1826151  24.5431455  40.0102607  34.0378816
  23.8872608  39.3356887  33.8618047  24.0839990  40.8362571  33.8857420
  47.3264265  82.6329899  69.5027971  47.3359203  83.5806656  69.6371317
  46.8259859  82.2910690  70.2436638  50.6863070  95.5141640  69.4637680
  50.4711008  95.1246548  70.3112411  51.3658333  96.1585236  69.6619558
 100.6780741  63.4745113   5.3704126  99.7704027  63.6708347   5.6024130
 101.1564348  64.2783443   5.5735548 102.2278570  83.4776833  48.6696394
 101.4120554  83.9312365  48.4575327 102.0063757  82.5480893  48.6145933
   7.4926933  61.2601749  21.1220606   8.1221231  61.6880981  20.5415971
   7.8554424  61.3811580  21.9995649  74.0826807  19.4286815  27.8449495
  73.3611569  18.9536516  28.2572420  74.6124995  19.7425786  28.5777433
  59.4373989  90.1062393  78.3445597  59.9141598  89.3576527  78.7030888
  60.0318384  90.4793453  77.6936674  87.2865257  45.7328693  34.2678220
  87.8922293  45.0777713  33.9211233  86.5568802  45.7360832  33.6482771
  33.6165079  67.0918552  20.8035238  34.0598711  67.6595680  20.1731546
  32.7087244  67.0615569  20.5014570  12.6366218  41.6601173  21.5529592
  13.2238945  42.3898116  21.3557871  13.0424961  41.2212936  22.3005731
  35.4365277  92.9901218  84.4020653  34.6099901  93.2796097  84.7884083
  35.3706884  93.2401562  83.4804440  35.7953835  87.8618431  84.1642761
  34.9173141  87.4926090  84.0699863  35.9610987  88.3016109  83.3303833
  12.2026285  39.9859802   3.3676298  11.2669262  40.1209823   3.2177313
  12.3595270  39.0799514   3.1016595   1.5328535  52.7270690   8.5402162
   0.6609734  52.3918334   8.7492044   2.1026906  51.9595329   8.5893209
  53.2860947  63.6277580  76.4692831  52.4218130  63.3064556  76.7262030
  53.8996887  63.0967140  76.9769526  18.6400139  98.9018917  79.1891670
  18.9366984  97.9960251  79.1019106  18.7169564  99.2651653  78.3069277
  81.2637845  34.3636981   4.4872530  82.0426033  34.9189369   4.4501073
  81.5431271  33.5331909   4.1019304  82.1556591   2.7749456  72.2889805
  81.6350769   3.2972349  72.8992605  81.5183138   2.4339117  71.6615105
   9.7675443  84.0356064  42.9857683   9.3099958  84.5155239  43.6760998
   9.0859145  83.5095119  42.5676250 102.1008704  22.6099817  41.9662054
 101.5923665  23.1621686  41.3722856 102.3355124  23.1900112  42.6905973
  32.8544124  52.2153846  49.4817598  32.8751072  51.3907424  48.9961870
  33.5789236  52.1455470  50.1033933  84.1489290  18.8144124  88.9879704
  83.2800840  19.0121473  89.3375969  84.4692158  19.6524251  88.6542225
  97.0791719  51.2823383  12.3443182  96.4080904  50.7011596  12.7022512
  96.6025159  52.0745365  12.0964201  68.2303325  69.7669593   1.8076761
  69.1050426  69.5242397   1.5040357  67.9805512  69.0628234   2.4060400
  92.0145247  46.1962596  32.9339178  92.0379648  45.2624694  32.7248151
  91.1696730  46.4957610  32.5981386  87.4999568  43.4307281  10.6554468
  87.4157975  42.4954978  10.4697282  87.1688149  43.5283748  11.5482195
  16.2098908  78.7359285  84.7839832  15.9586060  78.2009792  85.5369282
  15.3941298  79.1487694  84.5005703  70.6958412   5.3856195  68.3722830
  71.3747739   6.0525335  68.4747505  70.9782099   4.8705209  67.6165199
  23.8371357  40.0582115   6.6057451  23.0101188  40.2161399   7.0610864
  23.7329229  39.1912261   6.2136800   8.2820972  23.4640924  36.3310106
   8.1899771  22.6882306  35.7780225   8.7476238  23.1514255  37.1067388
   2.9183396  50.6366817  43.3557947   3.1967648  51.4620677  42.9589899
   1.9620236  50.6697456  43.3313043  29.9454531  89.0009872  28.9796789
  30.6851372  88.6794940  28.4641798  29.3487104  89.3778888  28.3330877
  31.7376542  75.4338264  79.0911818  32.3333502  76.1759853  79.1940117
  31.5352106  75.1633167  79.9867678  33.1004024  79.8988581  86.4534855
  33.7034059  80.0935650  85.7360458  32.9271531  80.7488632  86.8581009
  19.5899662  22.6183645  19.3107946  20.0549730  21.7822877  19.2795236
  20.2748951  23.2675163  19.4711263  25.8947086  63.2360077  44.1004801
  25.9343982  63.2851458  45.0555944  26.7612934  63.5202122  43.8098097
  71.7174529   1.6634286  63.7272739  71.9393944   1.6747488  64.6583176
  70.7606291   1.6830648  63.7088823 108.8866875  74.9585772  74.9691439
 109.3302223  75.7984591  75.0879097 108.5364715  74.9964142  74.0791130
  53.6724470  30.5285541  15.5011041  53.5783932  29.6419422  15.8493860
  52.8559682  30.9674827  15.7397134   6.6465029  33.9133350  38.3574731
   5.8268627  33.6160556  37.9624422   6.3983473  34.6776477  38.8775404
 104.8272631  39.2191211   6.0235937 105.3414819  39.7650806   5.4288252
 105.1526687  38.3312217   5.8753545 100.9725044  35.0818149  18.7377412
 101.1271904  35.2482025  19.6675928 101.6385267  34.4384090  18.4955175
  57.1043062  85.9561253  78.3764887  56.5771484  85.4424286  78.9884233
  57.4531269  86.6739655  78.9049339   7.4079533   3.7443452   7.8048475
   7.1221657   2.8636269   8.0475004   8.1358732   3.6017613   7.1998365
  33.9196857  36.9869605  17.9896505  34.7024187  37.4902908  17.7655561
  33.8500627  37.0634262  18.9412553  80.6744406  58.4742633  28.9128263
  80.5802832  59.3397895  29.3106039  79.7760949  58.1642333  28.7984331
  30.7675958  87.5240421  71.9051600  31.6868210  87.7850246  71.9612551
  30.7743120  86.5836143  72.0834064  54.4178281  25.3538410  18.4638651
  55.1903925  25.9145728  18.3934744  54.4819698  24.7624580  17.7139433
  29.7034860  92.5386810  45.2806044  30.3669953  93.2176685  45.1582670
  30.0192809  92.0265675  46.0250807  28.8244566  28.8726894  21.3316972
  28.7032350  29.8197452  21.2636144  28.8381561  28.7000457  22.2730978
  97.3481891  33.1396858  13.3519418  96.7411277  33.8459865  13.5729368
  97.9631445  33.5366336  12.7351053  92.5759697  86.6644859  66.8874979
  92.8841209  86.0813999  66.1937571  92.7615356  87.5447655  66.5605211
 103.3413751  58.0840635  88.8699627 103.6932476  57.2231531  89.0963459
 102.6177801  58.2157087  89.4825935  98.2914231  39.8877517   2.3793848
  99.1105626  39.3994037   2.4616201  97.6072667  39.2230979   2.4593694
 109.1184089  55.0125495   5.7177026 108.3379982  54.4665901   5.8132036
 109.7570822  54.4442264   5.2871950  41.1698675  96.4076900  74.5641184
  41.7919683  95.9778881  75.1510572  41.7143583  96.9502735  73.9937210
   2.0668730  24.9978582  18.3784254   2.4847897  25.8045665  18.6797578
   2.6244243  24.6920625  17.6629789  88.3002982  30.3230659   5.8505781
  88.9497480  29.6311275   5.9757383  88.1909058  30.3800193   4.9013574
  35.4964002  21.4606706  11.3788088  35.8982023  20.6357042  11.6512544
  34.8824581  21.6718284  12.0821722   1.5201625  49.0832321  51.3666494
   1.7420706  48.6925403  52.2118433   2.2458037  48.8392059  50.7920797
  82.8214716   4.2418779  84.0416622  82.2046064   3.7215532  84.5564175
  83.6797832   3.8755048  84.2545223  42.7304220  69.1523933  62.3354530
  42.5973701  68.3067989  61.9070911  42.2125435  69.0981340  63.1386280
  84.2846606   6.9300310   1.3752134  83.3393500   6.7796794   1.3790758
  84.4135950   7.6277105   0.7326753 100.1509640  25.0261108   6.4212663
  99.3189332  24.6396057   6.6943319 100.8173177  24.4597141   6.8103655
  11.2103685  10.4153911   2.9231031  10.3550752  10.0882999   2.6443155
  11.8400177   9.8961727   2.4229105  36.0756367 101.1849049   8.4087999
  35.9094882 101.8039778   9.1196973  36.5847691 100.4839018   8.8157518
  89.8569486  44.6031181  10.0595911  90.0663946  44.9846450  10.9121187
  88.9342961  44.3574420  10.1272924  62.2114468  45.9209442  89.1069603
  62.9136181  45.2737713  89.1729546  62.2673845  46.2441921  88.2077312
  61.3956928  85.0833416  76.8580723  60.9760094  84.9239445  76.0126781
  62.3282480  85.1517677  76.6534042  68.7936829   7.3207582  68.6886740
  69.4038080   6.5837778  68.6597776  68.6080955   7.4416841  69.6198940
  98.2876251  58.1796924  14.7050150  97.9566858  57.4358550  15.2084310
  98.8803146  58.6309997  15.3060777  72.2468821  47.9249469   4.6953066
  71.6929876  48.1188194   5.4515131  73.0871953  48.3336345   4.9028547
  41.7736530  77.5862122  72.8370047  41.7608404  78.1359148  72.0534897
  42.4621820  76.9432878  72.6672888  68.8616351  22.2523157  30.2314813
  68.8325039  22.9229156  30.9138925  67.9469926  22.0005742  30.1038702
  98.9655373  18.1023971  22.0303972  98.3471153  18.6620847  21.5607889
  98.8380382  17.2331230  21.6504820 106.8837473  39.5823947  39.1382368
 105.9665868  39.8018447  39.3022115 107.3596594  40.3935710  39.3163736
  33.0032325  88.1928349  78.8650179  33.1776619  88.9958763  79.3558598
  32.6417279  88.4951210  78.0318499  25.3342295  49.0446949  79.1523886
  26.2533283  49.2487907  79.3251133  25.1426435  49.4849491  78.3243179
 100.5335567  10.7571498   8.4994466 101.2791965  11.3540546   8.5623891
 100.7820175  10.1347629   7.8159769  39.7158717   4.0154756  80.3973103
  40.4445558   3.8632978  80.9990501  39.6991085   3.2375158  79.8398781
   0.4422864  17.1623317  22.1608503   1.0940942  16.5741960  22.5422628
   0.7732447  17.3492090  21.2823351   6.7984852  19.5191518   8.1734331
   6.3427433  19.7513906   7.3643549   7.4829992  20.1824037   8.2615907
  96.8168137  60.4311935  10.4444940  97.7059457  60.2070896  10.7191904
  96.5436051  61.1170379  11.0537584 106.6903160  60.4415695   7.2700651
 107.5731275  60.8113948   7.2800882 106.2749836  60.8339206   6.5020807
  46.9107914  81.8566608  87.7063942  47.0383596  81.9217300  88.6528206
  47.7969313  81.8039703  87.3483276  15.4458841  17.3111383  22.9821165
  16.0168632  17.4642173  22.2292669  15.7836660  16.5085737  23.3796365
 100.1419184  44.0941516  18.1623323 101.0861990  44.1278831  18.3153970
  99.7816966  44.7686283  18.7381418  60.8790325  14.2330183  84.6876907
  61.4259242  14.5109762  85.4224586  59.9944876  14.1887105  85.0508022
  77.8606365  32.7949706  38.1631429  78.3660386  32.9237548  37.3605116
  78.4535197  33.0631534  38.8651426  94.4806740  42.4111549  30.0700719
  94.8398564  41.6444007  30.5165155  95.2457330  42.8566257  29.7061021
 101.0577748  43.7805263  23.3730180 101.9114969  44.1167537  23.1003626
 100.5186126  44.5627109  23.4902246  17.1042665  19.0450899   1.2166460
  16.7411264  19.3203966   2.0584066  17.8403744  18.4783355   1.4472063
  91.8937073  45.6113330  37.5677068  91.5890262  46.2261096  38.2351263
  92.7983687  45.8729068  37.3962362   5.4192718  33.5317127   6.7937238
   6.3547930  33.6024753   6.9835146   5.0718340  34.4055263   6.9725473
 101.9214953  98.7816334  87.5021362 102.4430580  98.0038738  87.7003479
 101.5697510  98.6175442  86.6271687  10.8029541  11.9920150  33.9111097
  10.7440265  12.7760974  34.4569833  10.1791509  11.3803998  34.3022974
  21.5628179   9.9147121  17.5212248  21.7668804   9.1386167  18.0430086
  21.1919054   9.5672504  16.7100961  24.3114185  66.0083866  87.7851009
  23.3684659  66.1686563  87.7479362  24.7066331  66.8538332  87.5723553
  83.3725809  15.4494298  68.4990883  82.6580118  15.2185453  67.9055309
  83.0083488  16.1372865  69.0562487  32.0714450  68.9271975  57.5048685
  31.4557743  68.6425924  58.1802797  31.5324521  69.0410423  56.7220831
 101.1628745  33.3868591   4.4273718 101.3872955  33.8142387   3.6008032
 101.0875413  32.4590103   4.2045362   6.0015875  68.9851761  78.7291718
   5.4756695  68.3113146  79.1599321   5.5978614  69.0897369  77.8676033
  83.7293743  -0.1594721  78.1948185  84.6176695  -0.3713595  77.9079962
  83.8465618   0.5319799  78.8462734   3.1223902  43.2378665   7.5722559
   2.6722201  42.8642742   8.3298929   4.0263351  43.3549587   7.8644998
  12.1972355  50.1675121  10.2961118  12.6880010  50.9468357  10.0352724
  11.8364700  50.3879539  11.1548860 103.7250898  41.2346069  22.1014936
 103.3160803  40.9653560  22.9239519 104.5064971  40.6861774  22.0317896
  27.6399422  88.4165001  86.4249802  26.8347549  88.7231922  86.0080338
  28.0179691  87.8038311  85.7941341  29.9794134  25.6558601  54.0979059
  29.6063789  26.3213960  53.5198648  30.9172949  25.8468763  54.1091879
  11.6437781 103.2987881  57.2751808  11.0105741 103.0706596  56.5945673
  12.2169197 102.5344849  57.3349953  52.7775120   3.0031503  75.1365805
  53.5759507   3.5310663  75.1424932  52.6132594   2.8276742  74.2100477
   2.2887763  43.2906238  17.3330362   2.0387896  43.9618293  17.9680307
   1.4756998  42.8201476  17.1491964  64.9250005   3.4593023  85.4198360
  64.6221040   3.1748117  86.2821293  64.2769097   4.1055597  85.1395321
  58.3317827  31.7873872  88.7430096  58.6365317  31.1964048  88.0544662
  58.0471276  32.5728429  88.2758236  88.7633991  79.3693113  87.2797775
  88.8370895  79.9710703  86.5390396  88.5878754  78.5175514  86.8798733
  10.2128395  26.9571773   6.0211713  10.1197513  26.0055868   5.9759672
   9.6821197  27.2141973   6.7751653  87.9306207  49.7590438   9.6300562
  88.2566819  48.8676635   9.5061357  87.8510556  50.1104251   8.7432535
  95.9201930  42.2277156  16.6894395  96.0221455  42.2842018  15.7393606
  96.7773936  41.9424621  17.0057733  73.6668770  20.5835811  20.7632311
  73.4762506  19.9399463  21.4456041  74.0007049  21.3445655  21.2382944
  61.1059952  89.8628426  88.9137268  60.7515621  89.0992451  89.3692684
  60.7208538  89.8196983  88.0384922  34.2353329  56.5204898  22.9803426
  34.1488108  55.9615318  22.2081335  35.1758894  56.6817180  23.0551489
  80.1358441  45.2832023   5.0803621  80.4498008  45.3386585   4.1778143
  80.2123628  44.3556491   5.3039987  52.4579834  25.2955068  72.0658159
  52.9689549  25.9804071  71.6344786  51.5908407  25.6828702  72.1851635
   8.2075723  44.0351859   9.3168218   8.3341965  44.5015422  10.1430757
   9.0894588  43.7742034   9.0515096  12.5085291  41.6611949   7.2959097
  13.1137403  42.1759788   6.7621000  12.8794988  40.7788078   7.2950418
  57.4685835  11.8656648  80.7328033  57.5405287  12.2959436  79.8807907
  57.6177906  12.5659097  81.3681126  96.7038391  18.1161491  53.5260542
  96.1952207  17.7579013  52.7986009  96.1505697  17.9798261  54.2951734
  11.8318971  45.5172531  19.5767267  12.1717867  44.6983138  19.2161043
  11.7854627  46.1087028  18.8255651   3.5464438  20.8261386  26.1361082
   4.2663416  21.0499946  25.5463083   3.3381447  19.9160091  25.9251268
  41.8642664  86.9597054  87.8819561  41.8785906  86.0230350  88.0786037
  42.7727222  87.2411156  87.9903603  18.1076845  32.4892799  12.0116384
  18.8143619  33.0520145  12.3281534  17.3134741  33.0085842  12.1372659
 100.0168750  96.5432254  11.5172346  99.0629146  96.6217414  11.5225847
 100.3173206  97.3072902  11.0251196 107.1741173  53.6654750   1.4402254
 106.3093779  54.0751640   1.4154203 107.0999787  52.9902164   2.1145876
  18.8107761  26.6766015   8.6311777  18.5491213  25.9727517   8.0375726
  19.3849787  26.2515680   9.2682512  91.8447051  30.2822200   0.8502157
  91.4995620  30.6647865   0.0435217  92.7459893  30.6007377   0.8998544
  93.6717460  16.6181127  10.5783136  93.3307812  17.5078145  10.4866083
  93.0220840  16.0665409  10.1424940 107.9940078  38.7837497  11.1858804
 107.9298851  39.1208927  10.2923162 107.2140000  39.1216651  11.6259153
   5.6752952  44.2699329  12.1521814   5.3412279  45.0953380  12.5033910
   6.1050018  43.8492290  12.8968866  50.4945087  78.4843540  77.2621250
  50.4632711  77.8260708  77.9563284  50.3074074  77.9960299  76.4603949
  33.5187149  83.1504822  65.0505638  34.2740870  82.5927639  65.2365732
  33.6911106  83.5039997  64.1779041   9.4968542  64.7861568   1.2762220
   8.6215814  65.1714507   1.2352903   9.8035511  64.7915260   0.3694971
 105.6883738  28.9726344   7.8318460 105.5494616  29.6031753   7.1251924
 105.6820366  29.5016471   8.6295564 101.8246449  38.7060976  71.3453054
 102.4120189  38.3939338  70.6569910 102.3957534  38.8523388  72.0994139
  60.8917164  12.1262945  69.1610956  60.3362392  11.8573392  68.4294271
  60.5427884  12.9771818  69.4265556   3.0772251  78.7897110  66.6171169
   2.8524229  78.4571362  65.7481575   3.9120483  79.2410517  66.4922380
  21.0816717  74.5883703  84.7836781  21.2764597  74.3780422  85.6969452
  21.8263221  75.1162052  84.4953823  90.5411301  14.9578277  24.6466119
  89.6121464  15.1864139  24.6154649  90.5589364  14.0788118  25.0250967
  23.2856941  85.2020454  79.5955896  22.6508594  85.8505058  79.2910862
  23.0824995  84.4133949  79.0926361  51.1795805  31.9274513  15.9136827
  50.6481574  32.5039569  15.3646333  50.6893871  31.8581287  16.7329176
  12.9071888  18.2019178   1.2903268  13.1473001  17.2777645   1.3574941
  12.4524292  18.2708255   0.4508741  66.3156890  92.9345253  12.6248129
  66.4666580  92.8045299  13.5610540  65.3689526  93.0536821  12.5491483
  68.8693498 102.2151449  11.3204725  69.2846702 101.4150312  10.9986646
  68.3013057 102.4954489  10.6028421 102.3856043  92.0139339  10.1807172
 101.9740843  92.8661421  10.0371034 103.2933592  92.2207334  10.4030855
  87.8055844  48.6038581  50.9283025  87.0181665  48.2147113  51.3087900
  87.6111863  48.6724178  49.9935682  41.3066149 102.4453354  75.8046865
  40.9171963 103.2046986  76.2382174  41.0552502 102.5391006  74.8858500
  16.5534099  23.0737773  10.5599935  15.9791454  23.0584995  11.3256509
  17.3729357  23.4485618  10.8827074   4.4311413  39.5033447   6.2840707
   4.1993841  40.2476684   5.7286413   5.3613981  39.3569557   6.1125047
   3.1331524  59.3031112   4.7870500   3.6379417  60.1150695   4.7407015
   2.3077091  59.5574752   5.1995618  35.4098630 101.5410137  63.7207079
  34.7331262 102.2052574  63.8512468  36.2090302 102.0420647  63.5578823
  44.0031719  88.8790703  86.3010406  44.7177076  88.8235474  85.6665421
  44.2933321  88.3393097  87.0363617  99.5739483   2.3698534  66.4580870
  99.2507337   3.1326593  65.9786129 100.5264257   2.4636854  66.4434528
 107.4821517  44.7093574  24.7823484 107.6689575  45.5970661  24.4768961
 106.7818687  44.8197547  25.4254968  87.5130533  11.0685075  73.0080748
  87.9390548  10.2157320  73.0948496  87.2613405  11.1177648  72.0858765
  83.8114486  52.6676360  10.3903921  84.7360573  52.4627487  10.5294950
  83.6463413  52.4232379   9.4797666  83.1339620  93.0140713  28.8858373
  84.0783523  93.1600168  28.8305147  82.8104805  93.2024792  28.0048807
 107.4235270  63.3459655   9.1492899 107.6981709  64.0785877   9.7007043
 106.4695308  63.3326332   9.2263944  92.0359466  21.2763492  21.3962801
  91.8944190  20.8025829  22.2158773  91.9085310  20.6174938  20.7137067
  95.0984619  68.6810676  14.9022539  94.4503067  67.9927818  14.7526319
  94.5791171  69.4731037  15.0407941  75.7944361  88.5225574   6.6770513
  75.0887479  88.0583469   6.2267835  76.5080843  87.8863422   6.7236574
   4.4406685  45.4260055  16.9751413   3.8185057  46.1473457  17.0690210
   3.9021381  44.6768848  16.7201002  17.6910194  78.3267681  15.1053960
  18.1094679  77.4686614  15.0361498  17.9723104  78.6624233  15.9565408
  41.5490437  85.4169178  68.3909702  40.7160997  85.6445694  67.9779196
  42.2071552  85.8842659  67.8764725  83.1961893  23.9003576  75.9726286
  83.4907793  23.0157293  75.7561016  82.4466776  24.0509141  75.3966093
  80.2129482   6.5715612  61.8163872  79.6146034   5.9159006  61.4581537
  79.8617576   7.4082292  61.5116167  65.7955074  68.1670666  83.0020809
  65.5675459  69.0322304  82.6618481  65.5954838  68.2169628  83.9368248
 101.4966629  34.9095241   2.1293409 101.7236063  35.1064674   1.2205274
 101.1181686  35.7228080   2.4633272  44.1531801  88.8262749  80.4014683
  45.0513554  88.4953880  80.3966236  43.8461399  88.6726093  81.2949753
  91.4966797   5.0984491  64.3400955  92.3732637   5.4629243  64.4625092
  90.9174894   5.8605112  64.3457508  91.4830469   9.2754377  79.3958569
  91.1720871   9.0260137  80.2661037  91.0317968   8.6776365  78.7998390
  75.9220457  87.1256924  87.0339584  75.8324385  87.8860474  86.4594460
  76.4907932  87.4266434  87.7426147  59.5288897 100.5456829  83.9000320
  59.1238594 101.1889935  83.3183575  60.3720856 100.3505039  83.4911728
   5.3794702  41.3118068   3.5110147   5.4206880  41.5218250   2.5780447
   6.0583195  41.8565170   3.9093645  66.2979937  84.0657234  69.3369770
  66.3557816  83.4043980  68.6473799  65.6111479  84.6624279  69.0396309
  63.5844707  91.1304188  88.8070679  62.8589106  90.5949593  89.1281223
  63.7191105  90.8360195  87.9062653  71.6665338   9.9723543  87.7211475
  71.2230800   9.1724409  87.4387932  72.5886749   9.8208917  87.5139141
   3.5052500   0.7409681  51.2960863   3.6406813   0.3377927  50.4385710
   2.8798065   0.1648344  51.7355442  28.3323654  20.3007070  18.4675939
  28.6313852  19.6294824  17.8541811  28.0186638  21.0124055  17.9096372
 105.9350727  77.5123493   4.2493494 106.6744945  78.0615322   4.5098932
 105.4301498  77.3931114   5.0537546   5.9601244  88.3442871  14.4110162
   5.7232126  88.6359779  15.2913721   5.8426412  89.1196052  13.8620908
  11.3000187  33.3251373  20.3571088  12.1911463  33.3293525  20.0076730
  11.3837179  33.7060443  21.2312563  20.8706236  92.6609993  60.8765745
  21.6925645  92.1993065  61.0423517  20.9270358  93.4510040  61.4141083
   6.7388614  64.2984477  19.8234422   6.3781198  63.4938327  20.1958521
   7.4729189  64.5195476  20.3966005   8.1006489  34.7632612  87.7162361
   7.9981384  35.1305402  86.8382645   8.2383404  35.5246271  88.2797909
 103.1954787  29.2691890   2.6439817 103.6591504  29.5589630   3.4296472
 102.6323531  28.5570136   2.9471834  87.9224991  27.1287454  81.2901688
  87.4479269  27.3338045  82.0957565  88.2606481  26.2442411  81.4299297
  45.6218529  98.7110519  84.3917751  45.8463955  98.9433289  85.2928162
  44.7947788  99.1637611  84.2267418  61.0689138   7.0255292  69.6252680
  60.6677221   6.1715902  69.7867060  60.4080366   7.6578439  69.9074936
  84.9480222   7.7295698  58.2646227  85.0463032   8.6806692  58.2199764
  85.4782985   7.4690832  59.0177393   5.1720747  75.4157821  12.9491289
   4.9643549  76.1750118  12.4044664   5.8538326  75.7273761  13.5443933
  98.9911959  71.4248744   3.2262952  98.1281540  71.0643093   3.4297331
  98.8726757  71.8713848   2.3879583  32.0791650  94.8444653  72.1860600
  32.3158789  93.9726543  71.8695974  32.8411770  95.3875256  71.9844341
  36.7036510  88.7888813  81.3553524  37.4567127  89.3658352  81.4828396
  36.9732213  88.1943512  80.6552887 103.6761401  11.7343084  18.8792951
 103.5820553  10.9120218  19.3601568 103.7211964  12.4059240  19.5598371
  81.7940973   2.0476640  87.7769184  82.5002168   2.4769891  88.2599258
  81.2093281   1.7113985  88.4560394  59.3146372  91.4495659  75.3796244
  59.7160578  92.1424961  75.9039640  60.0246334  91.1277390  74.8241377
  43.6444378  97.2802353  87.9325104  43.5396433  97.8285122  87.1549225
  44.5828485  97.3064709  88.1193829  27.8543878 101.6838837  87.0362186
  27.7321291 100.8943558  86.5090370  27.0456648 102.1811295  86.9139576
  64.8392200  99.1625786  79.3911600  65.5152702  99.4288445  80.0142860
  64.0204334  99.4698429  79.7802639  27.0270284  52.8984252  18.3207853
  27.0998224  52.4218074  17.4938829  26.5702280  53.7077037  18.0913599
  19.5645269  45.5468265   2.7172334  20.1983866  46.0794155   3.1976564
  19.1519245  46.1579696   2.1069009  66.4260052  28.0928625  87.8691959
  66.2749838  28.7868036  88.5109520  65.6770085  28.1482900  87.2757626
  25.9023842  21.9005815   6.9892748  25.9779438  22.6231328   7.6125295
  25.2441963  22.1951047   6.3597734  56.1781310  24.1602624  86.5764999
  57.1202849  24.2781175  86.6976929  55.9219896  23.5508073  87.2687340
  82.0727539 100.5300713  57.5753498  82.5692081  99.9506855  56.9973564
  82.7268505 101.1319828  57.9304600  19.8221954  55.9043495   0.4486902
  19.4798168  55.3360168   1.1386163  19.6872362  55.4086105  -0.3589384
  40.5468464  85.6509304  71.1369514  39.7779202  85.1916695  70.7992220
  41.1819887  85.6125832  70.4218626   1.5802130  42.1622745   5.3448446
   2.1199831  42.4705211   6.0727651   2.0983180  42.3560134   4.5636518
  28.5498190  86.0605431  84.9007034  29.0000868  85.2324200  85.0671577
  29.2549181  86.6970539  84.7827435  87.7269243   3.7425340  85.8260441
  87.1039652   4.4157709  85.5523586  88.4995531   3.8958467  85.2821922
  35.0649341  24.4550601  11.0282476  34.2178091  24.4217769  11.4726694
  35.0070843  23.7805168  10.3515871  61.8813847  27.8914369  81.2798023
  61.4137458  27.2108377  81.7638874  61.2241029  28.2601751  80.6896877
  88.8157152  29.1900266  88.0986500  89.5107960  28.5479940  87.9541397
  89.2254566  30.0337232  87.9075432  98.2383654  50.6055728  18.5964925
  98.7153146  50.2359954  17.8534181  98.4927294  50.0591174  19.3400819
  32.5378164  96.8566409  20.2963789  32.0305523  97.4479000  19.7401960
  33.0448183  97.4374858  20.8636530  17.7432712  80.5587474  21.8801935
  17.3768076  80.1039974  21.1218221  18.4421905  79.9828235  22.1901186
  94.3617413  63.9344970  26.4044721  93.8168738  63.7402908  27.1671255
  94.0174744  63.3682910  25.7137258  25.9572959  77.9902172  80.2304363
  25.7064342  78.2683897  79.3495750  26.4645982  77.1901274  80.0935745
  94.6332476  55.1421348   8.3098753  94.2212341  56.0025875   8.3879335
  95.4939888  55.2511684   8.7141855  92.9572032  77.2756759  17.3451383
  93.2373188  78.1713573  17.1566541  93.1397793  76.7929737  16.5389784
   6.0844883  45.4860488  29.0107782   6.9798549  45.6554119  28.7177427
   5.5328926  45.8999435  28.3469541  65.4798363   7.0288766  60.8483076
  66.2551855   6.4694608  60.8943653  64.9925088   6.7010320  60.0924921
  63.0424975  12.3964227  79.0164185  62.9316281  12.7703870  78.1422997
  62.2801446  11.8294157  79.1328144  89.3351482  29.1967500  79.4418621
  88.8086962  28.5890306  79.9612427  88.9651464  29.1415227  78.5607910
 101.0044121  20.4071535  68.8146067 101.4209865  20.4886163  69.6725464
 101.7051052  20.1070035  68.2356644  26.8512297  97.3449326  41.3102055
  25.8998489  97.2458553  41.2742567  27.1440792  97.1714306  40.4155731
  98.4326980  59.7821800   5.9536226  97.8798721  59.1830627   6.4552934
  97.8310678  60.4574195   5.6400545  32.1403726  38.4745971   3.8473280
  31.5700468  38.7686054   3.1370218  31.7194208  37.6818935   4.1799791
  80.8049297  72.5774050  77.0872498  81.5239906  73.1575966  76.8370962
  80.6313610  72.7924919  78.0036783   1.7058262  42.0020381   9.7237165
   2.4418935  41.8787948  10.3230913   1.0129198  42.3748485  10.2688081
   7.8785294  87.1351528  38.9659071   7.5763869  87.6224422  39.7323847
   8.6237681  86.6258144  39.2843795  94.6013092  15.0935853  85.2603149
  93.9025759  15.7468809  85.2951336  95.0900482  15.3077425  84.4656467
  42.2539520  87.9658699  60.7795572  41.8257380  88.6971188  60.3344345
  41.5322828  87.4253082  61.1008310  76.7338012  26.2011255  88.4001350
  76.0510873  25.7294095  87.9230404  76.5109895  27.1250165  88.2860279
  12.1226177   9.6948637  67.6238155  12.1442280   9.9634279  66.7053175
  11.1958942   9.7276224  67.8611946  35.5132803  58.4135810   9.3888338
  34.6952900  57.9241744   9.3016012  35.2391561  59.3282310   9.4559534
 105.0403713   2.6164926  85.5659580 104.5778393   3.4384454  85.4025936
 104.5370411   2.1924795  86.2610149  48.8090690  74.5101920   8.5198171
  49.7134479  74.2856017   8.3009966  48.8709148  74.9579898   9.3635519
  43.7829351  77.6925850  55.6142235  43.9172554  76.9195080  56.1624384
  44.6631145  77.9429865  55.3334808  18.6169504  83.8151696  24.3037279
  17.8133594  84.0125635  24.7848852  19.2390393  84.4830039  24.5922430
  48.6872755  84.3077424  51.9719179  49.3858742  84.6727064  51.4287813
  49.0528916  83.4931758  52.3169382  53.3150147  67.2912374   1.3269766
  54.2310380  67.1092656   1.1171587  52.8191971  66.8517127   0.6361635
  93.6886908  57.8637362  72.6089668  93.7337006  57.0276785  72.1450567
  92.8555692  57.8321600  73.0792284  14.9747753  17.5924194  85.6712341
  14.1206765  17.6825821  85.2486038  15.0861239  16.6488385  85.7873726
  18.4940791  47.7378035  65.7559967  18.8252270  48.6126995  65.9587955
  17.9002893  47.8717422  65.0172806  29.5994520  33.7282562  81.0418415
  29.1175938  34.0402699  80.2758789  29.4797564  32.7786469  81.0296249
  35.7950759  21.3711786  64.3242073  36.5997100  21.4865947  63.8187599
  35.1970220  20.9258127  63.7240314  36.2290524  86.4588049  12.3940618
  36.1764425  87.2817829  12.8800352  37.0149526  86.5487435  11.8550832
  96.6788651  29.8800039  69.6520090  96.8965698  29.4113588  70.4577446
  96.7360402  30.8053231  69.8902225  14.8311865   8.0189234  58.7843132
  14.5981562   8.4816068  59.5892048  15.4655039   8.5920173  58.3536863
  30.4021740  43.9597511  87.7239704  30.1646042  44.2189598  88.6142540
  29.5909023  43.6158037  87.3501110  74.2781852  86.9483593  26.3666017
  74.6701287  87.2411945  25.5438860  74.8113989  87.3608783  27.0461137
  19.6895516  36.0082674  70.3326988  19.6430838  36.2806988  71.2491369
  18.8592589  35.5592299  70.1739216  74.0175146  16.5269557  26.3106401
  74.3942409  16.0546199  27.0530756  74.0648956  17.4487344  26.5642412
 108.6532201  27.1931863  56.9869900 108.0492678  26.4508176  56.9679880
 108.6692488  27.4654889  57.9045010 107.3661324  45.0758076  88.7757301
 106.9055180  45.6270742  89.4083214 107.9134255  44.5019960  89.3118668
  50.6665491  50.0185342   4.1546209  51.4749967  50.0579743   3.6436517
  50.7331680  49.1994825   4.6454866  32.4530935  22.7038980  64.4490957
  32.7140737  21.8325686  64.7472668  32.0386887  22.5522232  63.5996866
  54.2085313  65.5600217   6.3626535  54.5594000  66.3829127   6.0221059
  54.7989832  65.3260258   7.0787866  60.8521150  63.3657816   4.5460661
  60.4109739  63.0825749   3.7451799  60.1809429  63.8440802   5.0328787
  68.7587379  56.6041013   7.1334608  67.9416465  56.6242108   7.6316507
  69.2425798  57.3726800   7.4358137  21.2216878  67.7093029  23.3297086
  20.5808544  67.9245806  22.6520538  21.8791389  67.1800613  22.8781652
  25.0635219  13.4479904  67.9919386  24.8919868  13.7815118  68.8726044
  25.5587888  12.6412249  68.1336164 106.6850520  58.5461092  66.2937069
 106.5020953  58.2403135  67.1821022 107.5587828  58.9331341  66.3488007
 105.9371264  37.2252822  74.1513348 105.1602153  37.5192904  73.6757326
 105.6191687  36.5228415  74.7185326  11.3163352   3.4080592  68.0190659
  10.5323195   3.9224058  68.2114172  11.0867131   2.5155568  68.2778072
   5.3227311  30.1623273  89.1770172   4.7608805  30.3730512  88.4312630
   5.6582469  31.0092378  89.4709682  49.9747001  55.6103691   3.2364328
  49.0469931  55.5698919   3.4687097  50.3059911  56.3758769   3.7059744
  62.0345881  99.7201206  82.9278469  62.2116365  99.4534501  83.8299370
  62.8990784  99.7769432  82.5208378  17.6023448  34.4690132  46.3869095
  16.7140388  34.8236585  46.3498783  18.1695497  35.2309299  46.2686157
  91.0576678  23.2957840  70.0808239  91.9951881  23.1236815  69.9932623
  90.9534908  23.6020517  70.9817028  19.5587194  30.5307817  45.2722406
  19.8011243  30.8840489  46.1282063  20.2329564  29.8783040  45.0827456
  29.7681332  14.9570024  72.7416229  30.4072762  14.2505562  72.6485634
  29.1023636  14.7662282  72.0808744  59.0764275  89.3657314  56.9637775
  60.0130465  89.1683375  56.9671917  58.9019968  89.7146224  57.8378963
  99.0520133   2.0029908  51.7561960  98.2708610   1.7569537  52.2516727
  99.5883895   1.2102631  51.7454815  64.9188160  51.8884592  11.0244424
  65.5714821  51.2073433  10.8621557  64.0895938  51.4148365  11.0900457
 103.9302279  30.2681351  82.0524502 103.8879068  29.4225764  82.4990749
 104.8643668  30.4740286  82.0174503  47.0268904  96.3596943  22.9866560
  46.6605495  96.0250166  23.8052042  47.5796198  95.6483343  22.6631029
  48.3823576 100.5158581  49.2057753  47.6048222 101.0727709  49.1667843
  48.0521240  99.6629002  49.4879866  53.0441962  97.8530481  24.8585088
  52.0928704  97.8758886  24.9618967  53.2727300  98.7299374  24.5501764
  99.0803922  16.4375997  41.4661598  98.3676232  16.9956982  41.1551619
  99.0396656  16.5063298  42.4200201   4.1461731 101.3530309  59.1967678
   3.5234357 100.7050376  58.8673210   3.7550474 101.6685062  60.0114679
  42.6599001  71.4643124  40.0029714  41.8220584  71.1613336  40.3529127
  42.6139812  71.2673750  39.0673788  78.3755896  28.5969249  50.3325231
  79.1826723  28.6154357  49.8182161  78.5843465  29.0935127  51.1237581
  48.6207103  88.4693840  17.8246458  49.2203580  87.8620246  18.2579668
  47.9689609  87.9058650  17.4076326  10.2410268  57.3354265  11.5677030
   9.9134825  58.0763486  12.0775850   9.5024012  56.7280218  11.5262087
  86.7404832  35.8338618  87.0170021  86.6116990  36.5868926  87.5937080
  85.9448899  35.3122735  87.1228600   7.2933108  28.9096594  87.2073555
   6.8378663  29.4445562  86.5572071   6.8419063  29.0970373  88.0303669
   8.8300312  67.8171635  79.6306181   7.9006439  67.6099253  79.7282028
   9.0954530  67.3579168  78.8338280  88.6866059  98.5510858  63.5735226
  87.7557566  98.7646263  63.6379623  88.9509299  98.8880207  62.7174616
 107.6846291   5.5745447  44.1185379 108.2869809   5.1339740  43.5191202
 106.9402842   5.8230042  43.5704088  40.0479158  79.8672107  10.1268060
  40.4612978  79.0084150  10.2152116  40.5577849  80.4387000  10.7009657
  94.3866159  46.8086910  37.0979714  94.8101987  46.2407112  36.4543843
  94.8957337  46.6844034  37.8989601 106.0601146  11.3978851  46.3295221
 106.6313730  10.9430218  45.7106543 105.3102736  11.6758657  45.8035040
  25.1981198  83.2706192   3.4581239  25.7602381  83.0163744   4.1899736
  24.7192966  84.0351394   3.7782247 105.3671582  39.9677873  83.5517788
 105.0889589  40.2855301  84.4107819 105.9451566  40.6540108  83.2182503
  58.4066819  82.4883321   7.4027212  57.8146695  82.6935079   8.1263597
  59.1128849  81.9839981   7.8066499  59.1336201  80.6343105  17.9136713
  59.1212653  79.7865632  17.4693735  60.0592016  80.7950499  18.0972345
 103.5646541  47.4947309  85.5646229 103.6943508  48.3340359  86.0061836
 104.1076924  46.8788433  86.0565758  17.6648139  93.7236765  11.7381723
  16.8816589  93.8487890  11.2022264  17.9704450  94.6110084  11.9264753
  71.2486776   8.2328931  24.9469717  70.3889117   7.8279773  24.8326261
  71.5494232   8.4120981  24.0560968  57.0666527  60.4829475  27.0094450
  56.3810276  60.4049673  26.3460691  57.8530573  60.7140645  26.5150983
   4.6389967  22.7096796  61.7582417   4.4102499  22.6267481  62.6840019
   5.1886386  23.4922290  61.7165089  99.1230799  34.1219807  73.2657051
  99.8156888  34.4448400  72.6892614  99.2610533  33.1753635  73.2990074
  32.6986170  53.8983536  41.0378933  33.3780837  54.5456648  41.2264347
  32.4473310  53.5578728  41.8964767  13.4487784  18.1484461  39.7409320
  12.6162362  18.4653974  40.0911379  13.8542390  17.6823032  40.4720592
  84.5149602  17.0000446  61.9627523  85.4185761  17.2154009  62.1936893
  84.1009701  16.7781639  62.7967834  47.7613853  79.0345123  11.0545499
  48.1156038  79.3529084  10.2242620  47.8052806  78.0809453  10.9837301
   6.8024784  15.9793842  62.5304985   6.0015464  16.4482975  62.2962761
   6.5446502  15.4136026  63.2582664  18.3542264  36.0965943  76.4883518
  17.9078662  36.9136381  76.7106962  19.1415584  36.0979843  77.0327187
  52.9278754 102.3136070   3.6558302  53.5145699 101.7037895   4.1032179
  52.0496773 102.0354155   3.9158590 109.1731429  18.0064392  79.1574097
 109.5141934  17.4956489  79.8915815 108.6061889  17.3971403  78.6846018
 104.8390355  89.8655175  84.6768188 104.0806665  89.5085429  84.2145634
 105.1690092  90.5541455  84.0996265  18.0151665  22.8547716  66.9559288
  18.4995794  23.6620641  66.7831421  18.6880112  22.2193813  67.2004509
  17.7881265  23.4242678  62.0922756  17.6096451  23.7694097  62.9670620
  18.6332738  23.8044429  61.8526363 102.9442186  35.6504631  69.5676994
 103.2309211  36.5360641  69.3446636 102.7356012  35.6941390  70.5008650
  88.0180110  42.2289276  53.5018301  88.2311405  43.1002331  53.1677055
  88.0072082  41.6703844  52.7245617  19.6265327  81.8725517  13.5815771
  19.0576421  82.6364043  13.4860571  19.4528042  81.5537742  14.4672544
  39.8323654  54.8023364  30.9065111  40.0013410  54.5445940  31.8127306
  39.5172896  55.7040497  30.9687288  76.8207804   4.4092933  19.8449381
  77.1061081   4.8670093  19.0541704  76.8656508   3.4814540  19.6139963
  70.0222995 101.0234720  76.1542702  70.6711295 100.3207942  76.1929464
  69.1958799 100.5993696  76.3853550 108.3663915  23.5196710  83.2577515
 108.0784303  23.0503464  82.4747849 107.5993131  23.5236406  83.8302994
  23.4240174  34.6198034  82.7765560  23.7656450  33.9679742  83.3886337
  23.6456609  35.4615712  83.1747150  47.9404365  66.7338851  25.1501520
  47.1377789  66.2144664  25.1967962  48.4001731  66.5381482  25.9665830
  66.1360716 102.2206858   5.2139909  66.3654088 101.3102320   5.0276811
  65.6652950 102.5135782   4.4337232   6.8403161   8.2562256  69.0466595
   6.1077136   8.2787538  68.4310150   7.6047957   8.0674940  68.5024357
   0.1487416  29.4296813  55.7937241  -0.0995251  28.5271835  55.9939575
   0.9844387  29.5536542  56.2436962  22.9219483  98.2183531  38.4262426
  22.3118244  97.5285843  38.6873968  22.9672002  98.7984636  39.1862733
   7.1951634  33.8562703  70.0406694   7.5902146  33.1605649  70.5661821
   7.7411419  34.6239710  70.2102995 102.1921248  72.0530605  33.1952238
 101.4879198  71.4116049  33.2893610 102.3966075  72.3176098  34.0921259
  19.9335980  62.2200918  57.2810411  19.4131255  61.7376232  57.9233551
  19.7329819  63.1401634  57.4526501  26.2582824  18.4531156  25.9014852
  25.9852598  18.4900943  24.9847944  27.1805618  18.7089149  25.8872087
  24.3247199  89.4035149  72.2695494  23.9587307  89.8349571  71.4974546
  25.2665353  89.5635319  72.2094679  12.8592443  41.9000244  79.8454428
  12.5519896  40.9945917  79.8005724  13.6899066  41.8949223  79.3698311
   5.2467805  55.5696106  52.4543858   5.0633568  55.3967428  53.3778048
   4.4954336  55.2029896  51.9882345  77.1676601  35.3679562  61.7851257
  77.5801529  36.2317157  61.7872334  77.0693506  35.1472211  62.7113247
  21.7084289  61.2827873  83.0435944  22.0664120  61.3925791  82.1626759
  21.1064601  60.5425215  82.9669666  70.0258468  83.5295775  14.1936548
  69.0938925  83.7475470  14.1801222  70.0748657  82.6623848  13.7914140
   9.9486853 103.1482849  60.2473259  10.8259369 103.3696081  60.5598497
   9.8964716 102.1964811  60.3343582  53.6380434   5.9501439  69.3472099
  52.9072857   5.8014077  68.7471247  53.2970524   5.7010728  70.2062368
  12.8931916  85.6585407  72.0718050  13.6833394  86.1936855  71.9975042
  12.5367427  85.6331444  71.1838102  21.5672588  16.5270793  17.9294407
  22.1732402  16.4219522  17.1959782  21.0842729  17.3285878  17.7280939
   5.6214637  46.6246080  77.2925758   6.1160833  46.6886187  78.1095743
   5.9634763  45.8386660  76.8664837   1.2948325  36.8538332  86.2466526
   1.6071869  36.8719792  87.1512794   0.4588304  36.3897777  86.2911892
  44.1585064  38.3234024  16.0761201  44.5763922  39.0421939  15.6018412
  43.3036137  38.2248950  15.6569684  12.0778012  59.7276115  62.2439384
  12.1625125  59.6231031  63.1916380  11.7799354  60.6298876  62.1281528
  38.3166424  64.0080967   1.7448957  38.1256676  63.8169387   2.6631696
  38.3895921  63.1479338   1.3313444  15.5148983  58.2223749  57.7501440
  14.9177337  57.7940035  57.1368551  16.3436067  57.7554321  57.6431990
  95.7540319   1.2645236  24.9911459  95.2121089   0.5001108  25.1866396
  96.6483710   0.9242288  24.9669607 106.9498131  10.7612268  33.9325769
 106.2914274  10.9674350  33.2690771 106.7848823  11.3883487  34.6366651
  79.8805369  53.0740452  62.3239040  79.0196193  52.6802731  62.1824980
  79.6941985  53.9906549  62.5272131 106.8583259   6.0216397  76.2910891
 107.7335910   5.6341606  76.2894440 107.0096020   6.9543773  76.4438868
  20.3327942  30.2142739  75.8759260  19.7879326  29.5137644  76.2345982
  19.7649789  30.9848619  75.8791637 107.0006451  55.9165430  79.0521336
 107.2874625  56.3887835  78.2704926 106.0969616  56.2021351  79.1863871
  61.1969899  94.6298817  30.0687845  60.5365680  94.0872362  29.6379621
  61.3189434  95.3730324  29.4779546   8.6271429  55.4353857  46.2847757
   7.6907784  55.3000641  46.1393785   8.6691320  56.0871935  46.9845009
  88.6986564  66.9845953   1.6890772  87.8817676  66.6471925   1.3215311
  88.4815668  67.8692260   1.9832380  64.4564103  88.6511138  20.3383978
  64.6391057  87.7122214  20.3018816  65.2851127  89.0460017  20.6095941
  39.6846247  38.7242985  63.5489416  39.0281844  38.4752774  62.8983212
  39.1935849  39.2123222  64.2099571  35.7452426  91.7779329  16.4292009
  35.6099355  91.0843590  17.0748670  36.2269212  91.3535502  15.7191904
   6.2827524   9.2940990  20.0296266   6.9534859   9.6482793  20.6135042
   6.5764126   8.4029714  19.8401888   2.6660621  59.3372488  74.1175508
   3.2572767  59.2274761  73.3728027   2.8257525  60.2311182  74.4204044
  22.8591132  47.3484087  77.2796249  23.7404561  47.4175739  76.9126320
  22.5552464  46.4813280  77.0111656  14.6834481  56.4936543  87.5869465
  14.6829891  56.7618275  88.5058117  13.9190388  56.9292784  87.2099304
   7.3063165   4.0329412  54.3744469   7.3275071   4.7711185  54.9834442
   8.0145895   4.2122257  53.7560320  39.9526072  30.4636908  49.7000456
  39.6116495  30.7450485  48.8510370  40.3274632  29.5989370  49.5329666
  64.9567381  15.1692907   3.3629282  65.3995118  15.6983034   2.6993616
  64.0664444  15.0613586   3.0283315  26.9678497  33.2538891  63.5324240
  27.8612161  32.9897690  63.3124924  26.8898273  34.1439557  63.1890202
 106.5352557  68.6657810  59.7703314 105.7302557  68.7998629  59.2701006
 106.3080750  68.9242744  60.6635284  17.9653347  64.0645266  52.8911543
  17.9096735  63.2971573  53.4606123  18.8845551  64.3280888  52.9335690
  30.4829715  59.9004975  13.8330610  30.7179068  60.5426881  13.1632669
  30.8331435  60.2637753  14.6464784  90.1573203  14.8288576  14.2138631
  90.7769880  14.1521922  13.9411600  89.3805072  14.3439714  14.4925745
  21.2644935  15.7662320  62.1624374  21.7752171  15.0244737  61.8381071
  20.3820038  15.4153514  62.2821379  23.0286264  58.0788660  83.7463474
  23.6898971  58.6690569  83.3849239  23.4341383  57.2126484  83.7081146
  63.2575821  94.4293573   6.0459001  63.7994717  95.1579931   5.7431276
  63.6177992  94.2031410   6.9034059  52.0444535  90.0719097   0.1666219
  51.6519450  89.8079255   0.9987791  52.4389969  89.2703774  -0.1770537
  53.0011283  87.5786426  24.3592127  52.6378189  87.1597770  23.5789640
  53.9391779  87.3931315  24.3158491  50.6000519  46.3927650  85.5178738
  51.0828972  47.1536636  85.1951981  50.8935690  46.2890577  86.4230347
  62.4793504  69.0802899   7.4716051  62.5157784  69.7230366   8.1799657
  61.8904566  69.4694796   6.8250997  47.1197330 102.1791103  39.6740396
  46.2108545 102.4233511  39.8487337  47.3893355 101.6883924  40.4504068
  91.6763939  66.1922550  80.5379105  92.1706523  66.9159031  80.9229660
  91.3598932  66.5361166  79.7025537  24.2437625  18.1790805  82.7563572
  24.7835684  18.4646034  83.4934616  24.4384742  18.8061249  82.0598412
  13.7185657  26.9543767  70.0973511  14.5838368  26.6296721  69.8481464
  13.8624740  27.8746295  70.3179312  58.0436850  25.4757738  52.0169926
  57.1440554  25.2198529  51.8135071  57.9883242  25.8763719  52.8845692
  13.8209128  42.7177525  86.3776207  14.2151260  43.0327415  85.5642223
  14.0813613  41.7981339  86.4295769   8.4204179  25.3633451  65.4180336
   9.3636245  25.4654503  65.5451822   8.2548082  24.4360495  65.5881119
  43.6858606  17.4821377  41.6347122  44.5260668  17.3308623  41.2018108
  43.4057999  18.3417714  41.3203430  31.1079144  83.9760590  56.3405991
  30.2167988  84.3134689  56.4317274  31.1617303  83.2659626  56.9802046
 100.7353498  33.2726049  88.8195133 100.1806153  32.6477456  89.2864704
 100.4150225  33.2500172  87.9177856  14.2227089  30.8411503  82.4497795
  13.5857129  30.2356720  82.8290749  13.7444103  31.2838078  81.7486954
  62.7691792  74.3503645   8.6663206  62.6750468  74.1525081   7.7345331
  61.8904089  74.6058562   8.9468916 101.8603076  42.4748564  63.0417109
 102.6315541  42.8053570  62.5810814 101.8004359  43.0170918  63.8282394
 106.6352673  76.1338329  77.2808075 105.9013088  75.8623648  76.7295885
 107.1595959  76.7035341  76.7179966  92.8333510  32.1449804  70.5881834
  92.7743770  31.1981082  70.7154083  92.2096242  32.5102687  71.2156868
  65.8742880  73.6660793   0.5827482  65.2195882  72.9726317   0.6647833
  66.4221548  73.3924106  -0.1529066  99.3321563  14.7123671  52.7684689
 100.0808461  14.6909273  53.3644867  98.6636735  15.2080810  53.2413626
  33.9623785  24.2493105  72.3703241  34.4697356  23.4681749  72.5908852
  33.7126040  24.1221452  71.4550781  17.2308195   5.2026170  50.0413942
  17.8391242   4.4666544  50.1089001  16.8911970   5.3148550  50.9292555
  33.5077190  35.6362414  82.7913761  33.2839704  35.0312662  82.0841503
  33.8016915  36.4296627  82.3438358  11.6398847  37.7590966  69.8339796
  11.9028473  37.0576835  70.4298830  12.0287704  38.5496545  70.2081728
  80.2820257  10.5690042  29.4971807  79.9412934  11.3498536  29.0608175
  80.8477840  10.1572744  28.8440092  18.7217486  52.4227571  80.6693172
  18.7994373  53.0910015  79.9884033  18.1507349  52.8175688  81.3283348
  14.2566919  47.1300364  82.3592758  13.5809910  47.8054094  82.4187374
  14.4643140  46.9181728  83.2693481  13.3237648  32.1134758  80.0961685
  12.7622700  32.4604034  79.4029140  13.8728583  31.4639187  79.6570730
  93.4805359  24.9319339  67.2256231  93.8090409  24.2230582  66.6726208
  92.5584532  24.7175813  67.3672152  35.5166652  60.6785074   0.8763178
  36.4264992  60.9644607   0.7946832  35.2287460  60.5354550  -0.0252764
 104.0627716  22.5691358   5.6221159 103.7333844  21.7538539   5.2438886
 104.9256179  22.3411838   5.9681852  96.8444539  45.5392361  54.2890120
  96.5928460  44.9559832  55.0050688  96.9102098  44.9661541  53.5251522
  11.1111224  63.0896139  81.5165520  11.1526048  62.8656054  82.4462509
  11.2094498  64.0415049  81.4949226  10.7319283  46.1403942  66.8123436
  10.0849473  46.2543869  67.5085163  10.3079045  45.5550432  66.1848116
  72.1700882  79.1498473  11.1239774  71.4763092  78.4955480  11.0415228
  71.7143320  79.9899986  11.0723646  33.1156312  83.9036563   1.9002969
  32.1947663  83.7387422   1.6977079  33.0932449  84.5287135   2.6248891
  21.1788774  27.8614187  64.8874664  21.0827112  27.7522635  65.8335447
  22.1241736  27.8390241  64.7386408   2.9976019   0.4569713  17.7330358
   3.2091388   0.5034391  16.8006570   3.2423624  -0.4319676  17.9901464
  27.3713231  64.3700600  69.4602346  27.4755931  63.4242058  69.5637989
  28.2663465  64.7054434  69.4084549  54.9085376   4.8120586   3.3507784
  54.9640832   5.4478876   4.0641267  54.6574185   3.9934436   3.7786062
  23.2595907  79.9649456  14.5107324  22.8832899  80.8432582  14.4541891
  22.5509380  79.3826774  14.2368467  54.5634840   6.3687984  27.1068437
  55.1221869   6.4698211  26.3362081  54.2872379   7.2599260  27.3208769
  41.0566344  90.7917860   1.2856443  40.8173837  91.4624503   0.6459482
  41.6807770  91.2267211   1.8665941  37.5161600  32.3321176  68.5704803
  36.6912985  32.2104120  68.1003523  37.8691983  33.1525731  68.2263184
  11.1279285  54.2764473  85.4557419  10.6310463  53.6134529  85.9350967
  10.4611206  54.8048878  85.0171661  54.9252592  96.9090488  19.7633703
  55.1925396  96.0629251  20.1223524  53.9848326  96.8178728  19.6100195
  11.4283550  40.5414724  87.1618748  11.5728164  41.0189772  87.9787922
  10.6199408  40.0510597  87.3108482  93.9687980  48.9776659  80.3767776
  93.2097400  49.4751930  80.6809616  94.7212185  49.5195866  80.6142998
  44.5501392 102.1834925   9.5070608  44.9365895 102.4004867   8.6586530
  43.6526804 101.9216612   9.3015249   5.4546994  29.5089269  55.9007025
   5.9324759  29.0298510  55.2236128   6.0308766  29.4824457  56.6646051
  50.9358788  19.0542936  64.4373560  50.5036974  18.2853127  64.8090029
  50.7491398  19.0042996  63.4998798  99.4060482  61.1980152  50.1669741
  99.5479478  61.8908882  50.8119726 100.2864612  60.9468269  49.8876762
  54.4588290  93.0455473   6.4848192  55.1229059  92.6859835   5.8966406
  53.9139079  93.5962751   5.9226854  36.0816022  79.3110063  14.5349081
  36.2775026  80.0005200  15.1692827  36.8361164  78.7236383  14.5789392
  58.2057856  79.0283516   0.1463564  58.4036754  79.9332431   0.3876932
  57.3984693  79.0877822  -0.3644602  14.2863774  38.2878160  83.0786419
  13.6557782  37.6056576  82.8479099  13.7888932  38.9006352  83.6201191
  49.9760972  93.4827068  30.7327516  49.1745662  93.5672024  31.2491281
  49.8009228  93.9820650  29.9351461  46.7308365  84.3404415  43.1933649
  46.5582250  85.1837137  42.7746446  46.4478968  84.4607594  44.0998418
 101.4669932  74.8328495  61.3943243 101.6025693  74.3828678  62.2282124
 101.4666600  74.1326904  60.7416296  25.7337403  55.7496977  81.0501099
  25.9862208  54.9640512  80.5650997  26.4107990  56.3914585  80.8357048
  13.7631249  62.7734232  71.9748211  14.2117679  62.8850174  72.8129721
  13.2216632  63.5578203  71.8866873  50.4144095 100.1600531   0.0351007
  50.9558402 100.9489849   0.0609739  51.0302674  99.4420078   0.1812608
  71.8327368  46.4269686  83.1275749  71.2004937  46.0825634  82.4967957
  72.5510086  45.7943535  83.1165028  18.8541460  45.7696724  72.6668930
  19.2676663  45.1961279  73.3120871  18.5429513  46.5179873  73.1762171
  25.0932145   6.8050420  82.3565769  24.4625640   7.5040829  82.5293636
  25.5673456   6.7009109  83.1815529  20.2449942  44.9961948  75.0030041
  19.6069229  44.4012117  75.3968239  20.9704137  45.0166941  75.6271648
  13.1660879  45.5695391  64.4020796  12.3347592  45.8299494  64.7987080
  13.2125556  46.0742521  63.5900784  22.6215029  28.7073278  42.2803020
  22.3882079  29.6280193  42.1614313  22.6893449  28.3606482  41.3906717
  75.0573181  67.0612433   6.0813673  74.5286702  66.5028885   6.6514642
  74.7555779  66.8544045   5.1968343  54.7871113  24.4782639  65.7313585
  55.6001806  24.6322584  66.2124395  55.0409603  23.9024043  65.0101233
  42.4675512  30.8082080  69.4914150  43.0548954  31.1244321  70.1778984
  41.6397381  31.2589669  69.6580744  78.0942367  99.5687797   4.0534647
  77.5879215 100.0256756   4.7251184  78.6008381  98.9167002   4.5375974
  50.5548810  85.1439741  14.2413576  50.1412295  85.9289411  13.8822515
  51.0826789  85.4646066  14.9726923  97.1941925  25.0103664  77.0797968
  96.4879478  25.2461314  77.6813507  97.2313811  25.7368302  76.4576244
  68.2769526   0.6739370   9.4177492  68.8243321   1.0886756   8.7509687
  67.5763676   0.2495376   8.9224775  29.5770597  93.6876488  74.9781227
  29.2622042  93.3819199  75.8287859  29.3072939  94.6051979  74.9385357
   4.1014263  31.6214347  62.9176712   4.9253750  31.3891578  62.4894333
   3.8433173  32.4473524  62.5084352  50.4369293  71.7519119  66.5422685
  50.3780888  72.6066807  66.1154897  50.3258227  71.1209586  65.8310850
  46.9176267 101.9174173  24.0206583  46.4408420 102.1214512  23.2161195
  46.6744183 102.6168945  24.6271379  30.0428367  68.3380318  67.6760960
  30.5670333  67.8739595  68.3288479  29.5033264  68.9413929  68.1870890
  87.0951316  13.3055583  20.8873232  87.0135889  14.1777889  21.2730653
  86.6555843  12.7263204  21.5098245  20.0599074  51.3444805  32.6308775
  19.5447350  52.1493483  32.5759840  20.7656622  51.4680767  31.9961619
  36.9945400  93.1129959   9.8608263  37.7815925  93.5088756  10.2350767
  37.1999571  93.0031803   8.9323957  23.1636022  69.8174122   5.4456957
  23.5968291  70.5012157   5.9565408  23.8657604  69.2086580   5.2162988
  23.6795831  44.6625996  85.7991982  24.0022063  43.7887049  85.5790806
  22.9300904  44.7944880  85.2185917  27.7647018  55.0217628  88.3727360
  27.1621466  55.0423336  87.6292706  27.4496698  54.2997122  88.9164543
  34.6982598  37.4424314  59.9503183  35.3590369  36.7502642  59.9276924
  35.1993561  38.2544923  59.8748732 101.0234518  19.3889725  51.4302540
 100.4295452  20.0628948  51.0995913 100.4458625  18.7210381  51.7996931
  39.1705036  37.1670198  76.9707155  38.4755611  37.8093696  77.1144819
  39.8160410  37.6283383  76.4352751  49.9663591  35.5786633  73.9769793
  49.9174118  35.7426858  73.0352116  49.2660618  36.1140418  74.3500566
  25.7088566   9.6288007  86.4697742  25.9414005  10.5572689  86.4798737
  25.2565336   9.4861180  87.3012066   1.0452826  22.4414086  63.6609983
   1.3434951  22.4755692  62.7520800   1.7787597  22.0548630  64.1393566
  10.8985351  53.3986637  26.6237600   9.9421762  53.3586478  26.6203745
  11.1767172  52.4855302  26.5528066  27.8519154  30.5395794  72.7362967
  28.6524367  30.0521541  72.9307508  27.1824765  29.8649836  72.6222658
  63.0178045  67.3082533   5.1995809  63.1030844  66.4981738   5.7023103
  62.9298924  67.9932943   5.8623274   0.3280685  23.5090852  55.4360962
   0.8570156  24.2310476  55.0966597  -0.1921984  23.2202125  54.6863604
   0.5794341  38.7414861  76.1951303   0.5479246  37.9414749  75.6705141
  -0.1520234  39.2681599  75.8729267 101.2050922  29.0987301  89.3163681
 100.2538909  29.0597653  89.2167187 101.5251632  29.3695426  88.4558773
  45.6743444  25.6378865  79.3972731  45.8452142  25.2977467  80.2755356
  45.8514751  26.5761042  79.4651365  23.2685542  62.8414631  52.5998831
  22.6123929  62.6825619  51.9213295  22.7936292  62.7290726  53.4233189
  59.2420124  82.0744398   0.5840070  60.1238941  81.7080954   0.6496294
  59.3810223  82.9951170   0.3620584  67.3363773  33.6201183  26.8019350
  68.0019156  33.1257240  26.3235338  67.8331936  34.1467277  27.4281080
  15.8636022  40.6786585  84.6365738  16.6796792  41.1110306  84.8881721
  15.4511583  40.4432678  85.4676628  27.6989794  45.0908136  78.8033342
  27.6027608  44.8595810  77.8794765  27.4566722  44.2945242  79.2760277
  25.4888606  39.3727088  50.8794022  26.4456606  39.3587208  50.9032917
  25.2719259  39.3331146  49.9479485  25.2096057  26.6690540  74.5312357
  25.3207517  25.7251740  74.4173527  26.0032034  26.9504666  74.9864721
   9.9975860  76.7355108  87.6262188   9.5175260  76.1285782  87.0628357
   9.8987377  76.3738966  88.5069561  31.3491820  88.9498690  21.3779314
  31.7679720  89.8039177  21.4849432  31.9517969  88.4555509  20.8222921
  39.3042068  81.3578084   2.5301893  39.8602183  80.9949782   3.2197149
  39.5452096  82.2833159   2.4903734  36.0493978  18.0743352   5.8327730
  36.2204298  18.6431066   6.5834196  36.8337282  18.1522075   5.2896364
   2.1500780  28.9836407  72.0624113   1.7046836  29.4238496  72.7863407
   2.9906297  28.7097549  72.4294138 108.3067531  56.5817785  86.4562607
 108.1411762  57.5176334  86.5702534 109.0644998  56.5419436  85.8727646
  96.4935077  37.1209335  81.9246960  97.3541571  37.2715187  82.3156357
  96.6076769  37.3442149  81.0009289   8.5323876  29.8470998  81.3417244
   8.2518101  29.4579887  80.5134201   7.9869092  30.6279373  81.4364719
  49.6987342  90.5486801   8.4708650  50.3187643  90.5434468   7.7416475
  49.5526253  91.4766958   8.6543710  20.6238794  48.1866550  72.2226095
  19.8968589  47.9585314  72.8019476  20.8050108  47.3817682  71.7372465
  38.1863666  88.7838745  76.7965412  38.0754876  89.7323704  76.7309856
  37.6166081  88.4284210  76.1144400  38.6272645  14.6303689  28.0052710
  37.8088260  14.5578849  28.4963298  39.3121219  14.4901955  28.6591482
   7.4683821  34.5364094  59.6786404   7.2362417  33.7983775  60.2422476
   8.3401054  34.3201041  59.3476677  64.0687751  72.5747064  10.2960832
  64.8320388  72.9578164  10.7283933  63.6891340  73.2971146   9.7958524
  32.2290974  70.0449028  11.6871317  31.4983125  69.4292465  11.7432649
  32.7630176  69.7175148  10.9632642   7.1543145  44.1675329  68.1599665
   7.6823509  43.4258223  68.4553862   6.2753797  43.8057756  68.0466652
  39.9249872  10.4366771  12.6268251  40.0193437   9.5141260  12.8639562
  39.0550693  10.4946557  12.2317178  91.0646865  11.5296022  18.0104978
  90.7076774  11.6143552  18.8945730  91.3137398  12.4209920  17.7663000
  55.3389454  27.4339795  38.1295562  56.1405611  27.0768714  37.7472973
  54.6372128  26.9011950  37.7554703  14.9149668  76.7232275  86.6001129
  14.0306568  76.7250824  86.2337494  14.8160839  77.1178484  87.4665642
  66.7575477  64.3853810   0.4414423  66.3686632  64.3859127  -0.4331915
  67.5385665  64.9322346   0.3566415  35.9622455  52.4852705  76.5361118
  36.4134479  53.3058739  76.7342615  35.4775882  52.6668119  75.7308912
  49.9861728  67.3212829   2.8215654  49.3558334  67.8339198   2.3154981
  49.9983870  66.4656511   2.3926408  74.4053816  76.1925700  16.5721471
  73.9789056  76.3816169  15.7363184  73.8021039  75.5996182  17.0201452
  48.3921169  93.5327843   4.4709356  47.5638865  93.9233711   4.1921766
  49.0560328  93.9776304   3.9440973  45.3866005  33.5360050  81.9745541
  45.0078011  32.9911399  82.6643753  45.6318951  32.9163504  81.2874699
  57.2375082  93.7510612  26.4848478  57.5173949  92.8466728  26.3435228
  56.2842773  93.6986902  26.5543993  95.7596267  64.4720507  56.4477777
  95.6779791  64.1955519  55.5350304  95.3208913  63.7831211  56.9468975
   3.1187901  54.8117542  84.8996258   2.8769809  53.9085436  84.6947575
   3.2052827  55.2360535  84.0459728  64.8554102   4.2212287  11.3231905
  64.7856156   4.8780004  12.0160158  65.5503318   4.5485059  10.7520445
   0.5684434  15.1762772  60.5754042   0.8854903  15.4027748  61.4497089
   0.4468084  14.2272425  60.6031466  47.1665930  69.6300962   8.2369669
  46.9096338  69.7969726   7.3301275  46.5390490  68.9774135   8.5474928
   4.9525401  42.4173307  85.8617878   4.2269111  42.2758293  86.4697933
   5.3087819  41.5426016  85.7063103  58.7431002  35.6537724  29.7838235
  58.4336758  34.9812627  29.1770124  57.9436684  36.0335398  30.1484013
  58.6222467  42.7506629   1.4926012  59.2459164  42.5327388   0.7999380
  58.4371672  43.6809913   1.3642461 100.7722535  75.4187809  56.9440651
 101.2131157  75.5572092  57.7823448 101.4405241  75.6134187  56.2869835
  31.4798265  74.3092182   6.0610349  30.5802457  74.5162824   6.3142450
  31.8435572  75.1437905   5.7653673  88.1025896  15.9296266   0.2471216
  87.2272847  16.2284604   0.0005968  88.5824881  16.7332736   0.4473264
  26.4020038  48.3966398  56.0196161  26.5194654  47.6268768  55.4629326
  25.5044937  48.6816645  55.8479548  81.4755086  15.4813758   0.2887685
  81.2554333  15.5993692  -0.6352846  80.6541351  15.6425992   0.7530840
  48.1136130  92.8373745  26.6322668  48.5434471  91.9997719  26.4593752
  48.7471007  93.3281019  27.1558244  23.6864852 102.5793865  32.4530370
  24.3585585 101.8988636  32.4909551  22.8674816 102.1174171  32.6320608
  41.1382246  32.9706979  50.5782890  41.1901999  33.1686425  49.6432209
  41.0335541  32.0200014  50.6163979  18.7495029  19.8131490  50.5038214
  19.1486061  20.3917646  51.1535549  19.4919884  19.4115627  50.0525188
  73.8366730   3.0440704  21.9721563  74.0395153   2.7023021  22.8429468
  74.6353213   2.8974668  21.4652975  84.4565961  13.3973590  11.7589147
  84.1594431  12.9699413  12.5621851  85.2570364  12.9296104  11.5207250
  17.6180029   8.8857949  77.0955706  16.7471385   8.6632085  77.4246359
  17.6404011   9.8426825  77.1054029  29.0338492  34.8152351  78.3897591
  28.8854527  35.7466793  78.2265902  28.2777834  34.3796992  77.9961777
  24.2481661  53.5140181  59.7018433  23.6601639  54.1436195  60.1190758
  24.1451502  53.6752081  58.7639523  10.3590344  82.0968535  19.2281683
   9.7352098  82.8226760  19.2441518  11.2118028  82.5164297  19.1142805
  26.2851834  35.0403357  81.4019489  25.8525538  34.3108058  80.9582710
  26.1150336  35.7968283  80.8407021  13.5519874  47.0188904  32.0982599
  14.0820217  46.2706041  32.3727727  13.3856428  47.5039577  32.9065132
  94.0343068   8.4374992  11.3581426  93.2150743   8.6402265  10.9064825
  94.6403430   9.1215650  11.0735185  70.3291378  16.7833511   3.6494882
  69.5827401  16.1918775   3.7458189  70.0537265  17.4094478   2.9798753
  61.7121553  19.9985993  56.4296198  60.8483362  19.7500587  56.1005735
  61.9755745  19.2668045  56.9875813  26.5156198  56.5766144  54.6734333
  25.9551454  56.8713570  53.9556408  25.9260511  56.5060425  55.4242039
  54.0752672  91.6697529   3.2160337  53.2958006  91.9946888   3.6666734
  54.0400611  90.7201460   3.3311136  45.6822729  30.1729512  74.0333414
  44.9928904  29.5687675  74.3089247  45.9986496  30.5630803  74.8481607
  60.4768870  28.9941493   1.5352304  60.7124445  28.4145204   2.2596414
  60.3387151  29.8474208   1.9464071  68.7820576  86.0738352   8.5144003
  67.8854560  85.8622673   8.7743528  68.9531826  86.9256976   8.9159925
   6.8028292   2.2669164  27.6402242   7.7415689   2.0827714  27.6072176
   6.3938936   1.4080945  27.7471407   6.5198263  19.1776267   1.3582857
   5.8042511  19.0593568   1.9829424   6.7814764  20.0922624   1.4641721
  24.5165156  94.9310615   6.2550409  24.2309140  94.0480068   6.0207708
  23.8382529  95.5046585   5.8984335  11.6825378  57.9482460  79.8245621
  11.9980145  58.8426113  79.6948862  12.4738801  57.4375439  79.9954224
  43.3497143  40.6921577  81.7115307  43.5373449  41.0835457  82.5646687
  42.4980831  41.0527420  81.4646816  87.5640903  40.9114925   9.4879778
  87.7802274  40.9401599   8.5559423  88.0624125  40.1677028   9.8266370
  49.0213728  24.2455029  80.4791451  48.9857531  23.7870669  79.6396208
  49.5182180  23.6601758  81.0507774  85.2167842  19.5487062   5.1104219
  86.0454402  19.5384065   4.6314104  85.4324481  19.9472944   5.9535463
  67.8183411 100.0795963   3.9447744  67.0304106  99.5408609   4.0166052
  68.1424283  99.9131372   3.0596216  61.1535667  77.0985344   0.3804643
  60.5621504  76.6920832  -0.2529852  60.6956886  77.0239594   1.2177332
  49.4184589  31.8538237  82.9686928  50.2471352  31.4177299  83.1670666
  49.0716457  31.3774014  82.2143936  17.9358077  62.7733707  73.3566761
  18.4908938  62.1010065  73.7516832  17.0679545  62.6164675  73.7287521
  60.9578419  18.3397722  79.9006271  60.8341789  18.1412053  78.9724493
  61.9006777  18.4769630  79.9926662  30.0769864  81.2710932   5.6545217
  29.6218740  81.1928060   4.8160894  30.9865313  81.4519670   5.4173620
  95.5835650   2.6569454   0.8171709  94.7803400   2.4286691   0.3492506
  96.0246918   1.8192998   0.9585436  93.5535762  12.3249332  25.2985246
  93.3309934  12.4431697  24.3751009  93.1320999  11.5009967  25.5428941
  40.0197800  70.4982820  15.3893144  39.1728704  70.0523439  15.3785761
  39.9487855  71.1299827  16.1049612  96.1742184  17.1553031   4.4820554
  95.6084869  17.4316303   3.7610681  96.2781093  16.2120143   4.3569906
  82.0260838   7.7861587   5.2447851  81.8122027   8.1577340   4.3889673
  82.9581807   7.9709855   5.3599699  84.3167962  55.0289392  73.9727736
  84.2928661  54.1212320  73.6699152  83.9386691  54.9982643  74.8515844
  80.3050078  58.5726452  43.5550308  79.7556628  59.3533230  43.6257267
  79.7642578  57.8664351  43.9087009  91.0592196   1.7525617  30.6776483
  91.2340961   0.8135930  30.6145246  90.3173075   1.8980161  30.0905855
   7.0829475  24.9118066  72.5906801   6.8075424  25.6819654  72.0934486
   6.5049124  24.2116785  72.2874880   2.5439131  42.0585346  87.1240616
   1.5882406  42.0952463  87.1637249   2.7387202  41.1554241  86.8737125
  34.7580886  26.8462610  87.3513412  34.3046355  26.3203549  86.6925240
  34.2602158  26.7031527  88.1562519  22.1319994  26.2777034   3.2491071
  22.3269876  27.1995155   3.0803735  21.2633356  26.2863294   3.6510809
  67.1716021  93.7056663   6.2103326  66.9521354  94.0658501   7.0695932
  68.0543207  94.0305117   6.0328062  22.9520917  30.6883621  76.3109922
  23.3542418  30.0931144  75.6783915  22.0110941  30.5965948  76.1615515
  57.4590335   9.8367826   8.5987432  56.8486795   9.3196670   9.1243799
  57.8365788   9.2086355   7.9830129  46.2591791  56.4546442  85.6438065
  45.4062319  56.8354130  85.4346943  46.8818569  57.1665907  85.4966927
  30.5472231  55.2369785  87.8603458  30.9231496  54.4501019  87.4657154
  29.6116590  55.0467539  87.9293823  53.0492735  40.1680279  76.6990566
  53.9302969  39.8185515  76.8328333  52.8976631  40.7321167  77.4573755
   3.0257329   7.7664796  13.8492830   2.6901063   6.9616405  13.4545381
   3.8224634   7.4954168  14.3053205  99.6845485  22.8663564  67.9515600
  99.4100870  22.8893709  67.0348454 100.0380988  21.9852638  68.0736780
  25.1001500 102.1588161  15.7642992  25.4213380 102.9453781  16.2052019
  25.7396601 101.9946888  15.0712450  62.1242259  18.8073388  33.9245851
  61.8058405  19.3521396  33.2048280  61.7972944  17.9303638  33.7239320
  54.0356325  92.6882198  23.0771120  54.2393659  92.8301504  24.0015466
  53.5898446  91.8413952  23.0573709  58.5318993 101.8211296  25.5018766
  58.4801863 101.2456396  26.2650068  57.6365327 101.8531683  25.1649435
  29.6198177  46.2890291  80.8802414  29.3171668  46.9786596  81.4710522
  28.8905931  46.1552429  80.2748013 105.8778784  11.1209813   2.7621229
 106.6904399  11.6214649   2.6880033 106.1624763  10.2326337   2.9767759
 105.8652027  86.2012672  82.2133827 106.4482332  85.5235386  81.8713188
 105.4880656  85.8159256  83.0042744  78.5750641  51.0657597  78.8956928
  77.9090823  50.4153633  79.1185951  79.3312038  50.5487633  78.6178350
  15.2773464  84.3509483  71.1742067  15.1915503  84.8690414  71.9744825
  16.1185563  84.6189690  70.8043957  30.6981897  38.3415055  84.4214153
  31.4676595  38.7381482  84.0129757  30.9951687  38.0870128  85.2950668
 103.5250973  77.0573905   6.1624773 103.2395862  76.3334659   5.6051119
 103.0665849  76.9170907   6.9909151 104.4520638   9.2647687  16.7070634
 105.4080079   9.3135826  16.7115648 104.1677592  10.1019994  17.0737322
 106.7509983   5.6598274  19.8506506 106.3769958   5.1082889  19.1635091
 106.2342641   5.4550306  20.6299265  54.9174438  16.4769784   8.3049257
  55.5814598  16.8202964   7.7070577  55.1238534  16.8792240   9.1486223
 109.4336960  26.5778819   7.4434335 108.5172842  26.3256351   7.3303278
 109.4338272  27.5300828   7.3457391   9.4432243  11.9435111  29.7545965
   9.7850164  11.3558523  29.0807493   9.2115244  12.7422563  29.2807157
  70.5500625  91.4606383  49.2631681  70.0666379  91.8004587  50.0161989
  70.4391693  92.1282556  48.5862501 108.9093285  52.1505070  85.2555180
 109.0221313  52.5182152  84.3789959 109.5764565  51.4667654  85.3160954
 104.1444871  14.1029636  13.5240133 104.3619130  13.3076707  13.0377348
 103.2402585  14.2956344  13.2760580  72.8002002   4.4782678  19.6345194
  73.2406179   3.8398353  19.0735681  72.9984393   4.1909877  20.5258138
  56.5036749  41.2595954  22.5534589  56.6650175  41.7790666  23.3410795
  55.7944332  40.6656828  22.7993734  74.1292356  88.2900789  18.8663633
  73.9386486  88.6856559  18.0158193  73.7518762  87.4120763  18.8121183
  48.1842470  69.6824360  87.9316425  47.3212194  69.5502329  87.5392914
  48.7914944  69.6456766  87.1926308  60.8966182  96.0799959   5.7471998
  61.4071463  95.4137876   6.2073763  60.0103711  95.7201269   5.7112367
  96.0957695  58.1061554  82.9385471  96.4559973  57.6974773  82.1514893
  95.7296599  57.3779202  83.4404087  42.6699178 100.3131321   3.6921651
  41.8150400 100.1149776   3.3098657  43.0999278  99.4616583   3.7716253
  51.0894012  40.6654549  69.9574709  51.7753029  41.1108446  70.4548597
  50.3099775  40.7354593  70.5086803   1.0631456  77.5065184  87.2576427
   0.2970455  77.8678226  87.7034950   1.7672777  77.5685453  87.9030800
  72.4695967  70.7325259   5.3201444  71.5325426  70.8259430   5.4917104
  72.7006768  71.5151551   4.8198183  40.1449919  33.0979943  78.6720705
  39.3550420  33.0309486  78.1356812  40.3295040  34.0364575  78.7104511
  99.4550202   6.6034070   2.5853021  99.0042017   7.1150104   1.9135435
 100.1928375   6.2023155   2.1259649 109.3251798   6.6972152  21.5356596
 108.4630225   6.7505256  21.1232526 109.9149201   7.1234933  20.9137876
  19.4155097  26.1453652  63.5869455  19.7647369  26.9175553  64.0319109
  20.1690555  25.7703161  63.1311607  69.2793916 101.3722399   5.7516439
  70.0100850 101.6046169   5.1786573  68.7044214 100.8393314   5.2024229
  10.9426904  44.4183254  76.7156887  11.1219907  43.4789276  76.7558050
  11.0827315  44.7273302  77.6107502  73.0383204  74.2289761  18.4183271
  73.3077811  73.5178640  17.8369959  72.9291438  73.8115170  19.2727525
 106.1575769  94.7562006   0.9343012 106.2492489  94.4358137   1.8316133
 107.0566629  94.8385933   0.6163652  42.3679113  10.7520795  88.0168819
  42.6917505  11.5957701  87.7013683  42.4545574  10.1659489  87.2651005
  40.9242535  32.7586794  44.9531364  41.4886665  32.2455978  44.3748474
  41.2465906  33.6559510  44.8680830  60.6752681  99.1034201   4.1655882
  60.2149128  99.3379190   4.9713857  60.2036523  99.5702866   3.4757669
  11.1138511  55.0670528  37.1440911  11.5627360  55.1403427  37.9863262
  10.2859008  54.6335030  37.3508859  18.8159406  70.4360342  62.3493338
  19.2792737  70.3386307  61.5174294  18.2252967  71.1761427  62.2093010
   8.0887282  52.1115446  88.5384941   7.3851198  52.6677895  88.2041931
   7.6394212  51.3449144  88.8943481  55.0425648  90.2078917   9.9451978
  54.9035321  90.7771733  10.7020433  54.3994092  90.5042794   9.3011911
  18.8676667  58.6134863  70.0267267  19.4666088  58.3186865  70.7127285
  18.7363636  57.8419495  69.4756126  18.4779763  41.9012451  85.1520920
  18.7986636  41.4786673  84.3553352  19.2650521  42.0566797  85.6741905
  90.8802451  65.1856327  77.5235176  89.9324168  65.2203226  77.6525497
  91.1859490  64.5441389  78.1648207  98.1150736  47.4618101  64.9472618
  97.7693464  48.1681824  64.4016027  97.4704219  47.3629570  65.6478930
  90.9224389   9.9944202   3.9889391  90.3954897   9.4063465   4.5299871
  91.6964743   9.4799796   3.7599142   7.8513342  73.2605267  73.9600563
   7.9037273  72.7678585  73.1410551   8.2330471  72.6767349  74.6155834
  16.6480899  78.0493498  66.2082100  17.3130584  78.2498503  65.5495358
  15.8955109  78.5862017  65.9599161  93.5452387   2.9434530   6.1558015
  94.1811607   2.4743406   6.6959531  94.0183876   3.1435911   5.3481443
  74.7023547   7.6149694  23.5238702  75.0810168   7.2526876  22.7228696
  74.1142204   8.3061019  23.2194669  82.5747345   6.9161741  17.0487840
  82.5424585   6.9911567  18.0024965  82.5087527   5.9762756  16.8800600
  28.2925868  75.4559326  59.8107004  28.9781904  74.9438953  60.2396488
  27.5168657  74.8963928  59.8481607   2.7807554   3.6630575  17.0992048
   3.1690224   2.7907840  17.1671827   2.0178469   3.5422460  16.5338667
  89.2875408  84.8753121  15.7610376  89.7712587  84.3217400  15.1480062
  89.1214107  84.3094066  16.5149458  34.6123171  55.9442282  72.2655106
  34.4011497  56.8744373  72.3452044  34.4946599  55.7507324  71.3354874
  91.5055726   0.1878778  11.2623174  91.0398505   0.9669296  10.9583337
  91.1803553   0.0460807  12.1513422  34.8634243  32.0662856  77.9346943
  34.4580340  31.2086487  78.0625534  35.7837963  31.8721175  77.7573538
   6.3815445  58.8081837  86.9058895   6.9020087  59.3878508  87.4620724
   5.5259758  58.7706137  87.3334694  99.8892257  22.4070779  15.0007494
  99.2716787  22.6393834  14.3072851 100.7477925  22.4440757  14.5791776
  44.8048067  50.8896875  84.7972584  44.4635534  51.5117979  84.1547871
  44.1058111  50.8077478  85.4460335  31.7489235  96.1327627  12.0401247
  31.1560600  96.8828609  11.9943388  31.4202889  95.5268362  11.3759859
  36.7470217  59.4376564  46.9771338  36.4599085  60.2793264  46.6230249
  37.6976180  59.5211172  47.0521832  13.4674549  58.1428719  75.1822472
  13.3948851  57.7783489  76.0643387  13.3553040  57.3899317  74.6019602
  37.6440978  52.2709465  71.1422443  37.4782848  53.0872583  71.6138077
  38.5552168  52.3399210  70.8570480  62.7579961  11.8603650  10.6375940
  62.7108858  12.2838203  11.4947374  63.6953357  11.7852250  10.4587610
  31.2179422  30.5211163  70.0695658  30.7631731  29.6805763  70.0156403
  30.5439615  31.1405802  70.3492880  43.8640976  44.1768026  81.4294529
  43.1868839  44.3957043  82.0695210  44.6844387  44.2353582  81.9191933
  30.3312755  57.4401331  86.3774586  31.2138534  57.7633333  86.1962605
  30.4691720  56.6139078  86.8406677  14.2924532  11.5104095   1.1489637
  13.3795818  11.6151372   0.8807619  14.5315298  10.6338540   0.8477552
  45.8056927  34.4768977  76.0604000  44.8553801  34.5791006  76.0085058
  46.1208200  35.3239679  76.3756704  63.9512674  21.3768999  14.0634687
  63.3595202  21.8645469  13.4905298  63.9047436  20.4755966  13.7445409
  35.7106042  49.6792698  68.1964827  36.3727021  49.7384834  68.8852167
  36.0058403  50.2961349  67.5267506  62.4785995  56.8143082  82.9500484
  62.2774220  57.4053621  83.6755943  61.9324589  57.1262789  82.2284985
  20.3795314  46.0387516  82.6051712  21.1962056  46.4710665  82.3554134
  20.5110812  45.1214409  82.3654556  11.8835688  63.1818533  74.6492195
  12.2628772  62.3069286  74.7320557  10.9794807  63.0801010  74.9467087
  61.6685938  95.3206375   9.1332777  62.2300075  94.5526293   9.0274198
  60.8217739  95.0489166   8.7793024   7.1208509  17.7202884  45.7572801
   7.4999937  16.8453304  45.6740434   7.8256830  18.2526485  46.1261041
 107.4541679  78.9534616  82.4015522 107.8478551  79.4858742  81.7103386
 106.7359347  78.4919548  81.9686794  22.9804730  69.5627975  48.6181211
  23.4995604  69.1491890  49.3078375  22.9918385  70.4947853  48.8360643
  17.7454686  77.2013855  58.8615036  17.3428738  78.0271244  59.1303921
  17.0502234  76.5514612  58.9638042  96.6644857  20.3063623  13.4664686
  97.4765847  19.8891345  13.1789835  96.0798261  20.2379409  12.7116640
   7.0196947   1.1152545   6.2517984   7.3504623   1.3772575   5.3926237
   6.6341051   0.2512542   6.1067159  45.6079769  29.7901797  84.4485664
  46.0850668  29.4309425  83.7005329  45.5364084  29.0580392  85.0610065
  87.2042297 101.9368151  12.3321779  87.6799272 102.5635078  12.8773363
  86.2958025 102.0049122  12.6260431  62.0781516  91.9368914   5.2709444
  62.6888536  92.6736048   5.2938993  61.6800045  91.9286230   6.1413725
  20.6848081   3.9080564  10.8548601  20.7769903   3.0786077  10.3860910
  21.5153726   4.3603174  10.7070215  87.2535967  87.4175170   0.3676660
  88.0503439  86.9200399   0.5519064  87.0005583  87.7864960   1.2138612
   3.3520114  31.8566918  67.4259949   4.1859904  32.1883941  67.0933008
   3.4820139  31.7872882  68.3717823  87.0799634   8.5945693   1.5753324
  87.8493891   9.0220205   1.1991651  87.4387202   7.9261772   2.1590860
   1.7319842  56.0977697  82.2963905   1.1136551  55.5412006  81.8229580
   2.2779837  56.4850760  81.6122055   0.9855298  71.7587280  80.7371140
   0.8653282  71.3065243  81.5721607   0.4127285  72.5234938  80.7942581
   3.0599916  33.4414649  48.3721304   3.4668058  32.7703214  48.9201260
   3.4951532  33.3543491  47.5240278  12.2452521   8.9804816  79.8519993
  12.4851584   8.1051636  79.5478678  12.2713625   8.9178127  80.8067894
  35.6493592  29.8316908  48.1861973  34.8898530  29.5471239  48.6945295
  36.3039875  29.1484761  48.3308125  68.4523748  82.0377233  18.3169897
  68.5245227  81.1989978  18.7725790  69.3569564  82.2838595  18.1236513
  62.4550149   6.7738429   3.1598432  63.0850551   6.5545837   2.4733980
  61.7338727   6.1582509   3.0285604   4.1583851  37.4496675  80.7427406
   3.5135856  36.7710948  80.9427547   4.5430067  37.6719522  81.5906143
  22.8769159  22.7825141  75.2133989  22.7316141  21.9813299  74.7101879
  23.4694099  22.5189900  75.9174871  32.0692253  31.2147379  47.8088808
  32.3909545  30.3481436  48.0573559  31.2680602  31.3284588  48.3201838
   2.5703606  34.1168475  79.7845030   1.9765992  33.6816955  79.1726875
   3.3163565  34.3821049  79.2465830 101.2031600   9.2203609   2.8775461
 100.4759214   9.0757743   2.2722013 101.9873497   9.0619317   2.3520239
  16.4398408  27.0965314  87.7509403  15.7448494  27.1287990  87.0935440
  16.3795161  26.2154889  88.1202126  32.1107452  92.2198847  16.9235189
  32.7993019  92.0491198  16.2809045  31.8506898  93.1265762  16.7606981
  85.9164951  14.3574849  15.4589899  85.9103379  14.9275962  16.2278612
  86.8221984  14.0550081  15.3923471  74.9412877  41.8004600  22.3561914
  74.1055751  41.9066516  22.8106554  75.3493918  41.0447399  22.7787740
  91.8073548  39.3156719  75.7792568  92.4505306  38.6178374  75.6544161
  91.4358021  39.4575143  74.9085903  68.3888507  17.5946847  34.1015203
  67.7918825  18.2996360  33.8507230  67.9510996  16.7949907  33.8098104
  46.2478685  36.0315347  86.9697475  46.4920902  35.1069021  86.9292355
  45.8876085  36.2222767  86.1036873  89.7842214  17.9708616   1.2003000
  89.3899045  17.7563421   2.0457132  90.0386379  18.8900892   1.2810285
  11.1087930  43.5493946  85.2035999  10.4726148  44.1761589  85.5480957
  11.4839792  43.1368256  85.9815884   3.1399187  14.8705999   6.0711534
   3.4271797  14.7182647   5.1708658   3.2958230  14.0377609   6.5164716
  21.5984377   4.2156497   4.2322691  21.8892130   3.4600059   3.7217004
  22.1393474   4.9399034   3.9174516 104.8339531   2.5153295   9.1617544
 104.5242140   1.6197339   9.0268381 105.7858083   2.4332515   9.2206056
  59.5401859  76.9025326  88.4324741  59.2823696  76.5753031  87.5706768
  59.0700150  77.7312040  88.5245037  57.6036835  63.5013437  83.8983536
  57.6774359  62.7866507  84.5308208  56.6641140  63.5783958  83.7325001
  35.5523515  26.4835930  69.8966217  35.6520820  25.6741095  69.3955994
  35.8490944  27.1718645  69.3012571   9.3096179  62.4548578  86.6784763
   9.1823542  61.8715906  87.4267006   9.1042143  63.3264780  87.0165920
  55.8114586   7.3048488  35.6203706  56.4046905   7.0983068  36.3426168
  55.5826566   6.4535037  35.2474172  42.4854326  53.5032463  55.3621531
  42.0422792  53.4916925  54.5137930  43.2528543  52.9445362  55.2391291
 104.5974753  10.1719180  32.5056036 104.4271348   9.6362535  31.7308290
 103.8609908  10.7822744  32.5414426  62.2079467  90.4519632  31.2342127
  61.2988542  90.5797580  31.5052278  62.6352118  91.2862852  31.4280756
  30.3540492   5.4323453  79.4620323  30.9705806   4.8191753  79.0618515
  30.8808422   6.2065864  79.6602058  26.7167553   4.6674625   6.1152895
  26.8319162   4.9597684   5.2111204  27.2920355   5.2368919   6.6262109
  91.8720366  57.1262598  51.6024637  92.7597512  56.7744398  51.5359926
  91.4050413  56.4959431  52.1509600  12.8999722  37.1610284  73.6413383
  12.3469532  37.9245329  73.8070679  12.4330902  36.4333987  74.0522003
  17.5652945  28.0735898  75.5065918  17.4913180  29.0083838  75.6987381
  16.6614723  27.7585220  75.4982710  39.2793812  59.8119780   9.8037965
  38.9689972  58.9776549   9.4519479  40.2096831  59.6676901   9.9768598
  19.1897520  10.9179679   2.8925951  18.2901129  11.0925428   2.6161821
  19.5871862  10.4702608   2.1457060  63.2645987 101.5715340  25.4037721
  62.5928425 101.8613556  24.7865350  63.1154941 100.6304863  25.4956110
  13.1167519  58.8826942  51.8181562  13.5705459  59.5935011  51.3653231
  12.6306188  58.4310293  51.1283016  28.8293862  38.9363289  87.5247002
  28.6260366  38.7522507  88.4417629  28.7376070  38.0912113  87.0847130
  12.2505605  59.3532658  64.9420929  12.4356127  59.9055147  65.7017088
  12.9712272  58.7235928  64.9224949   9.5381445  87.1973801  36.6589856
   8.8769442  87.8768253  36.7909217   9.3599945  86.5534782  37.3444676
  48.2217573  89.8603061  10.6467683  47.9428707  88.9507964  10.5407007
  49.0032386  89.9365881  10.0993211  54.1727638   7.4173474  84.8227215
  54.8020172   7.7677494  84.1922569  54.2375088   8.0034536  85.5767250
 109.1842792  10.0701133   1.9867857 109.2737601   9.4327918   2.6953371
 108.9529321  10.8875934   2.4277456  11.0726810  73.1499147  82.1941566
  11.1742389  73.7712574  81.4731503  10.1511204  72.8932619  82.1611500
   4.0761879  59.0420723  67.1814489   3.7076294  58.2675123  67.6062393
   4.0410867  59.7231340  67.8531265  24.3414807  44.7668076  70.0911331
  23.6639118  44.2099953  69.7076082  24.6466446  45.3084898  69.3633318
  19.9552393  59.3595552  78.4986639  19.9304414  60.1364422  77.9400396
  20.5864191  58.7789249  78.0735636  33.9575219  42.3636007  62.8363991
  33.3411646  41.6825628  62.5670910  33.7900305  43.0894947  62.2353554
   6.2342876  70.1064777  65.2088070   5.5536032  69.9345779  64.5581532
   6.9796926  70.4221344  64.6979618  35.8430362  40.4226685  62.6689959
  35.1297569  39.9278951  63.0723095  35.5133343  41.3198519  62.6181030
  32.6119375  64.4703436  69.9978495  32.2686338  65.2801609  69.6202707
  32.5440907  64.5995569  70.9438610  63.1988668  28.4915686  68.0787420
  62.4162245  29.0080857  68.2708788  63.2634735  28.5008430  67.1237659
   7.8687382  52.5142050  69.1581011   7.6736546  52.2672653  68.2541084
   8.0599713  51.6852665  69.5968771  26.8940902  50.9510469  44.3080568
  26.5026307  51.5571404  43.6790514  26.9137764  50.1105642  43.8504171
  89.3495344  71.4376822   3.2709463  88.8378834  71.9462064   2.6417883
  89.1603206  71.8433049   4.1170557  49.9258243  90.6411817  26.9929369
  50.3922676  89.8696092  26.6714723  50.3624986  90.8592441  27.8163393
  21.4424658  87.9936790  51.5547514  21.2605476  88.7864304  52.0594120
  20.5911636  87.7328205  51.2033653  20.6841588  67.7088785  82.1466064
  21.1314464  67.5849962  81.3094521  19.7542763  67.6233625  81.9362831
  59.9451731  83.6251500   5.3906782  59.5210932  83.1546595   6.1083372
  60.7808350  83.1743601   5.2694948 102.6681421   4.2382804   9.0997083
 102.8300784   5.0924531   8.6992033 103.4849403   3.7555829   8.9729173
  58.6790155 102.7215078   5.9476717  58.9046191 101.8135527   5.7453115
  58.5792588 102.7370813   6.8995340   4.9569734   2.7970210  22.2413690
   5.1212725   2.0576183  22.8266199   4.4605001   2.4213020  21.5143354
  76.1757145   9.0706388  33.4564836  76.4057482   9.5745412  32.6758440
  76.3154138   9.6777431  34.1832216  38.1478047  44.3469191  69.9610710
  37.8957748  45.2307129  70.2286816  39.0695548  44.4248676  69.7150278
  77.2472099   7.1892206  14.2639310  76.7046896   6.4024297  14.3173940
  77.7565167   7.0749132  13.4615762  95.9334538  45.7239143  46.0076673
  95.7041881  45.0091735  46.6016443  95.1764915  46.3091937  46.0337885
  40.0194597  45.4669237  81.6495323  39.2541742  45.2098465  82.1638107
  39.6544170  45.8803082  80.8671761  71.7737626  84.9028137  11.7447908
  71.2912654  85.0026324  12.5654371  71.1350273  84.5338753  11.1347635
  26.1511517  78.5790539  83.5109043  26.2216854  78.6905575  82.5628471
  26.9445443  78.9855051  83.8595581  97.8686545  22.7194206  39.4767530
  97.0189283  22.6489536  39.9117620  98.2899258  21.8747512  39.6357877
 101.0823033   6.8519536   7.5786073 100.9414551   7.7690736   7.3434789
 101.5874741   6.4925805   6.8493040  43.3978271  25.8676672  61.5269423
  43.5826206  26.7627859  61.2426090  43.1802177  25.4002881  60.7204485
  17.4093613  12.2404663   9.1723974  17.4891218  11.5017692   8.5689123
  16.5445074  12.6073352   8.9889200  37.5153812  99.0139511  24.0589864
  36.6303817  99.3561819  24.1850240  37.5801189  98.2844761  24.6753557
  58.9182471  89.7357824  10.2392633  58.5529135  90.5571177  10.5681570
  58.1884526  89.3134644   9.7861822  74.1874050  82.8979686  23.8264997
  74.4259905  83.5633376  23.1810529  73.5546898  83.3339742  24.3972833
  87.6033852  31.8236152  17.3537595  88.1879315  31.7795936  18.1104620
  87.8080175  32.6629249  16.9415434  50.4352903  55.9743118  86.5122414
  50.5560017  56.1063242  87.4525738  49.5942497  55.5230665  86.4397430
 101.8466939  78.5401154  33.9934802 102.7850736  78.7278032  34.0146565
 101.7309941  77.8263187  34.6206450  31.0485792  75.0946712  73.0445814
  30.9618306  74.8402786  73.9632702  31.6831422  74.4756365  72.6835299
  34.4670844  88.3937454  61.4694071  35.3316426  88.2235432  61.8433094
  34.2567992  89.2849827  61.7481756  66.3026665  92.1591642   1.2734659
  66.4094757  91.3607266   1.7905004  66.5906070  92.8620222   1.8559797
 107.9087112  13.4562866   2.4305494 108.0623171  13.3378307   3.3678873
 108.6282680  14.0160600   2.1387918  84.5981048  96.0551145  22.4672563
  83.6524318  95.9233644  22.5349386  84.8221182  95.7378843  21.5923746
  95.1242802  19.2958585   5.9874303  95.5878279  18.6533157   5.4503210
  95.5143211  19.2071239   6.8570478 104.4951961  13.0707733  38.3598669
 105.1616619  12.8389350  39.0066297 104.8249266  13.8718931  37.9527815
  38.1977487  84.2954254  84.6738243  38.9493108  83.7355614  84.4790459
  37.7904463  84.4543839  83.8223171  33.1854105  75.8050203  87.3478699
  33.5470891  75.0647736  87.8351688  33.3427382  76.5625763  87.9114151
  22.9279971  71.6480541  62.1494055  22.8867841  72.4610233  61.6458035
  23.8445950  71.5777349  62.4161196  37.0750284  61.2013483  83.2310104
  37.2316742  61.1351919  84.1729927  37.7412152  60.6379604  82.8372765
  50.7803487  95.7499388  11.8788774  50.1973628  94.9923065  11.9273908
  50.7878374  95.9873989  10.9516294  74.4340252   3.1743062  47.3427534
  73.5262893   3.4166921  47.1597290  74.5214771   3.2719339  48.2909393
   7.8354391  13.6173478  21.0986765   7.9983505  14.0079299  21.9572408
   8.6957725  13.3181230  20.8045252  49.7226714  91.2955406   3.3537824
  49.7273313  90.6751087   4.0826662  49.0591835  91.9423035   3.5940130
  71.3971208  93.3151272   3.0713422  72.1142601  92.8954771   2.5961168
  70.9521388  92.5950125   3.5181673  21.0588384  80.2265739  73.3894730
  21.5473604  80.5442715  74.1488409  20.4627347  79.5682144  73.7464857
  25.4223967  47.8870106  75.9019661  26.2101364  47.7625895  76.4313221
  25.4994106  47.2387743  75.2019024  18.0386233  64.2465925  85.4886150
  18.9446449  64.3467331  85.1965046  18.0943751  64.2401457  86.4441681
  97.0886085   2.8484336  21.2340791  96.1712763   3.0823842  21.3755090
  97.3415253   3.3345977  20.4492815  37.1286273  63.1727982  81.4970112
  37.1429968  62.5110912  82.1885109  36.4186287  62.8976870  80.9169674
 105.0242398  35.8121959  10.3613145 104.8586485  35.2651874  11.1291559
 104.2823241  35.6414501   9.7810991  46.7048248  26.5543739  26.5407236
  46.7106327  26.7719785  25.6086023  47.2576507  25.7758895  26.6083963
  10.6306601  83.4995079  67.4546051  10.7437861  84.2593956  68.0255747
   9.6824139  83.4114933  67.3580980  33.7653708  53.4147787  73.7664127
  33.9259958  54.2813540  73.3929491  34.3877029  52.8418207  73.3184719
 101.1507009  85.4085281  10.4227598 100.4319404  85.7569244  10.9502370
 100.7681917  84.6637633   9.9588163  32.8894424  55.4371119  77.2452450
  32.6875496  56.2717962  77.6680565  33.6005926  55.0688696  77.7695465
 108.2212780  20.4579059  10.5156667 108.9369509  20.8251230  11.0345037
 107.4750087  21.0285036  10.6993349  67.6706696 101.1448288  34.1043782
  68.2966566 101.8616962  34.0020514  67.5483465 101.0668850  35.0505257
  75.7272481  23.5294355  62.7880907  75.7474183  23.2117761  63.6908150
  76.1890124  24.3673337  62.8186607  39.6260810  59.9782610  47.7584314
  40.2262163  59.4901752  47.1946573  40.0211287  60.8468914  47.8335953
  21.1549640  90.2976227  88.5567856  20.8071113  90.5934429  87.7155209
  21.3065910  91.1037827  89.0500832  96.4889333  33.0988876  17.1322401
  95.5773757  33.2544223  17.3794229  96.9804142  33.2124607  17.9457338
  98.8189814  45.4223052  23.4613187  98.2449815  44.7223464  23.7724741
  98.2255695  46.1439697  23.2532365  85.4511509  13.1410495   8.2633455
  86.1423013  12.4846832   8.1754358  84.8577771  12.7774850   8.9205892
  98.4499954   5.9340204  56.5443850  99.3616890   5.6547369  56.6283274
  98.2055019   5.6886018  55.6520748  44.7414351  96.3647366  78.8273048
  45.1390314  95.8706665  78.1103325  44.4591951  95.6960392  79.4513416
  36.7707205  87.3810577  78.9951754  36.2810564  86.7438984  78.4750795
  37.3884702  87.7709961  78.3766603  74.4816494  77.9350996  48.7199450
  74.5347166  78.0677748  47.7734709  75.3561497  78.1538439  49.0418625
  30.8048368  81.7955303  54.5609140  31.0234523  82.6154518  55.0038338
  30.7223630  82.0363712  53.6381817 102.9757593  80.6183139   5.7911928
 103.4879372  80.7920925   6.5809400 102.1781347  81.1352340   5.9044321
  13.0985975  71.2935495  79.8921871  13.9228892  71.1287642  80.3500271
  12.6902020  72.0064640  80.3833008  32.3225737  94.3908215  82.0333195
  32.2225666  94.1863632  82.9630661  31.4265776  94.4285393  81.6986465
  41.5336370  95.6566143  33.4798884  40.8720446  96.3273525  33.3106804
  41.1154175  95.0585461  34.0992785  14.3475088  28.4601203   3.4489019
  14.1277155  28.4056178   2.5188787  13.5256370  28.7026874   3.8754327
  40.5452728  81.5892506  75.9584761  39.8636317  81.8480301  76.5786648
  41.3596725  81.6527176  76.4574289 100.3114532   0.6900896  86.4059544
  99.8129247   1.5002073  86.5127659 100.0702642   0.3734411  85.5354404
  33.4798837  70.1438189  79.1199446  33.4212446  69.9932051  80.0634003
  33.8578701  71.0196066  79.0402508  30.2389860  67.4193335  71.7455244
  29.4957304  67.8237486  72.1930218  30.9098220  68.1019640  71.7304993
  33.9494014  93.9640808  76.0592175  34.0087962  93.9719200  75.1038933
  34.5901990  93.3081150  76.3336563  35.7088971  66.8489981  51.5554762
  36.5528965  66.3983297  51.5837002  35.4954052  66.8995428  50.6237602
  31.9386935  82.5613594  87.4925423  32.5225234  83.3017540  87.6574326
  31.1680841  82.7392864  88.0317402  31.4214587  97.9697323  69.0398216
  31.8754935  98.5804176  69.6204758  30.8766603  97.4431801  69.6247721
  64.1699528   0.3495420  75.5500841  63.4348248   0.4888261  74.9530792
  63.8026856   0.4992212  76.4212608  21.7741418  86.2310028  33.3024383
  22.2905231  85.4325008  33.4119225  21.6407943  86.5540600  34.1935492
 108.7347292   9.5736040  58.1977606 108.3895420   8.6961759  58.3626938
 109.1314577   9.5154298  57.3285913  72.4741936  94.5814991  86.8670177
  71.6635418  94.8836422  86.4574051  72.7070570  95.2787018  87.4801350
  85.0608276  35.7974733  29.5039153  84.7058367  36.4457334  28.8956594
  84.2901062  35.4171861  29.9253416  79.7166423  31.6837684  13.5724504
  79.9507258  31.4501373  14.4706972  79.2086003  32.4903480  13.6594064
  14.9191928  80.8622932  73.5572624  15.4883468  81.0014534  72.8003407
  14.0326893  80.8789253  73.1966162  11.1355575  10.8224288  16.2326009
  11.4648279  10.7028381  15.3418119  11.9155725  11.0170165  16.7521627
  32.7116808  47.0153037   0.7772977  31.9238647  47.3678008   1.1912019
  33.2729515  47.7787010   0.6415517  64.6710709  59.7758190  -0.1189272
  64.8184279  60.5075733   0.4802854  63.7237874  59.6394340  -0.1020377
  48.9334154  70.5808353  71.4150333  48.2279253  70.0035381  71.1230659
  49.6677303  70.3727436  70.8373547  11.3271507   4.3302242  17.1095998
  12.2172388   4.6743480  17.1841486  11.4188703   3.5430805  16.5727289
   4.7043657  46.7710638  45.6281567   5.0386107  47.6486158  45.4426479
   4.2132637  46.8693066  46.4438772  58.7145281  88.0111313  86.1447334
  59.2769861  88.7581444  86.3492966  58.3805799  88.1960487  85.2669430
  81.0546039  22.3064340  88.1169224  80.3882526  21.9857515  88.7246799
  81.8253158  22.4571241  88.6642075 101.7989252  45.7729617   2.2058637
 101.8187735  46.6521160   1.8278082 102.6008604  45.3576557   1.8886049
  70.7570124  99.4918060  83.7252522  70.1130056  99.5203590  83.0176735
  70.3010893  99.8656845  84.4793034  40.8969498  93.3183193  54.2381430
  40.0334406  93.3355236  53.8254833  40.8292294  92.6369476  54.9070072
  17.8401216  29.9396125   0.4892404  18.4003958  30.1653568  -0.2533095
  17.0713123  29.5293609   0.0931795   8.6183792  94.7461510  51.0628223
   8.4572077  93.9043999  51.4891100   9.3980759  94.5981979  50.5276442
  46.2801170  97.0340443  72.2307587  45.6327009  97.1713734  71.5392208
  46.7950106  97.8409004  72.2404718  15.1267219  77.9859638  56.2389183
  15.1876163  78.1833601  57.1735620  14.3285322  77.4642181  56.1558247
  68.3375597  95.2124214  64.7946262  68.0340958  94.6195507  65.4821205
  67.5429296  95.4541492  64.3188524  19.8132157  71.5849304  71.5130997
  19.4175720  72.4426031  71.3578844  19.7513616  71.4604855  72.4601603
  50.4700899  99.9725342  58.4518480  49.6996307 100.2116776  58.9670515
  50.9968519  99.4355869  59.0438223  98.9973663   2.0766176  70.3378725
  98.1011366   1.8277372  70.5638456  99.2385648   1.4833082  69.6265030
  25.1511407  70.9177876  72.9742098  24.3705463  70.8300114  72.4272203
  24.8259068  70.8354330  73.8706875 106.8425319  55.1007263   8.4658773
 106.7631862  54.7977821   7.5613554 106.6194699  56.0307781   8.4274156
  49.2453575  91.9421291  61.8536949  48.7075567  92.7295780  61.9369411
  50.1021957  92.2655964  61.5754271  36.0267472  84.0781116  61.2933826
  35.3491139  83.7512589  61.8851662  35.5422544  84.4453526  60.5540371
  50.5102968  84.6051216  81.2997627  50.5520964  84.0922737  82.1069050
  51.4150953  84.6368217  80.9890079  81.7426990  31.0099805  83.9542103
  82.6320289  31.2160314  84.2420769  81.7662262  30.0740255  83.7550545
  58.0528641  77.4844456  55.6472778  58.2243395  77.1826267  54.7552395
  58.3477497  76.7642927  56.2046385  98.5848401  53.9333621   3.9016397
  97.9801843  53.4103004   4.4279821  99.4545672  53.6541454   4.1877325
  50.2820301  89.9603939  66.6043615  49.9603987  89.8588848  65.7085514
  49.4898415  90.0403881  67.1356535  46.2444305  87.0265675  78.9101362
  46.2851429  86.4066219  78.1819582  46.9238091  87.6716423  78.7137794
  33.6302742  10.6768075  27.9448946  34.3659576  10.3817884  27.4082716
  32.9033741  10.7631008  27.3281248  28.4841514  63.3210897  51.1798763
  28.1733298  63.0188274  50.3264952  28.4366608  64.2756844  51.1277103
  24.7860432  75.5688047  73.4255457  23.9565611  75.1827097  73.1442595
  25.3166628  75.6025076  72.6295948  24.8995161  82.8528881  76.5866947
  24.5030928  82.6435947  77.4324369  25.8370829  82.9129982  76.7699623
  78.0093193  83.7537098  59.8701525  77.7535105  83.6668396  60.7884407
  78.4793329  84.5866108  59.8302126  45.2813387  83.1428623  76.2515831
  45.1890755  83.1591892  75.2989769  45.7838011  82.3479080  76.4299536
  33.2217050  80.8570290  77.2725058  33.2522750  81.4430332  76.5162659
  32.3912215  81.0629082  77.7016258  28.8085985  77.0328712  67.4662256
  28.4105730  77.8485155  67.1620274  29.3421650  76.7370749  66.7286348
  23.6318159  98.5422897  68.7804413  22.8318548  98.0915737  68.5099745
  24.2986608  98.2362843  68.1656981  49.0060282  68.6961222  85.4492188
  49.2016077  67.8361940  85.8213711  48.3422089  68.5228729  84.7817135
  65.5236959  91.2454987  44.5043182  65.0846100  91.7564774  45.1842690
  65.0459862  91.4544773  43.7016058  43.4098148  83.0452728  59.4858503
  42.6047182  83.4677887  59.7850657  43.1376410  82.5138950  58.7376595
  71.7216301  63.6740828  81.5270519  71.2250137  64.2594481  82.0988560
  71.4315414  63.8996792  80.6432056  70.6709002  19.2500890  70.0608063
  69.9856352  18.5863222  69.9829292  71.4274644  18.7742151  70.4034233
  17.7312028  87.3936558  65.7312059  18.1151605  88.2588959  65.5892086
  17.0516479  87.3202705  65.0610924  63.8032532  85.7225513  49.1238832
  64.5684719  85.6581211  48.5524702  63.8619757  84.9532986  49.6904802
  57.1686411  89.8016739  84.0470886  56.7098570  90.6261349  83.8858509
  57.4924660  89.5354939  83.1865597  35.3934932  78.9614534  77.2039032
  35.8038783  78.8864183  76.3424015  34.9651003  79.8173475  77.1914053
  98.7468075  18.7075151  68.1698084  97.8914856  19.1282571  68.2571507
  99.3745683  19.3887914  68.4106588   1.2793239  18.6842195  33.9282282
   0.8840641  19.3154327  33.3269174   1.4950260  17.9315463  33.3776052
  72.4457741  95.8675194  60.2886295  72.8506136  95.0430393  60.5580091
  72.6890421  96.4891720  60.9746313  35.3242445  69.7246456  62.9682589
  35.6215954  69.2139769  62.2152424  36.0215092  70.3639078  63.1145287
  53.2674789  73.6029768  89.0249157  53.2532454  74.1366291  88.2304096
  53.0724001  72.7163649  88.7214565 106.8478701  48.2637588  17.7409990
 106.0420344  47.9052345  18.1129129 107.3889062  48.4760944  18.5015447
 108.1541989  66.2681095   7.5537927 108.7326334  66.0819236   6.8142088
 107.3768256  65.7340995   7.3902185  33.7810373  76.0031891  58.5432291
  33.3723402  76.5627050  57.8828192  34.7209001  76.0962200  58.3875561
  77.6869987  31.6500009  85.8233547  76.8411134  31.9733346  86.1334515
  77.6393389  30.7015050  85.9430027  28.1327057  70.4894495  74.3031502
  27.6825428  70.0526571  75.0261974  28.7860680  71.0448885  74.7283936
  55.6883860  73.3242464  57.0719290  56.2359571  72.6252031  57.4293423
  55.8189678  73.2704496  56.1252069  46.0886192  91.7799282  65.1569033
  45.3370714  91.9919586  64.6033192  46.3526058  90.9034729  64.8769617
  42.6305389  88.9272594  78.1293821  43.3116913  88.8288403  77.4641180
  43.1103706  89.0017319  78.9542770  39.8231983  95.6422234  77.0904303
  40.5825615  95.7717228  76.5222502  39.8904252  96.3395405  77.7427101
  49.8659801  96.8323040  64.2700481  50.2495861  96.5835190  63.4291077
  49.9759865  96.0579872  64.8219299  99.2682050   9.6899045  68.6339998
  98.8160967   9.2082036  67.9413271  99.6079372  10.4721082  68.1992769
  96.1832260  47.9550661  70.0927401  96.3895248  48.0350030  71.0240221
  95.9939502  47.0250524  69.9683142  25.9057173  39.0673915   9.8849542
  25.5154022  39.6322147   9.2179735  25.6827768  38.1790248   9.6068437
  74.7401762  89.4885826  79.4717693  74.2269993  89.8108482  78.7308025
  75.6269741  89.8085880  79.3061733  90.9196352  37.6142515  87.0934486
  91.6918062  37.1343435  86.7939949  90.5444502  37.9863275  86.2953091
 101.8228610  83.8724518  70.9327364 102.2859527  84.6979046  71.0755539
 101.3826193  83.6977768  71.7645454  46.1964560  78.3756733  70.7120752
  46.8404341  77.7188587  70.9768724  45.4211378  77.8679943  70.4725409
  57.0437632  23.8560764  24.4309385  57.7784810  24.4661704  24.3660505
  56.9271884  23.5259334  23.5400732   9.3385633  37.5279228   5.1456697
   9.1682466  36.5955631   5.2795847   9.3017610  37.6441757   4.1962679
  12.9827865  32.4119464   1.9127519  13.1447252  32.1491043   1.0067041
  13.8238319  32.7527706   2.2172315  40.1022148  80.9491825  73.1793404
  39.6522260  80.1121902  73.2941580  40.3598690  81.2060165  74.0647125
 102.9623601  69.5469753   4.0343530 102.6604054  70.2063457   3.4096296
 103.1734130  68.7848941   3.4949739  11.3159260  37.7601997   7.2618635
  10.6887039  37.6736251   6.5440042  12.0375475  38.2670585   6.8895967
   9.7349787  62.4256611  67.4646616  10.4013336  62.9214048  67.9405165
   9.2725343  63.0833721  66.9452429   3.3988205  75.8260679  76.0816526
   4.0336284  76.3761997  76.5405655   3.8951311  75.4375935  75.3612375
  56.0271502  96.3181400  62.2379637  56.0175085  97.0359802  62.8710842
  56.6631794  95.6959724  62.5909615  22.1360326  85.5840588  66.1328983
  23.0515122  85.6565475  66.4028502  21.9508886  86.4117718  65.6892347
   5.3954967  41.5696327   0.9008939   4.4849094  41.6596691   0.6199033
   5.8480581  41.2137596   0.1361807   2.2651062  10.1547922  71.1221933
   2.4113569   9.2828191  71.4889240   3.0664978  10.6373991  71.3249302
  45.2271080  97.3842621  74.7284651  45.6596088  98.1132889  75.1730824
  45.7215023  97.2716236  73.9166021  62.9924250 102.7982235  68.6004257
  62.2947311 102.5182915  69.1929579  62.5446320 103.3142757  67.9300451
   5.9074316   5.0913633  68.3596039   5.4338989   4.6424020  69.0599155
   5.7783184   6.0221780  68.5416603  27.6008534  94.7825146  81.5329361
  28.3016944  94.1349220  81.6082478  28.0559826  95.6229115  81.4798260
  62.0147371  73.4102964  55.3657007  62.6727438  72.7386999  55.1862192
  62.5149250  74.1490316  55.7125568  88.6381029  16.9799722  74.6297979
  88.5268234  16.1378873  74.1884995  88.4764456  16.7893709  75.5537939
   7.5859197  19.7195045  31.7939813   7.1788343  19.0677301  31.2232835
   7.0276865  19.7392885  32.5713022  67.6607322   7.3505891  83.7108040
  66.8340181   7.3357595  83.2285690  67.4070119   7.2240842  84.6250534
  80.5419229   5.6129850  88.2660484  81.3597559   6.0837091  88.1054115
  80.1380466   5.5327619  87.4019337  40.5669594  99.0000629  72.2777462
  41.4788961  98.7436485  72.4150753  40.2546120  99.2491531  73.1475925
  76.7448170  15.9439556  16.1444719  75.9835098  15.4798976  16.4927442
  76.5270153  16.8706266  16.2448461  40.9021854  94.1550446  68.4638786
  41.0930538  93.5943413  67.7119350  41.2064314  95.0230217  68.1987715
  65.9211159  63.3860826  79.5933247  66.5357637  63.9076138  80.1095104
  65.3488970  62.9778290  80.2430344  87.2545052  89.9050236  55.5539513
  87.2797489  90.2399254  56.4503002  86.3296032  89.7170067  55.3944731
  52.9468250  77.0692587  62.9716492  52.8053331  77.9093361  63.4080935
  53.0653572  76.4445877  63.6871719  58.4180355  86.2413406  57.9640579
  57.9320526  86.4865398  58.7514114  57.7422953  86.0862064  57.3041010
  66.2406683  75.9750843  84.5213604  66.8988276  76.2561989  85.1569939
  66.7328215  75.8372879  83.7120247  26.4551282 101.9489765  83.1977654
  25.6319857 101.9997311  82.7118683  26.8366885 102.8228760  83.1144905
 104.7136424  22.0579902   2.7232320 104.8467968  22.8759424   2.2442205
 103.8926027  22.1891014   3.1975038  76.7855428   2.0392908  46.1483145
  76.4571594   1.3333333  45.5915165  76.0661982   2.2218622  46.7528343
  27.5374722  95.2567959  68.5528135  27.0815873  94.5345116  68.1207132
  28.4060287  94.9070549  68.7516260  27.3423895  63.3916084   4.4152124
  27.1308168  64.2872421   4.1519315  26.7640003  63.2172672   5.1577051
  32.9928478  18.0985443  19.7151907  33.0572637  18.9381019  20.1704080
  32.8607496  17.4570934  20.4132803   6.4425313  35.6568956  51.2154293
   7.0827335  35.4546070  50.5331898   5.8363354  34.9162316  51.2022400
  40.4284048  82.8298855  84.1884708  40.9114456  82.2444630  83.6052227
  40.4752350  82.4062538  85.0455379  15.0792942  12.4042333  63.2728004
  14.5038757  13.0598558  62.8787327  15.9627876  12.6911558  63.0418444
  33.9672351  88.2533741  71.3855362  33.8662791  89.0069103  71.9671059
  33.5815787  88.5371399  70.5566978 107.8599713  12.8136293  15.5895765
 108.0129192  12.5604240  16.4999159 106.9263933  12.6546279  15.4503591
  52.8165483  77.8744793  68.7590122  53.1006289  77.4871826  69.5869827
  51.9780350  77.4522543  68.5723162  36.6066337  76.8964863  58.2318783
  37.1177077  77.2091055  57.4853516  36.9838142  76.0414982  58.4391642
  33.1503081  57.5536060  63.5247946  33.8107586  57.3287010  62.8694677
  33.3455443  58.4606600  63.7600994  87.8718255  13.5396139   1.2088926
  87.6766262  13.8025562   2.1083315  87.9569564  14.3647472   0.7312544
   3.8351065  98.0619335  73.3295822   3.4670433  98.5698795  74.0525961
   4.7822827  98.1158543  73.4567881  11.8182755  95.9958553  66.5978909
  11.5408421  95.0932598  66.7546797  12.7737510  95.9645367  66.6460323
   4.7385200   3.5752145  14.8292596   4.1747269   3.8553993  15.5502756
   5.3885874   3.0058090  15.2408750 102.7711890  19.3877117  16.9461591
 103.5857794  18.8936798  16.8533857 102.9824421  20.2617303  16.6179998
  27.4769831  71.8934965  61.4215326  27.3467135  71.6457748  60.5061674
  28.2278609  72.4869013  61.4045382  51.2140226  73.0711174  63.2595396
  51.7054272  72.3544931  62.8580379  51.7183781  73.2993889  64.0404034
  89.6261311  73.4750080  43.5305166  89.3444443  73.3124733  42.6302576
  90.3527737  72.8671885  43.6675549  86.8328594   3.5761083  38.1364393
  86.3571285   3.1059659  37.4516916  87.0845579   4.4042791  37.7277660
  31.5452322  67.0261184   1.5987547  31.2461218  67.8251544   2.0326955
  30.8704695  66.3775722   1.7995126  74.9299049  83.0556011  86.9908428
  75.8445263  82.8099155  87.1298885  74.5502424  82.3111629  86.5240288
  32.3597797  40.2489940   8.3684499  32.1349176  39.9692241   7.4810941
  32.6934227  41.1397544   8.2614191  80.2839493  14.6498407  70.7781553
  80.9197925  15.2413190  70.3755522  79.4321560  15.0048460  70.5238867
  58.2038831  14.0019716  85.9556770  57.5702785  14.6414388  85.6303215
  58.3881592  14.2821897  86.8522072  54.9317741  80.1512527  72.2157192
  55.3685379  79.5161200  71.6482019  55.6094408  80.4265404  72.8331470
  55.5508566  74.0592957  85.0739574  55.5799532  73.1025696  85.0661278
  55.0879288  74.2782259  85.8826637  37.4284029  60.8456230  86.0040092
  38.3803344  60.9030533  86.0862255  37.1151662  60.7570362  86.9041634
  47.7351618  30.4209304  78.4016037  48.6819363  30.4650164  78.2677794
  47.3620462  30.6484389  77.5499821  41.0633421  65.2352810  56.8418789
  41.7877293  64.7045374  56.5104961  41.3610744  65.5379534  57.6997709
  43.4984779  94.2613316  66.4965248  43.2187176  93.4912682  66.9914722
  44.4547033  94.2202568  66.5098953  30.8563805  76.3067389  85.9390068
  31.7025852  76.2424040  86.3817692  30.2466965  75.8523369  86.5204144
  30.4961761  63.4509651  19.7645624  30.6297907  62.7516452  20.4043539
  31.3749632  63.7889186  19.5920999 107.7000425  34.2378894   3.2101209
 107.5536177  33.4841339   3.7816579 108.5970113  34.5123569   3.4007700
  31.8648084  83.1800071  17.6323373  31.9033655  83.5214702  16.7389448
  31.9726929  82.2342006  17.5321157  25.0142169  75.1535559  78.7275505
  25.8157039  74.6830893  78.4983921  25.1196718  76.0160685  78.3260775
   4.7962698  46.7448036  12.7945478   5.3921541  47.3628036  13.2179029
   3.9938101  46.7915527  13.3142622  94.4411945  82.8660297  67.2637272
  94.9005604  83.3872604  67.9221535  93.5229969  83.1208038  67.3544455
  25.1277002  67.1687690   4.7594125  24.9315437  67.5085918   5.6324918
  25.7000049  67.8289501   4.3684442  83.0655359   2.2029413  68.5215569
  82.5883745   1.4999498  68.0807114  83.0378269   1.9664777  69.4486761
   2.9882822  27.3427309  79.9061108   3.2831965  26.6900266  79.2711020
   3.7933836  27.7612890  80.2108288 103.0720994  11.6193715   9.3416937
 103.0455611  12.5383369   9.6082170 103.4696219  11.6338817   8.4710653
  80.7279371   5.6844343  45.5805683  80.6673692   6.2085355  44.7818851
  79.8182319   5.5277837  45.8338022  24.7123417  34.2973319  29.6918733
  24.8121485  34.3013564  30.6438406  23.8391813  34.6593753  29.5410593
  22.4109421   1.6427148  82.4816036  22.0640717   2.4832738  82.1826363
  23.0253563   1.3797868  81.7963314  23.9269066  82.4833298  66.1394215
  23.6983323  82.7865887  65.2607775  24.2445230  83.2668972  66.5881634
  24.6143436  87.5428963  80.3830910  23.9863062  88.1698132  80.0242519
  24.1312218  86.7176628  80.4257965  76.7623256  28.7597383  85.2140713
  76.3952826  28.4379877  86.0374641  76.1279558  28.4931577  84.5486832
  96.7281889   0.7160963  76.3678122  97.5505184   1.2022127  76.4286232
  96.7866443   0.0588430  77.0612335  64.9274634  14.9099744  88.6382198
  65.8505701  15.1205743  88.4976864  64.6267055  14.5757593  87.7931976
  77.8109169  98.3562660  42.3366880  78.0411530  99.2812634  42.2495031
  77.4362421  98.1216621  41.4876842  67.6579713  10.1408304  79.9388695
  66.8476080  10.6006254  80.1582527  68.3253597  10.8267702  79.9214172
  91.4279816  91.6260044   4.5698984  91.2696288  91.5953246   3.6263807
  91.6082273  92.5481407   4.7526415  78.7250065  16.8461240  47.9358149
  79.3402694  16.1129011  47.9440689  77.9128670  16.4812768  48.2873011
  37.1254047  26.6462318  14.4476278  36.4624676  27.0824233  14.9828680
  37.3393139  25.8496705  14.9333913  30.6676229  47.1185295  19.2402895
  31.5175661  46.7987148  19.5428522  30.1244530  46.3328449  19.1779096
 106.1645578  13.4744371  85.7844067 105.2961897  13.6681856  85.4313755
 106.5414785  14.3327917  85.9777737 108.8245199  71.1251155  13.6755140
 108.8352678  71.2348167  12.7246816 108.8905451  70.1794711  13.8082750
   5.1664718  55.7445709   5.2374799   4.6051773  56.3796035   4.7926099
   4.5927652  54.9983684   5.4114969  42.4568272  73.9974260  60.7558346
  43.3658552  74.0043974  61.0555887  41.9430351  74.1684580  61.5451384
 105.2369974  39.3640319  11.7523439 104.7654102  39.9432651  12.3509462
 104.5890138  39.1259090  11.0892828  31.5077051  87.2075836  17.7265413
  30.8214363  87.8590099  17.8711660  31.5177997  87.0767776  16.7783697
  81.7842674  68.1762791  79.4608736  81.6925144  68.0673265  80.4074192
  81.1496639  67.5650787  79.0867949  18.4878143  47.9513637  11.0379369
  17.9749330  48.5564987  10.5022104  17.8496059  47.5591270  11.6338117
   0.3210454  64.7080421  65.5047464  -0.3786261  64.0702200  65.6457281
   1.1022168  64.1766167  65.3511620  81.1893654  90.9300709  64.3478441
  81.9430923  91.4261150  64.6673298  80.4417610  91.3029575  64.8150301
 103.6317153  92.4060917  82.4525928 103.3225096  92.9386902  81.7198181
 104.0996082  93.0224323  83.0160046  53.9416552  72.2761917  65.2893591
  54.4138241  71.8814659  66.0224867  53.2717276  71.6317272  65.0611162
  99.8820877  62.2906065  79.6067381 100.2327824  62.9332924  80.2233410
 100.1943779  62.5845098  78.7509775  29.1340574  64.8918716  30.4713686
  28.8737472  65.4612533  29.7473009  29.3230470  65.4924671  31.1923368
  38.7861523  24.3983404  19.8426111  39.2857632  24.7505227  20.5792196
  38.8860496  23.4493057  19.9173696  24.8453307  98.2661724  65.8320951
  25.4078674  97.5400352  66.1013556  25.2532959  98.6019897  65.0339556
  15.9719213  42.2001354   8.2826002  16.3867983  42.8348152   8.8667925
  15.6131681  42.7292053   7.5701292   4.0269932  74.8327056  21.6492040
   3.8329109  74.2490856  22.3826559   3.2189974  74.8496238  21.1362798
  54.8896027  96.7599964  47.7685738  55.7623339  96.8540955  47.3868418
  54.2927742  96.8410206  47.0246220  73.4939909 100.0356388  76.3355923
  74.0607691 100.4572010  76.9815636  73.4781742  99.1145802  76.5956402
  12.5144657  20.7803289  12.3772390  11.8049034  20.2587596  12.7523668
  12.7631649  20.3094665  11.5818269   0.2446660  50.1649658  17.5831754
   0.8021149  50.0612346  18.3543546   0.7053360  49.6930400  16.8894155
  29.5123466  66.8605033  32.3115785  28.6895546  67.2775356  32.5671632
  30.0280269  67.5667373  31.9223077  69.4309092  81.1011696  80.2662277
  70.3168917  81.4330387  80.4115963  69.1879797  80.6945419  81.0980129
  29.0104946  53.2214157  20.8284814  28.4751591  53.2303707  20.0350244
  29.4455370  54.0740291  20.8335264 104.1636465  47.7258769  11.7408521
 104.3093250  47.9609958  10.8244856 103.8632319  46.8175594  11.7102201
   8.0877336  83.5558692  19.7833021   8.2145771  84.3868152  19.3253954
   7.3716482  83.1297199  19.3122919  33.5675844  80.9974471   1.5850504
  33.4308370  81.9447795   1.5943391  34.1553530  80.8330528   2.3224313
  72.6013374  79.5722008  57.7001619  71.7644024  79.3997669  58.1314802
  72.5502920  80.4910755  57.4369240  33.9940676  10.4883376   6.8133409
  33.3856758  10.4439918   7.5509889  34.1016563  11.4249174   6.6475828
  67.7357386  18.9267648  61.8521643  68.6722826  19.0882505  61.9663572
  67.3105763  19.5793260  62.4086142  40.7096243  87.4813843  77.2341013
  39.9600220  88.0627251  77.1061707  41.4470148  88.0718231  77.3885775
  68.9225219  37.0673383  73.8761282  69.1464328  37.9763521  73.6766768
  69.5857953  36.7904581  74.5082951  34.9869704  93.9987946  73.5945415
  35.6050944  93.3319283  73.2954741  35.2296042  94.7860622  73.1071377
  59.9206448  99.6921730  56.6227245  59.0488243 100.0849915  56.6658163
  59.7731876  98.7623119  56.7954874  91.8763326  16.5195573  74.4901609
  92.5445436  16.0321725  74.0083122  91.1660312  16.6393198  73.8597965
  35.7699808  47.5847141  28.0490739  36.0742077  48.4258930  27.7083357
  35.4360517  47.7869598  28.9230402   3.1027851   9.6173776  79.7047329
   2.6412830   9.6487726  80.5427456   3.4529648  10.5009187  79.5909071
  35.8469033  82.3497391  52.0338774  35.9930587  83.1754684  52.4954367
  35.5687046  81.7395496  52.7168941  94.5234941  14.2235197  75.4990101
  93.6595749  13.8759817  75.2774477  94.5533727  14.1991724  76.4554358
   4.7110828  28.6863605  11.1848219   4.4055399  29.5852462  11.0627897
   5.3274521  28.7399856  11.9151933  81.9658922  12.6560606  77.7532625
  81.1087154  12.8701986  78.1215429  81.7956089  11.9247354  77.1596336
  65.1441956  71.6151953  83.7231350  64.5193672  72.0339823  84.3151188
  65.7736874  71.1869144  84.3032646   2.6386986  43.5842813  43.0013609
   2.1150789  43.0687440  43.6147785   3.4363995  43.7957872  43.4862995
  94.0601228  45.9372629  53.1539488  94.0187382  45.6131948  52.2542286
  94.6699642  45.3450883  53.5940075   0.0205383  16.0320581  87.7837372
   0.2855454  16.6413225  88.4727955   0.3062210  15.1746953  88.0992222
  32.0436668 102.4158478  88.7927628  32.0905066 101.8088055  88.0541515
  32.7284551 103.0609703  88.6163712 104.1342518  77.8288452   2.2002275
 103.3718584  77.8795902   2.7767809 104.8844168  77.8263942   2.7947767
  33.4796604  47.2757713   6.9339998  32.6657471  46.8122283   6.7367418
  33.2987484  48.1866733   6.7021616 102.2651552  24.9637712  72.8330326
 101.9524692  24.4725431  73.5927439 102.0732187  25.8776773  73.0431843
  78.7208580  11.5618242  78.5190582  79.1908048  12.3925603  78.5915518
  79.2937826  10.9245313  78.9454985 106.0783266   8.0866540  66.4196587
 105.2410244   7.8630174  66.8260384 105.8592724   8.2728876  65.5066586
  73.0869697   7.8577913  81.3205433  72.4667262   7.4434675  80.7206440
  73.1138371   8.7733472  81.0425949  97.5769304  12.2646345  84.9347687
  97.1341394  12.5031007  84.1203308  97.5159811  11.3100255  84.9698830
  85.6434129  17.9831518  68.8378239  85.5893301  18.4533227  68.0058050
  85.1812862  17.1602071  68.6783695  26.2297186  69.6727268   4.1150530
  25.7842525  70.5181400   4.0597303  26.9593128  69.8252765   4.7155912
  50.1274729  92.4319077  73.2685232  49.6105528  91.8534374  73.8292360
  50.8752346  91.8986511  72.9988575  65.1265955  96.0284901  72.9361486
  65.2904654  95.0860977  72.9718447  65.9947205  96.4254093  73.0071449
  16.6007074  26.2585489  17.8853376  17.0914253  26.9926969  17.5159319
  16.5233215  26.4665119  18.8164671  68.4366654  11.2633337  51.4452887
  69.2281054  11.3133443  50.9092331  68.7440513  10.9560979  52.2981358
 106.9051098  20.2979291  89.1841984 107.3375343  19.9359811  88.4107494
 106.1727785  19.7040189  89.3491077  78.8079309  67.3542166  83.7168407
  78.7075806  66.5914059  84.2862988  79.4549847  67.9016829  84.1616249
  93.0986640  19.5893422  17.2438486  92.6717923  19.5185939  16.3900335
  94.0161703  19.7691862  17.0387418   1.0616192  71.7495433  17.7453001
   2.0170053  71.8037502  17.7222498   0.7778677  72.1778098  16.9376428
  10.3483140  70.6964350  77.6309204  11.1246908  70.1678610  77.8155327
  10.6884933  71.4772654  77.1940947   9.2296728  35.2997104   8.4951265
   9.6751913  35.7617656   9.2052229   8.3428654  35.6599895   8.4942110
  25.8685551  24.7458185  53.3017921  25.9220562  23.7967599  53.4142780
  26.3970528  25.1018346  54.0160608  20.0391182  43.0484382  42.5983102
  19.4717058  43.7046424  42.1937616  20.2395042  43.4056846  43.4634454
  73.7997888   2.6709093  73.6092138  73.0651020   2.6512731  74.2224693
  74.2397808   3.5017408  73.7890863  91.7650828  52.2507564  12.6805933
  91.3877842  53.1287376  12.7356012  92.4036405  52.3085681  11.9698675
 106.1917137  33.1561769  49.0722370 105.4582571  32.9746641  49.6598864
 106.3465904  32.3272241  48.6193705  26.8279338  83.2886314  83.0916309
  27.6257992  83.1987572  82.5705147  26.5201831  82.3907280  83.2152367
  90.2633975  46.1099426  12.3966272  90.9344468  46.5148155  12.9461820
  89.4694064  46.6126148  12.5786550  52.6925358  43.9063636   3.9819963
  52.5652965  42.9794399   4.1841180  52.0359024  44.0978137   3.3123644
  35.6644416  92.4396706  24.6927834  34.8148799  92.1112156  24.3985105
  35.8326221  93.2006168  24.1369891  51.3498640  91.4922905  85.9155655
  52.0757961  91.5106583  86.5391922  51.5976763  90.8215427  85.2792263
  31.7395719  63.8034526  16.6322668  30.8908399  63.5073844  16.3032968
  32.0918783  63.0469314  17.1010835  20.7228017  99.8004627  71.0696030
  20.2739096 100.2544975  70.3564548  20.4542089  98.8862896  70.9781218
  39.3951273  99.2242813  41.5639448  39.9594450  98.5583019  41.9566774
  38.6132145  98.7446785  41.2904072  95.5178570  27.0310987  74.5396614
  95.8800958  26.7900098  73.6870813  94.6534323  26.6203893  74.5574379
  33.7397846  54.2996684  32.5272806  34.5770820  54.0745632  32.9328497
  33.2815441  53.4634296  32.4439008  22.7007008  94.6176720  73.5600662
  23.6065722  94.5242405  73.8548565  22.5502563  95.5628395  73.5442257
  20.1530918  99.0112487  20.2007730  19.3485817  98.6643211  20.5863054
  19.8565420  99.7044555  19.6110685  97.5453066   0.7147516  66.2273979
  96.8924783   1.2741960  66.6481924  98.3271860   1.2635053  66.1660194
  63.2707714   0.7135881  46.1799765  62.9900883   0.0896657  46.8494272
  63.6483239   0.1695741  45.4887915   5.3291642  73.0599165  54.2371416
   6.1102616  73.6013317  54.1231537   5.5290638  72.5071335  54.9925900
  25.8641943  84.5928375  13.3763273  25.7173570  83.7228195  13.7474592
  25.8278307  85.1834384  14.1287286  45.2613688  88.0419731  83.6959839
  45.7715940  88.5205269  83.0426216  44.3662643  88.3613110  83.5817719
  93.5272787  47.3049919  30.7947118  94.0920708  46.5518085  30.9677656
  93.0050943  47.4008170  31.5911920  65.3586435  94.4790363  76.3854694
  65.2224541  95.3615379  76.7302275  66.2404442  94.2428589  76.6733599
   8.4456692   5.2921403  59.2596292   8.2968483   6.2141717  59.4692564
   8.0109940   4.8129476  59.9650812  75.5837320   4.7953809  73.9630032
  76.5255903   4.8159040  73.7935543  75.3834223   5.6654943  74.3079758
 102.6690983  10.6389917  56.8649530 103.3662533  10.0627912  57.1783161
 102.2095035  10.1212991  56.2038946  31.3081574  99.8421288  65.7579041
  31.1673498  99.8867989  64.8121691  30.8956671 100.6356049  66.0992146
  88.3810066  29.7924055  46.2481785  88.6237644  29.0085996  45.7552719
  89.1768717  30.3240980  46.2597895   5.1485857  51.0364906  13.9648206
   5.5130466  51.7045204  13.3841856   4.2918810  50.8340064  13.5889490
  11.4391502  35.9637824  17.6958807  12.2192606  35.4373447  17.8705843
  11.6704401  36.4874259  16.9287164  22.7743515  51.4872924  11.0187967
  22.7984365  51.8335048  11.9108637  22.0194515  50.8988277  11.0105665
  90.4777025   4.1201414  74.3254805  90.1176189   4.7725690  74.9262285
  91.4126753   4.0971197  74.5292759  93.6437343  24.6342863  84.1203880
  94.5544933  24.4221033  83.9161110  93.5250496  24.3369115  85.0224495
  25.9619697  55.9610073  12.7036436  25.5606016  55.1636783  12.3580892
  25.2236637  56.5449516  12.8772791   7.1045122  13.0563940  60.8338165
   6.3309012  12.8013528  61.3365173   7.0519791  12.5353540  60.0325727
   6.0512241  71.3261882  15.6731660   5.5487379  70.7900993  15.0596960
   6.8892130  70.8714095  15.7579000  41.9714880  99.7545910  75.9111166
  41.8051100 100.6929207  75.8211040  42.8980255  99.6536255  75.6930351
  29.7322258  33.2606021   2.2630174  29.4187864  34.0461627   2.7112157
  29.2604193  32.5411407   2.6825578  87.1383213  12.4861063  70.0050497
  87.1724151  12.6146711  69.0571356  87.0635628  13.3702386  70.3641367
   1.8951949  49.8711101  21.9776018   2.4239668  49.0923206  21.8040426
   1.8916878  49.9505226  22.9314954  38.3407259  65.4445744  57.0313931
  38.1199479  64.6620178  56.5263271  39.2930937  65.5126047  56.9635963
  82.3443912  24.2424882  80.9175491  82.5536560  24.2939867  79.9849272
  81.3995289  24.0914358  80.9430218  59.9457153  47.9516307  12.0604665
  59.2133411  47.3746482  11.8437822  60.0660309  48.4900180  11.2782247
  40.5239248  72.4824715  55.8388376  39.6207762  72.7961445  55.8852673
  40.4963017  71.6129541  56.2381029  94.0436268  99.3966675  81.9228172
  93.9311123 100.1686954  82.4773884  93.1515217  99.1085720  81.7294788
  62.4424744  86.9171524  44.8575783  62.0580721  86.8135262  43.9871025
  63.3845901  86.8244839  44.7159433  96.8894503  32.3765365   1.7448290
  96.7893097  32.3486320   2.6963670  97.1979115  33.2641117   1.5623815
  38.6880565  89.2697144  57.2947931  38.1124401  88.5227585  57.4589825
  38.3651471  89.6454525  56.4757776  27.1729136  85.5556870  59.5380926
  26.2345099  85.3866100  59.4541788  27.5843716  84.7057438  59.3814373
   3.2147344  64.1783515   0.6123407   4.1131576  63.8720313   0.4888971
   2.8676852  64.2666332  -0.2753489  41.1190271  85.1138687  60.3014755
  41.3976908  85.4808712  59.4624901  40.2165985  84.8320389  60.1517200
  95.4075645  10.9104646  81.1966133  94.5161461  11.2234891  81.3503075
  95.8879160  11.6870035  80.9094143  36.3321384  71.9648925  22.3328073
  36.1997446  71.7702285  21.4050157  37.1092686  72.5234119  22.3518331
  35.0343164  32.8118411  20.2657182  35.0787433  33.5389320  20.8866842
  34.2396625  32.3370544  20.5092962  19.4307494  99.4175625  66.6249752
  19.9521804  98.6439228  66.4109135  18.6400723  99.3282032  66.0929251
  36.8133116  81.4249134  60.5316830  36.0552502  80.9568501  60.8816719
  36.7867923  82.2794914  60.9620619  89.4596647  13.4449972  53.7470818
  88.9461540  12.6841272  53.4757853  90.0523924  13.6079038  53.0133486
  42.9895958  80.6951896  24.7733171  43.0370506  80.7462207  23.8186510
  42.2662386  81.2762634  25.0085600  43.6322403  65.2917099  53.0720949
  43.4784698  64.9184704  52.2041798  43.3430147  66.2010288  52.9964447
  35.6747580  98.5471916  34.2177248  35.7344675  99.0311241  35.0414252
  36.1903262  97.7547550  34.3675828  82.2586702  36.0480989  78.5268307
  82.0736336  35.3602136  77.8874540  82.8936647  35.6544221  79.1251850
  59.4421816  90.1000118  81.4825153  60.2843904  89.7328854  81.2139416
  58.8017988  89.6701145  80.9156513  79.9454283  52.1425451  44.6635580
  79.5266126  52.7367128  45.2862835  80.6899284  52.6384557  44.3229437
  88.8503479   4.2784036  43.7036991  89.3109249   4.3397058  42.8668356
  88.4761690   5.1495183  43.8355350  92.8421854  11.5388025  81.6337776
  92.9196190  12.0459379  82.4419022  91.9400762  11.2187685  81.6373539
   1.6867050  40.0454990  12.0743044   2.3236522  40.7367889  11.8935926
   0.9996399  40.1760665  11.4207609  31.2860569  77.5263683   0.4234846
  32.1639618  77.1664325   0.2971800  30.6970676  76.8158904   0.1694067
  76.8635439   2.3869337  71.2864542  77.7989553   2.5152791  71.1290836
  76.4573215   3.2028688  70.9940958 102.2870706  15.4633916  70.9485960
 101.6330456  15.4792131  71.6473293 102.6293348  16.3568700  70.9206200
   6.7434531  91.7729092  68.8574076   6.5049201  92.2751427  69.6365690
   6.1901140  90.9928322  68.8965845  91.6330551   7.0614828  70.7470512
  91.3097976   7.6667226  71.4144516  92.5575851   6.9388593  70.9625387
 100.3206323  24.0559972  46.5154171 100.4480432  23.7166227  47.4013186
 100.1289486  24.9854578  46.6402578  15.4177555  39.0004531  17.6755006
  16.3057121  38.8294116  17.3616369  15.4397234  39.9102107  17.9723032
  17.4655517  59.2078582  12.5954588  16.6613468  59.4715206  12.1482713
  17.2447237  59.2433158  13.5261686  27.7032360  53.0481807   5.0910719
  28.0936416  52.9880325   5.9629591  26.7669519  53.1608383   5.2551325
  81.6259550  27.8287710  42.6704359  82.4086736  27.3510374  42.3959303
  80.8968185  27.2797883  42.3819828  80.8402443  76.3992453  74.1103792
  80.2804756  75.6706572  74.3788099  81.2860584  76.0820341  73.3249807
  96.9616960   4.6137155  80.9606266  96.5871071   4.8025430  80.1002407
  97.1909736   5.4725183  81.3157463  62.1404028  72.6811886  76.7635918
  62.0749521  71.7432642  76.5840197  62.6583910  72.7357197  77.5666761
  98.9514802  45.6789676  20.4852636  98.9686701  45.9354869  21.4072950
  98.5273478  44.8208705  20.4832513  21.5599569  49.8653880   4.6516664
  21.2831959  50.2621070   5.4776533  21.8495115  50.6041614   4.1163118
   0.9858952  23.3918012  85.2528858   1.5023670  22.6219381  85.4911900
   0.4746494  23.1116212  84.4936943  95.3682684   4.6162618  88.2835865
  95.7572769   4.3133749  89.1040516  94.4285129   4.4742502  88.3973026
   1.5439806  30.2723707  74.3691301   1.5544663  30.2503599  75.3260183
   1.9403133  31.1142267  74.1445589  79.6661472  64.2336130  79.4704580
  79.8308229  63.4443617  79.9863958  78.7311745  64.1970921  79.2686558
  56.1381435  74.9307346  72.8050470  55.6651258  74.1477394  72.5232649
  56.5224123  74.6882153  73.6475134 109.0666748  60.5234480  88.8007927
 109.1133330  61.4289188  89.1076756 109.2751149  59.9977684  89.5730877
  26.6875633  70.8508483   9.5058973  25.9394630  70.7915203  10.1000841
  26.6795763  71.7580024   9.2005689  30.6780323  79.5498935  15.0937517
  31.4047130  79.9863998  14.6491964  30.6502184  79.9541656  15.9609468
  55.3537893  97.3326206  70.6181431  55.6172276  98.2094002  70.3387165
  56.0877275  97.0190239  71.1465597  37.8689957  76.5403271  83.0841923
  37.6154017  75.6342316  82.9083633  37.3165989  76.8052340  83.8196564
  42.6940727  65.6152868  59.1991472  42.8132343  66.1227226  60.0019836
  42.5805044  64.7137976  59.5002317  57.9768275   4.2202962  29.2380476
  58.0841159   5.1190198  29.5495343  57.5414990   3.7669576  29.9599862
 108.6926315  80.7233135  12.4367674 108.1268189  81.3028613  12.9468782
 108.3903883  79.8414413  12.6540048  12.5594028  29.1721431   1.1382921
  12.6658186  28.3604566   1.6343458  11.6492494  29.4273750   1.2890108
   2.4537478  17.5668539  67.2702312   2.6224766  17.3532117  68.1879044
   2.7443943  18.4742082  67.1782112  26.6272316   6.2674726  71.9726133
  25.6720505   6.2631238  71.9106531  26.8082676   6.0848726  72.8946257
  22.5730833  80.4856483  22.8076799  22.9373773  79.6034900  22.8805883
  23.3199962  81.0341541  22.5679071  69.7848463  91.9433498  72.1777725
  69.6917725  91.4252090  71.3783360  69.0789127  92.5879478  72.1289635
  39.1115412  50.3798190  18.8829668  38.5869440  49.6781913  19.2686613
  38.8485607  50.3973571  17.9627664  23.8819194  94.5240021  87.8663254
  23.4715414  95.2475929  88.3398628  23.2349610  93.8192654  87.8983879
  40.2556658  87.1008110  82.9188442  40.2779436  87.3086929  83.8529301
  40.0930977  86.1580467  82.8870964  57.6799774  89.8670578  54.5141697
  58.1935692  90.6314754  54.2531633  57.9918909  89.6582317  55.3947020
  26.7114305  67.2426701  49.8104954  25.9162974  67.2052526  50.3420925
  26.7544413  66.3871431  49.3833447   8.6321911  70.5184642   0.4805715
   8.6555656  70.7908813   1.3978822   8.0206188  69.7822849   0.4648550
  95.6381105   6.6997827  55.4166555  95.4752897   6.8593324  54.4869947
  95.6082033   5.7471384  55.5050039  36.6197157  84.4476700  64.4031668
  36.7990518  85.0205135  65.1487684  35.9142733  84.8867607  63.9280033
  73.0233763  15.1017679  54.1775036  72.5804280  15.7473672  54.7281742
  72.6468204  15.2308095  53.3069944  91.6709875   4.3461622  57.0975828
  92.4941419   3.8674177  57.1947575  91.9115423   5.2641119  57.2230291
  52.5640106  79.0363550  72.9315948  52.8207636  78.4049273  72.2595739
  53.1906128  79.7538757  72.8379631  36.2680006  81.9788742  65.5347776
  36.4921403  82.8068161  65.1099110  36.4800835  81.3103008  64.8834229
  37.7092934  80.1766205  70.3741169  38.6462259  80.2040482  70.1801062
  37.5241232  79.2506409  70.5306625 106.5276359   5.7074750  64.0435028
 105.9143375   5.2614988  64.6276283 107.2869848   5.8984388  64.5940971
  65.1021814  67.6547670  74.6321201  66.0589027  67.6273251  74.6446514
  64.8658991  68.1340981  75.4262495   4.8528343  97.4019051  86.4311314
   4.1524434  98.0342770  86.2705421   5.3537405  97.3870373  85.6155968
   3.7996992  23.9728204   7.3983820   3.4075030  23.3575145   8.0179079
   4.3231567  24.5604268   7.9433019  10.2270997  70.8866119  50.5158186
  10.2657080  70.4271126  51.3546276  11.1278510  70.8707619  50.1923561
  92.8679727  30.1814855  85.3269100  93.7014459  30.5242265  85.6495190
  92.7668833  30.5744375  84.4599628  95.2495407   9.6865381  71.1880541
  95.5706142  10.5870164  71.1402035  95.9373163   9.2114938  71.6544485
  52.9854155  68.3333540  61.4279652  52.0917368  68.2817411  61.7669392
  53.1761456  67.4474859  61.1195898  26.9734168  96.1357689  56.6716099
  27.2085476  96.7718124  55.9960413  26.4396381  96.6318607  57.2922611
  47.9835876  66.5384284  19.9608286  47.3211845  66.1809245  19.3695219
  48.8009151  66.1248962  19.6829755 107.7934240  15.2844442  47.8737593
 108.3622288  15.9804929  47.5448179 108.0951046  15.1317419  48.7692499
 103.2873510   5.0568212  72.9360580 104.1061949   4.5866979  72.7788544
 103.5586094   5.8835424  73.3350372  44.6230301  30.7410041  14.5078142
  44.2800316  31.0721103  15.3378542  45.4163822  31.2542240  14.3547304
   7.8688870  23.6416925  69.3743467   7.8603706  24.5899309  69.5046806
   7.0407972  23.4531606  68.9328098 100.9013532  46.7865861  87.5372982
 101.6323684  47.1081651  87.0096302 101.3127970  46.2497056  88.2145882
  61.5283012  96.5676975  82.3119068  61.9764423  96.3231659  83.1216049
  61.7172766  97.5000286  82.2057343  68.2592869  82.5744438  54.1258812
  68.9319038  83.2054043  53.8695621  67.5255299  82.7545452  53.5381746
  62.4046040 100.4095840  80.1567554  61.7681599 100.8430290  80.7253456
  61.9356823  99.6525002  79.8057985  20.6753407   9.1719259  66.8072796
  21.5532074   9.0826906  66.4363050  20.2166519   9.7526563  66.2001657
  72.5481796  91.5064526  83.6172390  72.3358440  91.6357994  82.6928902
  72.1477270  90.6659698  83.8396358  32.7268086  16.5490545  67.0109510
  32.0138130  17.1753324  66.8858624  33.4111176  17.0505823  67.4541569
  30.4576359  32.5548376  60.2714396  30.7639942  31.6506113  60.2024937
  29.5374546  32.5165094  60.0106049   0.5934153   6.0414422  77.1130943
   0.9051094   5.4110254  77.7624321   0.6070862   6.8824590  77.5699759
  22.5609526  77.9104225  12.0259817  22.5589212  76.9761840  11.8176038
  23.4341081  78.2103053  11.7732103 101.4625809  60.8948318  13.4570940
 101.1089227  61.4385215  14.1610487 101.5255544  61.4857284  12.7066858
 103.2835029  23.0117906  84.1299152 103.0147432  22.5500120  84.9241161
 104.2239546  23.1514562  84.2407036  82.2847176  76.1589909  45.5556536
  81.3819218  76.3878870  45.3347492  82.6470184  76.9572687  45.9399939
   0.8482990  12.8043378  84.1488743  -0.0701752  12.5364984  84.1789913
   1.3288651  12.0508970  84.4918156  39.3349251  48.9906303   1.9322736
  40.2457889  49.1516200   1.6860063  39.3261083  48.0834667   2.2375829
  50.9154510  68.0758190  53.3907127  51.8212128  68.0745411  53.7002754
  50.9883928  68.0518532  52.4365950  45.4102192  30.9561456  87.9064083
  44.4942055  30.6828798  87.8567410  45.8705292  30.3593648  87.3163223
  60.0188398  99.6196556  40.2746153  59.7286367 100.3858376  39.7796631
  59.2244911  99.2920494  40.6964159   7.9633579  10.5197729  52.7696419
   7.8863678   9.5771326  52.9170799   7.0624886  10.8416475  52.8021574
 101.1026262  29.3878950  80.1362705 101.6447185  28.9662755  80.8030510
 100.3841327  28.7731088  79.9878216  28.8923773  65.0163452   2.2065981
  28.6117061  64.3120662   1.6222627  29.1097721  64.5743076   3.0273111
 100.0039743  12.0192445  55.3444910 100.5834507  11.2623704  55.2574396
  99.1921543  11.7500413  54.9147129 104.8118423  14.7257722  66.2473202
 103.9017605  14.9480928  66.4436722 104.8843788  14.8294557  65.2985239
  93.7521172 100.6570721  79.6170950  93.1352425 101.3864613  79.6778679
  94.0314102 100.5037594  80.5197144  24.5106468  20.1483263  42.0933199
  24.0533695  20.6865133  41.4471865  24.4119701  20.6267656  42.9164791
  91.7818807  18.5522855  71.2011671  92.0884346  17.6881326  71.4759207
  90.9762834  18.6902154  71.6993856  55.2256569  66.7214385  14.6544416
  55.6444057  65.8627025  14.5956762  54.8189434  66.8487445  13.7973459
   3.7170490  54.2017928  10.9730966   3.1421932  53.8540355  10.2913149
   3.2291635  54.9359218  11.3462694  70.6597613  18.2750715  85.7191467
  70.2768348  19.0791143  85.3682804  71.5993642  18.3690561  85.5624771
   9.0825996  26.0710634  87.2033405   8.4593258  26.3683046  87.8662205
   8.9718113  25.1205934  87.1795177  28.0172046  56.1662189  14.4352205
  28.4311231  55.4590885  13.9403780  27.2343572  56.3857070  13.9300497
  37.4502453  79.5270244  10.9830625  38.3291944  79.7883693  10.7085188
  37.5146421  78.5826484  11.1253221  11.1556228  58.5558406   8.9505155
  11.3385614  57.6274387   8.8061578  10.2429518  58.5782138   9.2382009
  12.0394167  76.4964572  13.4872682  12.6888594  76.2841216  14.1576154
  12.3631510  76.0668079  12.6955373   8.8888416   0.1476873  50.6799746
   9.6344528   0.2604116  51.2695360   9.2745838  -0.1721465  49.8644114
  14.9868641  43.7499917  40.2042580  14.5633564  44.5334161  39.8533797
  15.5437241  44.0751947  40.9116316  56.3496256  93.0205822  56.4602852
  56.3004446  92.2039604  56.9572115  55.7302761  93.6047935  56.8977070
   9.9394306  51.9058219  18.1855352  10.5190405  52.6598922  18.2935197
   9.6674665  51.9421665  17.2685011  59.9923420  92.1246910  34.4908667
  59.7417927  91.7774963  35.3469729  59.4044638  92.8672504  34.3521667
   6.5978394   9.6796525  56.1362219   5.7481108   9.3759740  56.4555550
   6.4748154   9.7870458  55.1930571  25.7371674  32.5979818  67.7035284
  26.2930355  32.0578397  67.1418333  26.2859783  33.3476175  67.9339314
  31.3789305  70.2166740   0.0952680  30.9455093  69.8666374  -0.6830923
  30.7450279  70.0876991   0.8007963  38.2025846  90.5147544  35.0787695
  37.9287609  91.1245242  34.3936212  39.1505274  90.4406349  34.9685724
  70.2477884 100.9191513  86.3311577  70.7507277 101.5780354  86.8098450
  70.5162048 100.0855732  86.7175770  69.2459606  -0.2319705  64.5282698
  68.6035680   0.2655996  64.0223122  69.2383431   0.1772893  65.3935337
  96.2551807  45.3603853  70.6478882  97.1290420  44.9697793  70.6427956
  96.0225176  45.4147352  71.5747881  24.9804481  84.7154323  28.0632837
  25.6084665  83.9931575  28.0757291  25.0067028  85.0709812  28.9516122
  86.4197849  14.5376504  74.0626669  85.7929157  15.2326692  73.8621426
  86.3037847  14.3731607  74.9984646  87.7907467  94.6738815  64.1426134
  88.4394169  95.3774738  64.1629744  87.2719574  94.8490524  63.3574963
  70.7491730  39.9577440  77.9990292  70.1202105  39.3116296  77.6778316
  70.3033637  40.3821195  78.7320995  25.8948263  69.3366043  25.9559591
  26.7086872  69.7730247  26.2077673  26.1635813  68.6820594  25.3113134
  50.9084209  86.3647262   2.8855856  50.4764446  85.6286136   3.3188970
  50.7043442  86.2496368   1.9575079  79.8101066  45.0907815  63.0018377
  79.2945074  44.6617902  63.6847401  79.3078064  44.9510492  62.1990919
 108.5971998  23.0853380  46.4881039 108.1634878  23.8188184  46.0520601
 108.9535688  23.4618486  47.2927618  88.0992483  31.5529932  48.5435390
  88.2260202  32.2561754  47.9066038  88.0175709  30.7607473  48.0125856
  46.2437677  78.7184286  54.8680162  46.0901690  79.6355200  54.6408892
  46.9360399  78.7479353  55.5284071   7.7663288  34.0323080  82.6206398
   7.7666721  34.8823369  82.1805477   8.5708580  33.6079324  82.3225498
  95.5115414  81.8271446  81.1790848  95.9173679  82.1197033  80.3630257
  96.1110020  82.1229744  81.8641853  74.8659180   9.4271005  61.3611174
  74.6569179  10.1556314  61.9457436  74.6347259   9.7461236  60.4887629
  92.5530456   4.6652139  78.7238646  93.2199262   4.0643323  79.0561867
  93.0481170   5.4198087  78.4049225  53.4608889  85.2723980  45.6355238
  52.7790785  85.2918339  44.9639654  54.2005301  85.7330227  45.2393103
  11.9138298  37.8207506  77.0832109  12.8491745  38.0239118  77.0922279
  11.6057930  38.0718149  77.9540205   0.4573355  27.7344430  80.2715397
   0.0121222  27.0995248  79.7103882   1.3499651  27.7731527  79.9280977
   5.4834662  36.4298070  65.2718687   4.9885330  35.8527578  64.6902418
   6.0646639  35.8420671  65.7545805  89.8162864  31.2170232  60.0566912
  89.6719431  31.3707174  60.9903812  90.7508968  31.0221590  59.9877071
  95.5886816   9.1710771  35.6497598  95.7599519   9.8118986  34.9596524
  96.4407896   8.7700952  35.8210969  29.0524992  43.9691440   3.4503420
  28.1537517  43.7986938   3.7321718  29.5568832  43.2353202   3.8015134
  24.8140796  12.4551050  17.0125349  23.9377006  12.8360597  16.9571550
  24.7272905  11.7463056  17.6499517 107.1316503  11.6544450  79.5444155
 106.4998649  11.2529577  80.1409817 107.8982996  11.8298162  80.0900555
   0.6035458  86.2122345  62.3887491   1.2555825  86.9026947  62.5085306
   0.7467877  85.8998966  61.4953518  14.1785107  12.0800985  85.6598759
  13.8594971  11.8911470  84.7774029  14.9641380  11.5409387  85.7511044
  89.6292305  77.6881981  57.7570581  90.4552364  77.2194338  57.8762293
  89.0668392  77.3652601  58.4610891  69.7827816  98.6046219  72.7698660
  70.4889059  99.1727924  72.4619579  70.2288723  97.8217316  73.0928469
 104.3784212   6.4295972  67.6936197 104.2879509   5.9004701  68.4861326
 103.5675071   6.2755598  67.2089243  20.6258282  79.6874896  25.8280904
  19.8516163  79.8908321  26.3529546  21.1322435  80.4997436  25.8236177
  66.7746973  86.4246273  71.4605045  66.7526865  87.3783016  71.3814449
  65.8704281  86.1506557  71.3073015  50.6479168  85.7196903  78.1836128
  49.9515438  85.0967693  78.3916187  50.2428198  86.5791988  78.2992315
  47.2392273  13.1890488  53.0405807  47.1544552  12.7136171  52.2141361
  47.9535151  13.8078904  52.8887129  99.6947826  27.7490950  74.2314005
  99.9173285  27.6610637  75.1582003 100.5399467  27.8223372  73.7880468
 108.0908672  24.7778130  69.6873808 107.2380504  25.0780177  69.3730354
 108.4885519  24.3498945  68.9291143  23.8236022  19.2024684  69.8011160
  24.7618079  19.0539372  69.6830559  23.5785651  18.6241138  70.5234003
  38.8123307  83.4075573  20.8165605  39.1547941  82.7356413  20.2270849
  38.0177792  83.0209282  21.1845834 108.1753385   3.4559312  50.0795698
 108.9944726   3.0971807  49.7381783 107.4976010   3.0856544  49.5140600
  13.9232051  21.0901284  70.5696297  13.9084554  21.9398761  70.1292419
  14.8293507  20.9866405  70.8601809  71.4395880  61.2032452   9.0770490
  70.8057665  61.5054443   9.7275694  70.9501337  61.1885032   8.2545812
  15.9834552  17.3100638  74.1658354  15.6990314  18.0227005  73.5935736
  16.5309930  16.7583275  73.6072493  93.5845615  42.5533915  64.2721224
  92.7497019  43.0085897  64.3818474  94.2455090  43.2066917  64.5014238
  26.5802622   3.2409006  71.6421175  26.0007524   2.4906135  71.7742920
  26.0484958   3.8716927  71.1567783 101.9346352  30.0185561  50.1714468
 101.5136070  29.8816943  49.3227816 102.8548671  30.1753879  49.9597692
  17.3005532  63.3571115   4.7791536  16.4150845  63.6275127   4.5361288
  17.2016166  62.4527469   5.0767572  20.6515265  18.8754261  45.5582952
  20.0445652  19.2146814  46.2161255  21.1462450  19.6426880  45.2705526
  15.0250125  32.1077228  60.4718637  15.7640886  32.6827574  60.6701946
  15.4279566  31.3066053  60.1370811  95.7429398   2.6868591  67.2788954
  96.2505807   3.2640591  66.7084789  94.8303522   2.8805485  67.0646477
  23.3599997   8.5513055  60.3010750  23.9101672   9.3337834  60.2653694
  23.9797068   7.8219312  60.2866316  11.1164808  26.8332887  65.5476236
  12.0040047  26.8101478  65.1898575  11.2382209  26.7668891  66.4947271
  93.5237732  95.5438297  67.5484896  94.1730275  95.0486224  68.0479574
  92.7069499  95.0602834  67.6718378  88.2182457  77.7030193  66.8088341
  88.2438185  76.8859326  66.3108921  88.6417451  77.4900757  67.6404190
   9.6831870  13.1462479  68.3850622  10.0251293  12.2540998  68.3269215
   9.5237541  13.2812381  69.3191862 103.4664876  20.9929299  37.2740126
 104.0777601  21.2583327  36.5868878 104.0049369  20.5078411  37.8993082
  30.0538158  35.2346253  83.1589603  29.9116993  34.6549654  82.4106026
  30.1933098  36.0980511  82.7700233 106.5951608  13.7896955  77.7223921
 106.1924673  13.2865441  77.0146418 107.1057130  13.1459534  78.2134771
 105.4129447  14.0350592  59.9724102 105.0570787  13.8673294  59.0997934
 104.6524949  14.2851770  60.4971838  66.4933060  67.6287547  32.1335561
  65.7722162  68.1585815  31.7936380  67.0238565  67.4241271  31.3635786
 104.4543133  40.7178450  56.5408373 104.0209730  41.2356567  55.8623695
 104.9360491  41.3605118  57.0615530  41.0666704  11.0611939  44.9725103
  40.7977486  11.5987766  45.7174444  41.9890976  10.8665216  45.1382351
  31.5835643  34.3657064  49.1881752  31.9715285  33.9285040  49.9461794
  32.0045829  33.9546871  48.4331656  58.2651614  82.4868610  19.8678072
  58.7804388  83.2544234  19.6196706  58.4430789  81.8461540  19.1792734
  98.4973873  28.3569622  77.7972078  97.7907480  28.5800505  78.4031153
  98.9467002  29.1868830  77.6372766  87.4594464  79.7857963  59.7215748
  88.1176796  80.0303089  59.0710545  87.9031589  79.8922931  60.5630064
   0.7660080 100.5427866  71.7799759   0.6638957 101.3475411  71.2718678
   1.6676832 100.5741898  72.0997095  55.1032757  43.0468133  10.5182226
  54.7962116  42.7872231   9.6495683  54.5216917  43.7628397  10.7737501
   3.7204455  88.9888003  27.1648080   4.6309613  89.1297796  26.9053514
   3.7438773  88.1951526  27.6994188  13.9210045  29.2070103  49.7539902
  13.1288028  29.3923140  50.2582788  13.8557649  29.7766948  48.9875460
  25.8063745  50.8957338  66.5861273  25.8513784  51.8026972  66.8888283
  25.6966877  50.9649181  65.6377506  63.1367370  92.0850240  62.0906639
  63.1734344  91.8010568  63.0040359  63.6979481  92.8597533  62.0579767
  45.6500791  78.2284620   4.9046953  45.0077455  78.7178042   5.4186781
  46.3050203  77.9481557   5.5440004  18.0981278  36.0817671  50.4854727
  17.8123879  35.5684519  49.7297668  18.1564605  35.4459882  51.1986446
  16.0003591  12.7360785  66.2003136  15.6070626  12.9083049  65.3448105
  15.2566850  12.5438964  66.7714930 108.4199845  27.5466514  64.2791653
 107.6939387  26.9242001  64.3197107 108.7229959  27.5024533  63.3722687
  89.1089643  21.7560315  68.8836908  89.3224002  21.0491896  68.2745504
  89.9515570  22.0107889  69.2596769  93.2180573  37.4648547  51.7094421
  93.4812380  37.3459482  50.7968473  92.3342563  37.0998907  51.7533350
   4.8796567  16.6720819  78.7658215   4.9407172  16.6669667  77.8105879
   4.2170620  17.3350489  78.9599228  19.8925768  87.8094557   3.6688764
  20.5630647  88.4456661   3.4200437  19.0672194  88.2875612   3.5886724
  85.8607305  42.4610138  55.0605679  86.5979017  42.0327425  54.6253777
  85.2719272  42.7076149  54.3473148  42.6015882  67.9071680  24.7897012
  43.1673794  67.1883943  24.5077856  42.3027955  67.6489392  25.6616361
  51.3538312  41.5953770  32.8733308  51.4686881  40.9332397  33.5549600
  50.4069458  41.7265323  32.8239496  13.5895802  93.1390058  79.1906881
  13.0033232  92.6864146  79.7970629  13.1205822  93.1351232  78.3562660
  84.7260842   5.3480522   3.5275228  84.5350490   6.0393373   2.8935869
  84.1827974   4.6108381   3.2489736 100.1242478  58.0198383  85.8597946
 100.8403362  58.6324501  86.0276031  99.9893559  57.5741911  86.6961193
 106.2668435  42.5109243  81.8535519 106.4276670  43.4483385  81.7457390
 105.3709752  42.3841286  81.5411854  15.3108717 100.6666761  83.2050514
  14.8913075 101.4787125  82.9208088  14.6478249 100.2285110  83.7385464
  90.8136787  84.7597014  68.6142254  89.8866548  84.9052333  68.4253359
  91.2241592  85.6123673  68.4703541  44.0377288  78.1861403   0.4853304
  44.6424197  78.5661033   1.1226804  43.2352029  78.6989501   0.5813081
  77.3353305  86.0892259  42.9296112  77.4302327  85.9338950  41.9898796
  77.4674957  87.0318066  43.0311203  50.6272268   2.3752204  60.6643677
  50.4007053   2.3156147  59.7362709  49.9538326   2.9428574  61.0392857
  98.3056141  20.3142309  32.3787093  98.2816185  19.9941170  33.2804775
  97.6543463  21.0153484  32.3560309  27.7681780  10.3955293  80.8697891
  28.5125327   9.9517077  81.2762260  27.3099637   9.7049773  80.3908253
  72.9544138  51.2614023  13.3674581  72.5737785  51.9136199  12.7792699
  73.8939284  51.2960003  13.1876047  74.8125186 102.3251998  57.5191307
  74.0863929 101.7191825  57.3717690  74.4206979 103.0571311  57.9955626
  52.1864270  83.2213571   4.3827207  52.5777696  82.8531459   3.5905702
  52.0583330  82.4679306   4.9590643 108.6308348  12.2699130  70.9947491
 108.5208259  13.0082285  71.5939283 109.0034780  11.5747702  71.5370989
   2.1981832  19.3539357  71.0671568   2.9540420  18.9642870  70.6277418
   1.4547843  18.8233995  70.7805872  25.6568670  30.4617453  80.7091141
  26.3708305  30.7553983  81.2750244  26.0942101  30.0174379  79.9827862
 103.7943817  28.0622244  36.9589305 104.1212548  28.8808560  36.5858006
 103.4604908  28.3086443  37.8215003   5.0457884  87.0395171  48.1587791
   5.0352408  86.4276980  48.8948536   4.9423672  87.9013680  48.5622025
  32.6677060  44.5601082  84.4783688  32.1200967  43.9371347  84.0005970
  33.1765938  44.0182877  85.0814342   9.4258946  11.1538184  56.0076189
   9.0268123  10.3662765  55.6378317   8.8664913  11.8697953  55.7064962
  16.5243089  11.2177300  42.1487188  16.7701709  10.5452013  42.7839279
  16.1130011  11.9042432  42.6738453  12.5867021  27.8805327  76.0462046
  11.6443837  27.7154732  76.0782003  12.6862204  28.7681007  76.3905191
  40.0705338  10.7702076  51.3643789  39.6824718  10.8821130  52.2322035
  39.3232226  10.7684886  50.7662535  95.6234516  23.6094284  80.0827408
  95.0603844  23.0336475  79.5653725  95.3111662  24.4920397  79.8834753
 108.1114915   3.8448864  78.8975143 107.5445100   3.6037180  79.6300459
 108.9905949   3.8752967  79.2749834  29.8345637  36.5039372  44.0490437
  30.0315261  35.6533551  43.6566830  29.6082139  36.3022470  44.9569654
  86.1059525  87.7746474  60.3897238  86.5043583  87.3264419  61.1357927
  85.9306314  88.6601793  60.7080460  18.8517404  37.1105051  67.5332355
  19.0012908  36.8305469  68.4362841  18.3716857  36.3850069  67.1339464
  24.7205114  30.4242992  47.1247339  24.4430971  30.6965017  46.2499905
  24.3558407  29.5454478  47.2289944   1.4227746   9.9053872  81.8002892
   1.9480003  10.2638698  82.5157261   0.5957410   9.6553540  82.2122669
  43.7302017  27.2981000  74.8385477  43.5806465  27.7893472  75.6463432
  44.5055914  26.7673540  75.0210571 101.6437545  91.1408221  61.1565971
 100.8031716  90.6987320  61.2758017 101.7044249  91.7438232  61.8975019
  20.1540518  29.1300678  68.3115339  20.6516743  29.4127870  67.5442839
  20.7279754  28.5029435  68.7514877  18.5151601  26.3856721  42.0675850
  18.3027554  26.4153075  43.0004501  17.7395201  26.0031295  41.6573715
  97.7526046  38.7635660  20.1021361  97.4385382  38.0654621  20.6768060
  97.9796244  39.4789100  20.6962562  99.1765310  13.9489186  59.8714352
  98.2868041  13.8320220  59.5383406  99.7092129  13.3514464  59.3465471
  27.8837585   0.5795166  85.2177143  27.3898673   1.3898650  85.3427696
  28.6002374   0.8236959  84.6318245  91.5571190  41.0315943  79.2060518
  91.1030019  41.6115713  79.8173141  90.8949376  40.8066273  78.5524940
  57.9331293  72.1245538  67.9746008  57.8902569  72.9576646  68.4439850
  58.8087180  71.7875349  68.1643248  23.3397031   3.9528796  86.4838314
  23.5313654   3.2493472  85.8637238  23.3471704   3.5257626  87.3404217
  46.3435607  73.7718108   1.3843591  46.7489563  74.5635798   1.0308225
  46.2120264  73.9641478   2.3127611  39.1195726   8.3815593  88.1502342
  39.7727489   8.3036619  87.4548817  38.7168717   9.2378217  88.0057430
  35.5685806  41.5073013  56.8597412  35.2787161  41.4412880  57.7696085
  35.9957075  40.6691074  56.6830301  22.2745596  91.5768030  26.4873083
  21.3983094  91.9175079  26.3074834  22.2254955  90.6513336  26.2478788
   9.1265690  22.2316504  47.2553921   9.5328945  22.6335049  48.0232763
   8.3374810  22.7514172  47.1023703  31.7079735  17.0561159  51.0889578
  31.6669512  17.2208607  50.1469326  32.6408911  17.0980835  51.2990427
  95.4819168   2.6672930  72.1928930  95.5096294   2.4620128  71.2583780
  95.7796694   1.8657444  72.6231241  30.6803894  61.2799788  46.8911600
  31.5415716  60.9047127  46.7073917  30.2529764  61.3287973  46.0360765
  65.8452418  76.8524658  55.7501554  66.3399889  76.2176119  56.2682486
  66.5145173  77.3665654  55.2984905  41.3058329  27.0604897  77.0953846
  41.1376381  27.6216030  76.3383532  40.6247425  27.2971225  77.7249479
  42.1491377  83.6257627   8.4942491  42.4667768  84.2538360   7.8455122
  41.2245412  83.8458088   8.6079748  12.0553410  57.3234653  54.0466070
  11.4044893  56.6810751  54.3293762  12.0671690  57.2483540  53.0924320
  22.7209579  45.5510065  13.8723619  22.8815030  46.0084560  14.6977098
  23.5846864  45.2440581  13.5967119  64.5167254  89.2887071   0.6628378
  63.6056565  89.3548444   0.9488733  65.0289153  89.4806531   1.4483602
  27.6742684  76.4091852   0.7975538  28.3964871  75.8195093   0.5809553
  27.9922490  76.9119909   1.5474279  80.8991077  87.8091609  75.5051947
  81.0397460  88.7532829  75.4338789  80.3340634  87.7083634  76.2712193
  66.9623336 100.6681707  84.8353481  66.7051806 100.1822343  84.0517902
  66.1897662 100.6387716  85.3997135  10.2782857  14.2781317  81.1535645
  10.4819238  14.9347115  80.4874802   9.7180885  13.6459291  80.7033062
  34.7551027  87.2962430   0.6635149  35.3008965  88.0684617   0.8118971
  35.0661846  86.6564324   1.3039072  31.8919635  50.5988312  61.4780092
  32.7342582  50.1851988  61.6668892  31.3545489  50.4100180  62.2472763
  20.2779746   6.5568203  51.8316412  19.3843997   6.8766612  51.9559717
  20.1831818   5.8000183  51.2532806  76.6990816 101.6060255  83.7644196
  77.1904951 101.4836538  84.5766830  75.8022552 101.7789961  84.0508080
  59.7331141 100.6717852   1.7608888  58.9260744 101.0800865   1.4475114
  60.2948116 100.6266477   0.9871442  65.8229920  89.0348529  71.9444036
  65.9982809  89.9604224  71.7746162  65.0175377  88.8510214  71.4609957
  97.3654700  16.8166041  58.5179567  96.8803943  16.0714078  58.1635332
  96.7135740  17.3134875  59.0122938 106.6590149  12.9791880  62.1004105
 107.5211407  12.5924826  61.9473410 106.3712699  13.2727158  61.2359571
  18.7700903   2.9143369  77.4763393  18.9460230   2.7809539  78.4077311
  18.8156974   3.8630277  77.3574400   5.6185383  23.9348125  38.6344218
   5.1923954  23.1021476  38.8376474   6.4747673  23.8753700  39.0581775
 103.9024255  12.5208894   4.6004827 103.0794213  12.1341077   4.3016584
 104.5200799  12.3483840   3.8898618  24.2751609  79.9200657   6.8371160
  24.7526811  80.1011303   6.0275324  24.5512997  80.6121400   7.4379594
   8.0395722  15.0169003  37.0511007   7.6767832  14.1353154  37.1372628
   7.5180149  15.5502093  37.6509261  73.2158660  55.3921971  -0.2189009
  73.9196609  56.0408801  -0.2297346  72.7315735  55.5776506   0.5856474
  61.7272352  90.4976705   2.6185472  61.6677521  90.8618000   3.5017831
  62.5962900  90.7555535   2.3111875 100.2242232  36.5620828  58.0852795
  99.8604007  35.7081366  58.3190346 100.1816071  37.0704222  58.8952208
  98.9888848  31.5827799  57.3274946  98.2821227  31.7074919  56.6941166
  99.1118563  30.6342721  57.3654795  11.5005434  36.8942952  85.4544830
  12.3562860  36.5087533  85.2666092  10.9573257  36.6480422  84.7058105
  60.4643773  94.5344093   1.0600526  59.9654459  95.3153923   1.2995680
  61.3103460  94.8716715   0.7653959  36.8980656  45.2358368  26.4858396
  37.0697964  46.1373296  26.2137087  37.0789177  45.2308044  27.4257810
   9.9189168  34.8268151  56.7239952   9.5278335  34.1747022  57.3054028
   9.9137354  35.6365585  57.2344112  41.8756771   6.7344213  74.3922043
  41.4591074   7.3562032  74.9889326  42.7744436   7.0518774  74.3046474
  21.1102653  36.1464143  60.9287167  21.0052657  36.0891962  61.8784189
  21.5552402  36.9819403  60.7868481  65.7657098  69.7350290   0.4522379
  66.5578579  69.2272082   0.6278856  65.5373763  70.1225522   1.2971838
  86.1439991  11.0824609  48.2056189  87.0919991  11.2006879  48.1460190
  86.0055542  10.1554787  48.0112791  24.2392373  11.0110152  54.3803501
  24.7861528  10.3697753  53.9265585  23.3502960  10.8238077  54.0787315
  89.4129587  25.4654860  87.5844288  89.5577038  26.0034442  88.3628178
  90.2261115  25.5426288  87.0853710  89.2544271  21.1555433  87.8742599
  88.8273657  21.8957615  87.4430752  89.5305945  20.5866051  87.1557426
  42.7686453  18.9991629  60.8443880  43.6566210  18.9200318  60.4958582
  42.8096247  19.7505403  61.4359856   4.8467470  67.6258742  63.4410381
   4.1194798  67.0195805  63.3005953   5.5820109  67.2305142  62.9727268
  15.2558661  40.1151466  72.2796631  15.2593744  40.8026743  72.9456425
  15.6583714  40.5225611  71.5126991  21.2861823  72.0008471   5.3210600
  21.8058442  71.2057116   5.2029760  20.5478143  71.8957165   4.7210653
   0.7771716  32.1922088  60.4402971   0.3604546  31.6789031  59.7481251
   1.7155206  32.0982385  60.2762747  21.9337808  52.3040511  13.4685476
  21.0561537  51.9456077  13.6009081  22.3540722  52.2310201  14.3254335
  33.2469273  26.6523957  66.9311428  33.7948418  26.3966894  67.6731873
  32.3640752  26.7150736  67.2956610  96.0823919  22.5839233  67.2186756
  96.5706206  23.2544422  66.7408991  95.3695430  22.3402810  66.6281557
  21.1301351  48.4587288  68.4093046  21.4885521  48.9776802  67.6892614
  20.2951264  48.8790607  68.6150026  91.4392343  96.0485112  81.3026237
  92.3603382  96.0565250  81.5628910  91.1810508  96.9702231  81.3071060
  12.6066506  46.1453962  88.0865383  11.8564248  46.7337751  88.1714439
  13.1508875  46.5473986  87.4094582  99.5251824  56.5608549  42.4139357
  99.3201233  57.3071623  42.9771471 100.4585440  56.4029932  42.5558805
  16.4940810  48.9035606  84.1115952  16.6211617  48.3575487  84.8874569
  17.2111464  48.6590338  83.5265732   4.5254526  41.9734573  55.2291155
   5.2437872  41.7670679  54.6310949   4.6886638  42.8779936  55.4963541
  32.6745491  51.9647994   0.5012186  32.4776416  51.2504331  -0.1046984
  31.8733295  52.4880606   0.5230482  28.6224763  47.9811963  20.9717329
  28.8503908  47.1656337  20.5254800  27.7394633  47.8308579  21.3092573
  23.9812756  13.7277222  65.6646395  24.3553591  13.6203027  66.5391397
  23.0957794  13.3716118  65.7375193  18.4923017  59.6737432  50.8955669
  18.5009050  59.0851784  50.1407528  19.3546724  59.5625830  51.2958050
  11.9920444  16.7669272  66.3546753  12.1074903  17.5490236  65.8150148
  11.9165254  17.1015501  67.2482967  26.9142842   3.4006959  64.8777390
  26.0077524   3.1180975  64.9984455  27.4050069   2.9236346  65.5469418
  95.7561364 101.0985132  77.9947901  96.3848987 100.7290194  78.6147642
  94.9203362 101.0788434  78.4609270  23.9050961  16.3990974  62.6424742
  22.9638457  16.3158512  62.4896669  24.2225814  15.4968119  62.6787329
  16.5927933  99.9490526  14.8204954  15.9089683  99.9324873  15.4900797
  16.4750003  99.1310432  14.3375642  67.6996230  56.1779198   4.7317369
  68.2557677  56.6005209   4.0772588  68.2788585  56.0312545   5.4795416
  55.1649402  74.2203358   7.6739938  54.4240247  73.6199263   7.7563532
  55.1087223  74.5484379   6.7765386  93.5019554  41.7349148  17.8615332
  94.3414820  42.0654869  17.5419283  92.9365398  41.7305994  17.0891869
   6.2320119  34.3508053  42.5937366   5.6675220  34.8503780  42.0038080
   6.6727936  35.0152755  43.1232834  22.3846984  49.7785425  77.0963621
  22.4770308  48.8332653  76.9773769  21.5463448  49.9908304  76.6860867
   4.9457575  76.5803539  85.8997440   4.0665079  76.7740141  85.5747128
   5.0479580  77.1456133  86.6654301   1.9124541   3.7080204  78.0521202
   2.2600882   2.8215826  77.9540873   1.5701549   3.7335950  78.9456606
  15.0402319   7.6346880  51.8419504  14.5800483   7.2992289  51.0725784
  14.4313347   7.4916035  52.5665188  25.0850916  15.5435526  56.4737463
  24.9388099  16.3803697  56.0326481  26.0319138  15.5065823  56.6093636
  24.3879437  25.2153540  46.9715023  24.4366598  24.4970751  47.6023245
  24.8883343  24.9055099  46.2166262  69.8944574  84.2251228  74.2879677
  70.4427879  85.0039004  74.1927338  69.3301912  84.2334818  73.5148191
  96.7798676  91.6513287  48.2698059  96.8713012  92.1279060  49.0948820
  95.8795013  91.3265490  48.2793140  19.4652057  30.9955502  87.7516079
  19.2079437  30.0735712  87.7504635  20.4184651  30.9783268  87.6665783
  39.5370843  66.5350368   3.6297281  40.2487193  66.4855781   2.9914816
  39.9704211  66.4483681   4.4788129  58.7685870  55.2904168   6.0722215
  59.1868662  55.4104993   6.9247778  59.4945453  55.2813917   5.4484136
  99.9006559  16.5423834  58.7038612  99.0683914  17.0150113  58.6900711
  99.6782387  15.6755543  59.0435219  47.9919838  70.0592628  12.4129636
  48.1189727  69.1120687  12.4670847  47.8299462  70.3311947  13.3163030
  38.6613631  12.7121055  77.5907230  38.3045173  11.8579543  77.3471689
  37.9685736  13.3336651  77.3672581  97.6212667  82.8149274  17.5892789
  97.6102232  82.7565792  18.5446413  96.7409252  83.1104973  17.3571832
  24.1875373  90.4728606   0.5328519  25.0762962  90.8123997   0.4277284
  24.2889665  89.7072390   1.0983331  96.5448607  21.4770103  52.2023535
  95.6346239  21.2041497  52.0872545  96.7781068  21.1696291  53.0783367
  11.7400897  10.3238583  86.0944176  11.1977077  10.5531251  85.3397655
  11.6074049  11.0429859  86.7120552  64.9050258  23.9369109  23.5187490
  64.1255282  24.2816952  23.0831583  65.6183885  24.4961145  23.2111128
  38.9707184  15.5646408  82.6778793  38.3978176  15.0954783  82.0713329
  39.7057343  15.8544016  82.1374893  56.0178088  77.7116397   4.8433359
  55.2903627  78.1402305   5.2942999  55.7074176  77.5946453   3.9454515
  14.3713713  10.2102137  68.9301348  13.5800123   9.8785281  68.5059118
  15.0907433   9.8161733  68.4367132  54.1614975  39.7889280  88.2189846
  54.9805273  39.8706937  87.7303791  54.3290056  39.0908933  88.8521671
  57.7296351  80.9657743  28.6647756  58.5869120  81.3465193  28.8554056
  57.2628783  80.9964302  29.4998987  30.8042860   3.1009972  66.8833303
  29.9075580   2.8029874  66.7306995  31.1953759   2.4158528  67.4254179
  58.8337421   5.7923204  54.3890572  59.0908051   6.2531716  55.1876593
  58.3746290   6.4519471  53.8691092  31.7302585  25.9718013  44.2288733
  31.7070103  25.0632429  43.9285183  32.6375175  26.1111879  44.5003176
  15.2603269  50.5803823  81.9764709  15.7304013  49.9005795  82.4593067
  15.9243226  51.2440109  81.7895508  14.2306960  24.0426922  26.4666200
  13.9642549  24.9617529  26.4904714  13.7091255  23.6242580  27.1515346
  14.4619465  29.9061394  88.0538177  13.5909379  29.7118735  87.7076435
  14.2971170  30.2930856  88.9136696  19.0328491  48.4406471  61.7277050
  19.6147454  47.9190445  62.2804785  18.9657009  49.2825890  62.1781063
  17.6702619  11.9768226  72.6858187  17.3499668  11.8024182  71.8008137
  18.6130607  12.1029496  72.5787973  39.7968936  28.0673790  78.9408255
  39.0733027  27.6421285  79.4010496  40.4627037  28.2031870  79.6149826
   4.4723612   3.9310709  48.9340305   3.7019044   3.6053461  48.4686995
   5.2099741   3.4855548  48.5172892  58.9052629  30.5665851  56.7347717
  58.1238365  31.1083674  56.6248608  59.6077156  31.1923981  56.9112682
  45.0809478  56.5775177  15.4801614  45.2846174  56.0133862  16.2261541
  45.5923789  57.3718896  15.6339224  68.7932400   8.4831754   1.6601713
  68.1456432   7.7976934   1.4959581  68.8359076   8.9739267   0.8394582
   2.6682353  12.9126585  57.5276232   1.8131602  13.3362114  57.4522495
   2.7373824  12.6755416  58.4524059  25.0037909  43.9535713  66.4898777
  25.2076912  44.7157431  65.9478855  25.7029247  43.3287859  66.2972975
  37.6906824  41.6941214  39.5324659  37.5927377  40.8546638  39.9818563
  37.8469610  42.3251152  40.2350712   9.1024649  55.3414917  43.0674553
   9.9911022  54.9902773  43.0108643   8.7985051  55.0849009  43.9380884
 105.3218163  16.7462325  49.1904163 105.8606480  17.2566664  48.5859776
 104.6995563  17.3788929  49.5492554   0.5535762  34.4091821  62.0669842
   0.7664388  34.0102243  62.9106379   0.6621992  33.7005591  61.4327240
   1.8009102  49.7117138  46.3774061   1.2216941  50.4737616  46.3720608
   1.2307985  48.9791727  46.6110420  53.3335257  33.4737325  67.3625517
  53.0549622  34.3893433  67.3796558  52.8480816  33.0892849  66.6326332
  52.5628661  72.7026084  15.7511003  52.3237156  72.8446558  14.8352106
  53.4269260  73.1051495  15.8382280  34.0119600  38.1666207  41.7501497
  33.3284712  38.1203914  42.4186850  34.4884181  37.3410106  41.8372393
  25.2733922  11.6529119  51.8399525  25.1694441  12.1295047  52.6635313
  24.3791914  11.5217626  51.5246105  46.3784742  44.2398167  60.7840633
  46.4286137  44.1311646  59.8343754  46.0167122  43.4122467  61.1010551
  34.8175359  28.4562778  21.8835568  34.9715018  27.8810811  22.6330066
  33.8643289  28.5099125  21.8146396  35.0494504  36.1109710  55.2110386
  35.7233238  35.9365797  54.5539904  35.5253768  36.1371636  56.0411215
  59.0542126  33.2869506  51.3838196  59.7432947  33.8680768  51.7058182
  59.0439844  33.4290385  50.4372787  36.8052912  24.4541168  54.2124462
  37.0714426  24.2228127  53.3225632  35.9819674  24.9292994  54.1003227
  13.6954319  35.0927520  84.5114136  13.6043453  34.1685176  84.7432041
  14.5447993  35.3474927  84.8718452  31.1031008  27.6104927  76.2858009
  30.9233117  27.7491140  77.2156906  30.9158778  26.6829658  76.1413240
  40.2982330  21.2441659  25.4320049  39.8288345  21.2351632  26.2661600
  40.4227972  20.3197145  25.2172804  26.4712000  32.8306603  34.1555619
  27.3405218  32.5634694  34.4540882  25.8702397  32.4469709  34.7942019
  31.9387031  55.9339046  65.3799343  30.9839106  55.9481907  65.4462385
  32.1476698  56.6478539  64.7775650 102.8196253  42.8658962  70.6672239
 102.7850677  43.7762356  70.3734255 103.2181091  42.3933172  69.9363947
  14.3799698  40.4641151  63.4868002  14.2754841  39.5250225  63.6398268
  15.1500845  40.7063627  64.0010691  28.2757854  42.4998617  62.8391790
  27.3221612  42.4253273  62.8034353  28.4386396  43.4357214  62.9569483
  79.6630787  98.0165270  21.6387708  79.5428823  98.8106850  21.1181123
  80.5122303  98.1353357  22.0642908  73.5888695  72.6654532   3.0666597
  72.6740717  72.8001764   2.8192194  74.0498804  73.4196880   2.6994665
  55.6780910  26.6843724  58.6943913  55.9383202  27.5961733  58.5635138
  54.7471142  26.7299032  58.9122200  26.4308357  67.4799156  86.3125706
  26.7865467  67.2094917  85.4660606  25.5721021  67.8482533  86.1048889
  66.9489765  25.7901025  66.1241579  66.1270237  25.3077626  66.2134743
  66.7575550  26.6576052  66.4805698  57.9355263  79.2215088   8.0575140
  58.2000827  79.1700080   7.1390493  58.6515163  79.6895197   8.4871156
  83.0775735  25.1851217   1.2735231  83.9642510  24.8371354   1.1789758
  82.6581553  24.6030895   1.9072111  14.5737435 102.2404892  79.8316383
  15.0460078 101.4224993  79.9868441  14.5615937 102.3329903  78.8789940
  75.7935427  67.6903942   1.6186578  75.8830260  66.9435862   1.0266264
  75.1341008  67.4139109   2.2549970  41.6917992  25.8771729  63.9325619
  42.5082541  25.7251000  63.4566355  41.7782021  25.3542018  64.7296000
  35.9165359  47.4427414  65.1588202  35.1536322  47.9461813  65.4430008
  36.3101530  47.1251106  65.9714746  99.6021755  15.4759657  73.2066345
 100.1393832  16.0945344  73.7016249  98.7125589  15.8223617  73.2760906
 108.2254734  54.5687294  72.8122473 108.9388537  54.7295475  72.1946287
 107.5735731  54.0854263  72.3046303  77.9778694  76.0972646  37.1971090
  78.0680584  75.7397273  36.3137777  77.9095005  77.0430901  37.0668371
  86.0357011  28.8927007  52.7827358  85.6813301  28.5546756  51.9603062
  85.5584921  29.7089982  52.9316092  15.2619636  44.9904966  78.8999033
  15.4429686  45.7242680  79.4873142  15.6401610  45.2558661  78.0615854
  21.5987825  56.4660883  87.0031071  21.8373680  55.7996941  86.3587284
  22.2089720  56.3280487  87.7275658  11.6933334   4.9190465  61.2791729
  12.5192380   5.4018313  61.3113117  11.0530853   5.5134118  61.6703844
  36.5137714  70.6947878  32.9121835  35.6308276  71.0297218  33.0685861
  36.4676439  69.7719601  33.1621702  72.1066094 100.2455094  71.6557217
  72.3100689 100.6659708  70.8202314  72.6580539 100.6995383  72.2929049
  42.8131580  25.3178024  52.6147604  42.2185707  24.9322534  51.9712925
  42.4888229  25.0038743  53.4588480  39.8148991  97.9365562  63.1916618
  38.9873291  97.4572479  63.2319403  39.5573927  98.8583755  63.1785297
  39.3584967  44.8124981  66.7585468  38.7328935  44.2140102  66.3503027
  38.9203548  45.6634140  66.7440987  22.7240586  33.3346391  69.7460508
  22.7844691  33.6765480  68.8540411  21.9236875  32.8096271  69.7476196
  13.5888839  34.5380592  53.7371731  12.7587557  34.0627861  53.7723255
  14.0347362  34.1847587  52.9673481  33.4904218   1.7771639  59.2960310
  32.9667878   2.5281039  59.0165138  34.3533778   2.1446869  59.4869852
  15.7882655   3.0724335  37.7778864  15.7479656   2.5798720  36.9581366
  16.4297736   2.6009625  38.3093143  54.3708038  28.2596779  67.4691534
  54.5553255  29.1331267  67.1237993  54.5421696  27.6705122  66.7344761
  95.9616516   6.5274230   2.9401643  96.2257335   7.3891107   3.2626302
  95.6589172   6.0622875   3.7200506  27.3295331  46.5185452  68.7027740
  27.8878999  46.0230207  68.1036806  26.7926478  47.0673656  68.1311274
  16.6923046  18.8517582  42.9761076  16.8225420  19.7562659  43.2609510
  15.8609927  18.5927832  43.3737040   6.1851281   8.0854273  82.1854305
   5.6087565   7.3938739  82.5106716   6.7994279   8.2422292  82.9025650
   4.2591652  19.7148299  53.3096218   5.2103335  19.6106875  53.2838345
   4.0816581  20.0804257  54.1762590  33.4592986  13.7546813  19.4664383
  33.5257387  12.9488492  19.9787378  34.3606043  14.0694439  19.3971443
  53.1110584  54.2492294   4.4988306  53.4676074  53.9183372   3.6744363
  52.2148691  53.9138993   4.5239217  52.1417974  93.2084682   4.3137224
  51.7851352  93.1920174   5.2018411  51.4255892  93.5433557   3.7741621
   9.7685069  11.6358018  50.6432629   9.1010422  12.1084166  50.1459122
   9.2817783  11.1985540  51.3419342  34.9772620  35.8998394  41.8783903
  35.6119108  35.6102967  41.2229395  34.5296264  35.0981569  42.1488762
  22.7526997  81.1113623   0.1740129  22.1294998  80.3851440   0.1525362
  22.2226630  81.8872931  -0.0082629  40.4639292  35.4146600  86.2206650
  39.9917173  35.3685331  85.3893280  39.8684621  35.8790135  86.8089104
  41.5051174  34.6246576  74.0414381  41.7582846  33.9121056  73.4545708
  40.5646610  34.5041156  74.1727448 102.7939148  32.5177479  85.2851009
 103.6443419  32.5688124  85.7214451 102.4102415  31.7004943  85.6031036
  29.4677424  71.4093351  65.8295727  28.8806176  70.7384491  65.4811144
  29.2888975  71.4191961  66.7698669  15.8632994  49.4021797  58.7099504
  16.2985408  48.8751507  58.0398464  15.3018332  48.7820292  59.1751385
   7.0039338  32.4273396  61.2307358   6.9347101  31.4978600  61.0127735
   7.2787380  32.4385309  62.1475697  25.0274396  31.3736463  49.5906734
  24.8483276  31.0446620  48.7098074  24.7956252  32.3015261  49.5515347
  39.9486160  44.3911171  27.8047872  40.8004618  44.4821453  28.2317615
  39.8678231  45.1752901  27.2618532  37.0319223  19.0250826  29.0890789
  36.3686705  18.3588648  29.2693043  36.5435266  19.7497821  28.6985493
  99.3717642  84.4473362  41.1565828 100.2189852  84.3185616  40.7301283
  99.2555864  83.6672211  41.6989422  40.6880665  14.1907513  29.5163345
  41.6180897  14.1770327  29.2902660  40.6441879  13.7708759  30.3754115
  18.3524454  42.8902483  53.2210207  17.6443183  43.3914232  52.8165340
  18.6246741  42.2709179  52.5438547  33.4457898   1.8800090  70.1581478
  32.5669622   2.2440551  70.2647400  34.0316725   2.5808853  70.4440641
  51.0823965  30.3539181  53.3485937  50.1890326  30.0260615  53.2454586
  51.0463667  31.2535691  53.0236912   5.5258566  80.6341076  85.6971931
   5.8862412  80.2592468  84.8935604   6.0924518  80.2998066  86.3924980
  24.8466110  56.8679810  56.7638397  24.7548079  56.8035030  57.7144432
  24.1449022  57.4609613  56.4951229   7.0838273  19.6853650  83.2760525
   6.8802792  19.6235490  84.2093086   8.0402833  19.6801925  83.2386589
  16.1362731  61.1984491  56.5666580  15.3178346  60.7253122  56.4165545
  16.7085660  60.5586720  56.9902086  20.3907442  14.7612464  58.8810015
  20.7670212  15.5894494  59.1788721  20.8178329  14.5924473  58.0411625
   2.5915685  24.6846080  40.8979893   1.9005063  24.6729589  40.2357769
   2.8395367  25.6063843  40.9692049  42.4578094  74.9741554  70.0396252
  42.8816891  75.7716513  69.7225189  42.8390551  74.8283052  70.9054279
  59.2269516  24.2014432  54.6216154  59.9234152  24.2621183  53.9677858
  59.6794701  23.9704275  55.4328442   4.9854195  10.2229428  85.2466202
   4.6362188  11.0454631  85.5897713   5.0434601  10.3631389  84.3015194
  34.8707128  80.0381374  49.9095631  34.3648577  79.6382523  50.6169748
  35.4200745  80.6890774  50.3462791  59.8463749  73.0195501  13.3338888
  58.9863681  73.4395841  13.3477266  60.4411696  73.6798408  13.6895139
  25.7724094  22.1265888  78.9380264  25.0911808  22.6872396  79.3092823
  26.2080431  22.6775885  78.2877541  99.4805915  52.8277254  15.1517344
  98.8675011  53.4030533  14.6941888 100.1752253  52.6624775  14.5142329
   0.1820572   6.3952690  53.8777494   0.9991365   6.8448925  53.6622238
   0.0416567   5.7910669  53.1487370  55.4439722  99.3256596   7.4119146
  54.7809230 100.0116947   7.4890382  56.2065207  99.7701147   7.0414980
  36.1587477  39.6005702  59.9802971  36.7014456  39.4368768  60.7516050
  35.8648491  40.5058432  60.0819731 104.8389794  26.1412716  71.7012167
 104.1783107  25.4554272  71.7979956 104.3872152  26.8450117  71.2355042
  20.6640291  42.2579813  59.9550486  20.2602220  41.8235874  59.2037344
  20.0330877  42.9310942  60.2101231  50.9731388  47.6529789  71.9186544
  51.2764215  48.5487795  71.7710304  50.7291460  47.3363256  71.0489225
  26.6218996  52.6317644  69.5037603  26.5151000  51.6805887  69.4939804
  25.7784534  52.9705811  69.2037106  28.9679265  63.4052324  61.7611885
  29.7155643  63.9756918  61.5827322  29.0060091  62.7388144  61.0751343
  23.6293888  27.5097394  39.8284841  24.5030665  27.8218317  40.0641060
  23.7559843  26.5867901  39.6085548  45.2940367  74.3901065  10.2493055
  45.7150184  73.5697105  10.5061300  44.3587236  74.2282203  10.3726537
  18.5983789  50.4028940  50.0016546  18.8112223  50.2202511  50.9168434
  19.3952334  50.7944441  49.6439695  98.1606672  20.3844921   0.5051763
  98.8043830  19.7307245   0.2323110  97.3762724  19.8764459   0.7121618
  32.1061587  37.6759815  59.3664885  33.0280757  37.6005387  59.6126747
  31.8818021  36.8157029  59.0117788   1.0699993  48.1568861  74.2516708
   1.8538916  47.6481867  74.4589663   1.1403122  48.9389753  74.7990417
  42.4966431  47.6013756  71.3926411  43.0041504  47.2357750  72.1172142
  43.1347513  47.7198744  70.6890726  40.2415514  10.7997108  25.8522391
  39.7734928  10.4999530  25.0729465  40.2251482  11.7546749  25.7889509
  44.3257618  22.6187873  68.4024334  44.0040302  23.4043050  68.8447905
  44.7986460  22.1380448  69.0817690  38.7558579  29.2325187  55.8707952
  39.3315578  28.9513588  55.1596355  39.3243265  29.7343397  56.4549637
  48.2635640  48.8476762   2.7884252  47.6156281  48.9592132   3.4841020
  49.0089403  49.3792340   3.0678804  34.5660615  64.1202164  65.4128838
  33.9842272  64.1073370  66.1728430  35.4148555  63.8412428  65.7563305
  13.9460623  39.5601940  55.3518915  13.6206245  38.6673236  55.2374220
  13.2662010  40.1139736  54.9680328  41.2571478  38.4128404  74.9426508
  42.0783043  38.1133318  75.3328180  41.2983513  39.3673682  75.0010681
  32.3793173  23.9435267  38.1940484  31.8932104  24.5110679  37.5958610
  33.2839060  24.2506003  38.1335545  37.1635604  45.1486635  82.5865269
  36.3752866  44.6662760  82.3372173  36.8402815  45.8809090  83.1114483
  65.1546596  73.8419631   6.2857015  64.8461221  72.9435065   6.4032323
  64.6202635  74.1870954   5.5704839   6.0561346  83.0196193  18.0935915
   6.1115407  83.9554813  17.9003961   6.1274456  82.5940397  17.2391756
  30.5733109  18.5912049  66.7919254  29.9596882  18.1287777  67.3627663
  30.0187922  19.1475534  66.2449169  44.6043884  66.8943777   4.5331533
  44.2629157  66.6828373   5.4019888  45.0671082  67.7236822   4.6530492
  45.3065443  24.4751215  55.9181023  45.0104237  24.0083575  55.1366472
  46.2604761  24.4908214  55.8406258  90.6893576   3.2274997  77.3945475
  91.2593926   3.7141758  77.9898977  90.9596027   2.3149395  77.4966908
  92.4446033  76.6340545   1.0523756  92.2858547  76.4125278   1.9699533
  92.1927665  75.8471992   0.5689771   0.7605598  14.1315377  76.6608667
   0.8705387  15.0714409  76.5169287   1.0650790  13.7275457  75.8482838
  47.4337196  28.6463904  68.1433105  47.8686523  28.4500098  67.3135519
  46.6645861  29.1592669  67.8950691  36.0663152  37.3800421  87.6004314
  35.9672236  37.4480104  86.6508007  35.8066988  38.2402039  87.9305077
  89.2094492  64.5638302   0.2615984  89.5529054  64.5874336  -0.6315558
  89.0837263  65.4837742   0.4942472  23.4986043  48.8836479  55.1880980
  23.0409980  49.5090961  55.7499170  23.6979198  49.3774223  54.3926811
   7.3830200  97.3238753  84.9109554   7.3519064  97.1371137  83.9726734
   7.6692082  98.2357334  84.9643040  17.0661533  63.9714575  66.7686415
  17.9662108  64.2960310  66.7406988  16.9499409  63.5156059  65.9350204
  64.6036934  68.7357977  21.6373403  64.6854662  67.8588465  21.2625082
  63.9434336  69.1674164  21.0951288  68.2216905  76.4015034  38.1999643
  68.9995836  76.9590619  38.1844766  67.7053760  76.6897633  37.4472578
  39.7592735  55.2642155  75.6680489  40.5966806  55.6431007  75.9353065
  39.4317055  55.8589983  74.9933910  26.8310308  53.7274361  60.6476974
  25.9476590  53.4941816  60.3622580  26.7150879  54.0604353  61.5375853
  84.8794006  55.4594463  11.4057310  84.8472904  55.7556674  10.4960878
  85.7563661  55.0892257  11.5062482   3.3002695  52.1826363  84.0339947
   3.5656458  52.3983574  83.1399727   2.7350625  51.4161491  83.9377117
  42.5092674  97.9301654  62.5339079  42.8318764  98.8220846  62.4049330
  41.5706707  98.0351340  62.6896191   4.7352585   6.8774456  63.9587259
   5.1741332   7.6840711  63.6885834   5.2744269   6.1769152  63.5915899
  13.9691257  42.6585770  62.1455574  13.0277383  42.6002026  62.3086929
  14.3484581  41.9604540  62.6793718  29.0593910  57.6628828  89.2730904
  29.9374032  57.2826529  89.2456436  28.5014415  57.0076895  88.8539886
  11.3081145  22.1397305  64.7035265  10.4246449  22.2519803  64.3526506
  11.7798579  21.6669226  64.0178585  56.2149906  17.7945566  68.2288361
  57.0591211  18.2227695  68.3713531  56.3015413  17.3731244  67.3737717
  88.7838171   5.5092040  11.3905103  88.5338352   5.8611432  10.5361898
  89.5086405   6.0654489  11.6759260 107.2488832  16.0074377  52.7038240
 106.4066304  16.4291954  52.5336361 107.0322746  15.0844109  52.8354836
   9.4964039  43.1431913  52.3400068   8.7928951  42.9106712  52.9460096
  10.1318514  43.6133766  52.8797865  38.6327934  32.7178621  40.0127649
  39.5703197  32.7127171  39.8197603  38.5772324  32.4758172  40.9371853
  15.2962124  33.7322593  21.9555378  16.1756110  33.5171509  22.2663689
  14.9171960  34.2620397  22.6569033  95.5465854  21.4279294  84.5542717
  95.6575895  22.2165680  84.0232754  95.9701694  21.6379809  85.3865433
  76.2769092  36.6233134  59.3917799  76.6719593  36.3042188  60.2031660
  76.9459189  36.4722300  58.7240744  68.6482239  35.0628519  79.1321135
  69.4488716  35.5866075  79.1024065  68.9515543  34.1575623  79.0637350
  24.9617910  57.8208733  52.6354122  25.3689528  57.8302240  51.7691755
  24.4832039  58.6484146  52.6840544  19.6363699  27.4840212  47.0204353
  20.0856161  27.9231763  47.7426243  20.0770903  27.8049517  46.2336731
  13.3275676  50.8720541  79.3327713  12.8880787  50.6976795  80.1650429
  14.2068231  51.1572599  79.5813608   5.0554854  55.7724333  32.6288319
   4.2553926  55.2472830  32.6462793   5.7643771  55.1293325  32.6401544
  25.0502777  33.0731773  72.9992104  25.7230711  33.7409258  73.1322336
  25.1880431  32.7697968  72.1018744  16.4593171  69.5891669   9.9378545
  16.2393140  69.9078205  10.8132322  17.2369455  70.0889876   9.6894415
   5.6295979  56.8820667  77.1335173   5.2892053  57.7553177  77.3279381
   6.5636921  57.0188379  76.9754219  61.8665266  29.0968919  61.2839603
  61.3436222  28.3263397  61.0624743  62.7604723  28.7644577  61.3651085
  38.4268880  86.7751312  38.6426401  39.3832731  86.8140316  38.6492610
  38.2220340  86.0093975  38.1060672  98.9629937  45.4149532  79.0190506
  99.8877753  45.6282282  79.1436529  98.6685110  45.1145744  79.8788691
  70.6848978  75.1065472   8.7035425  69.8982571  74.6903661   9.0559919
  70.8144878  75.8787468   9.2541368  85.3807081  40.8117723  57.2731590
  85.3774942  41.0762501  56.3532257  86.3072766  40.7874298  57.5121403
  31.1358714   8.6348671  62.9701519  31.8598890   9.2016631  62.7041245
  30.3607321   9.0361083  62.5772142  45.1302958  33.6927986  64.3003607
  45.6613922  33.1283617  64.8621225  44.2556143  33.3051062  64.3296480
  53.9436566  75.0330141   4.4446714  53.5437964  75.0686553   3.5757215
  53.2185696  75.1930025   5.0487287 104.7329236  74.1878128  69.2402124
 103.7973471  74.3390131  69.1058016 104.9757765  74.7953415  69.9389029
   5.2206684  92.7761423  85.9353065   5.6776501  93.5653775  86.2260056
   5.9194924  92.1470880  85.7559490  22.3091698  74.6408749  72.7454901
  21.5244269  74.7671366  72.2121334  22.0257640  74.8364305  73.6386108
  43.2843971  74.4762278  48.5470343  43.8661242  75.1116610  48.9642286
  42.7349758  75.0007963  47.9646301  81.8424606  19.4684887  77.8161907
  82.4794769  19.1625488  77.1705627  80.9914017  19.2919946  77.4152136
  13.4626496  37.7350354  66.9752884  12.6268160  37.2843122  67.0955563
  13.6456585  37.6545334  66.0392046  19.1138113  52.1228600  77.4050617
  19.2074943  51.4010525  76.7834139  19.9417329  52.1343231  77.8853178
  25.9771299  25.7365489  39.5772243  26.3756871  26.5993357  39.4632959
  26.3572335  25.2030778  38.8792562  14.4309223  68.4138060  37.6533222
  13.9999163  67.7420998  37.1248555  14.9286616  68.9327908  37.0215440
  44.4407129  16.0636115  38.8564539  44.4395971  16.9997716  39.0560389
  43.5196257  15.8491218  38.7087083 102.4279942  78.9273035  58.1612730
 103.0944314  79.5430504  58.4661531 101.5962329  79.3404924  58.3929586
  54.2515230  27.0866895  71.6954994  54.9083710  27.3705459  71.0597229
  54.7136497  27.0871735  72.5337553  42.4889003  69.3341794  14.8081644
  41.7076932  69.8860398  14.8455484  43.1183921  69.8443690  14.2985780
  61.2743305  62.8841403  17.4875600  61.0027598  62.0268896  17.8155954
  60.8953356  62.9358819  16.6101129  25.4863977  28.2550192  19.4119930
  26.2284493  27.6539278  19.4774127  25.2541304  28.4485340  20.3201985
  17.4250829   9.4012046  74.1409826  17.5426698  10.2640438  73.7435961
  17.1225178   9.5862031  75.0300598  38.1614661  34.8647285  37.7033305
  38.9328361  34.9141550  38.2679343  37.7648091  35.7338190  37.7631092
  53.3212662  29.7363234  71.6766787  53.5686493  28.8485074  71.4181948
  54.0556765  30.0446296  72.2075510  51.1564016  42.9174519  67.6016760
  51.9607401  43.4357643  67.5767708  51.2682104  42.3378277  68.3551788
  51.1164761  48.5635042  76.9958830  51.2057400  49.4779205  76.7273569
  51.7475653  48.4603357  77.7081394  32.2100186  27.7805972  73.5360098
  31.8461585  27.9772115  74.3992472  32.8209639  27.0604205  73.6919689
  84.3693041  94.2928770   4.4084604  84.3692755  93.3536413   4.5930345
  84.9937176  94.3958261   3.6903055  19.3208933  26.7726946  56.0905027
  19.3574703  27.6138568  56.5458441  18.7244654  26.2408447  56.6174173
  35.3379905  40.6411555  20.6170805  34.8060333  40.5446031  19.8271902
  36.2364343  40.7091239  20.2939565  14.1854441  47.2624636  60.0370169
  14.0812886  46.3172054  59.9280643  14.1327453  47.4018288  60.9825468
  32.0557036  59.8140183   5.9468897  31.6967474  60.7013598   5.9494932
  31.3374053  59.2660048   5.6307180  50.0131607  21.6951275  40.1255178
  49.3913698  21.9779611  40.7960463  50.8666658  21.7388654  40.5566216
   5.5239409  15.1791227  67.8382730   6.1691552  14.4863498  67.9796839
   4.8294756  14.7595930  67.3303890  30.0523734  60.4471970  68.7206316
  29.8684645  59.7238493  68.1213188  30.8143759  60.1556587  69.2212200
  43.2442908  91.2284234   6.9940336  44.0625607  91.6696813   7.2219713
  43.4321605  90.7888630   6.1647470 106.0616031  97.6456152  72.4902678
 105.5197062  97.5498497  73.2734728 106.4218392  96.7716246  72.3399258
  37.3262048  20.6885290  57.3417187  38.2013917  20.7142067  56.9549084
  36.9299865  21.5237379  57.0933867  68.5938072  23.4092855  70.4651546
  68.1532907  24.2382169  70.2779484  69.2485476  23.6302495  71.1275148
  20.9402680  42.1680593  67.2129297  20.5569911  41.8392038  66.3998032
  20.1887512  42.3334217  67.7822399  30.7214475  43.2248402  56.6133451
  30.7706857  42.7338648  57.4335623  29.8592567  43.0103302  56.2571907
  23.7446547  66.9532394  83.3762932  23.8898611  66.3951540  82.6122952
  22.9462361  66.6086674  83.7763214  47.5454140  60.8927250  64.2280531
  47.6372576  59.9399996  64.2387581  46.7493105  61.0622787  64.7317457
  28.4836531  20.9470677  58.0465460  27.7209926  20.9432054  58.6249685
  28.1260991  21.1408663  57.1800423  54.5566033  57.3135540  10.4797132
  54.7392582  58.2239494  10.2472360  54.4166266  57.3315778  11.4264543
  16.9530106  45.8027887  59.3984318  16.7517066  46.1877680  60.2513647
  17.7673244  45.3199339  59.5397711  33.1419587  42.1092081  54.9333525
  32.9112148  43.0244398  55.0925207  33.9640427  41.9835520  55.4073000
   8.7328982  30.5002618  48.0422068   9.6153748  30.8471489  47.9112959
   8.4630138  30.8468747  48.8926506  53.1982528  53.3723515  11.4702566
  52.6042210  53.1343125  10.7584245  53.9448487  52.7823703  11.3665731
  54.3379784  20.7128763  61.7908335  54.9617910  20.0071216  61.9611454
  54.1602945  20.6541371  60.8521080  97.8188504  37.5570464  75.8470821
  96.9384469  37.9039884  75.7030153  98.2880856  38.2681584  76.2833977
  19.1817868  75.1983833  31.7520142  20.1363635  75.1742649  31.8185878
  18.8889182  74.4198179  32.2256136  10.3213465  44.9382257  50.4253006
   9.8709178  44.4600725  51.1215162  10.7630837  45.6578922  50.8760595
  19.2768371  40.9424973  82.9042149  19.9172652  40.4223537  82.4188995
  18.4981298  40.9438467  82.3475742  50.4998112  37.5584388  78.7117100
  50.8799696  37.9060459  79.5184803  50.5884981  36.6089869  78.7948275
   4.5164606  49.6233368  46.0428143   4.7622049  49.6212626  46.9679308
   3.5704440  49.4774771  46.0459661  10.5556607  50.6043720  46.7795753
   9.9141359  49.8982430  46.8574286  11.3945687  50.1553869  46.6752768
  65.9521722  86.2031725   9.2368276  65.4192661  85.8877376   9.9667223
  65.3162669  86.4532450   8.5665186   3.3314110  91.7050170  74.8281956
   3.3661224  92.2719454  74.0577269   3.7198855  90.8802878  74.5364046
  28.4536338  60.3108168  60.4940176  27.8260756  59.6516705  60.7905388
  28.1107616  60.6055307  59.6503258  48.2939959  43.6210918  81.8681145
  48.9682627  44.3004751  81.8621540  47.4696493  44.1023970  81.9390392
  63.2719088  23.8870907  55.0150919  63.9966822  23.8389897  55.6384897
  63.6924028  24.0522218  54.1711998  26.8403506  35.5969024  67.3416471
  27.3626208  35.9960985  66.6458654  26.0947561  36.1872745  67.4502039
  18.9086306  14.4960427  88.7049294  19.7274745  14.9604440  88.5315514
  18.5823429  14.2541146  87.8381824  20.6273746  31.3984132  70.4315424
  20.1392055  31.8918109  71.0906935  20.8424187  30.5710912  70.8622694
 108.0230058  70.1060963  76.7178392 108.6447638  70.8338642  76.7150831
 107.8280027  69.9541759  75.7931089  28.8547611  82.4319553  61.1520004
  28.8089108  83.3275986  60.8173943  28.2780528  82.4318695  61.9159603
  50.2527952  22.8561068  82.4532127  50.3469563  22.0083904  82.0187664
  50.8949804  22.8342867  83.1626797  34.5044422  25.8774376  44.8290300
  35.3255796  26.2959981  44.5706320  34.5158482  25.8980799  45.7859421
  49.0212727  51.2831020  74.3600750  48.5099363  51.1244392  75.1535416
  48.8587618  50.5148029  73.8127756  26.7428470  18.3132112  78.6878633
  25.9279108  18.1044686  78.2312012  26.6772461  17.8458178  79.5206165
  46.7701864  49.8215628  80.3725433  46.4052773  50.1944208  81.1750698
  46.2581778  49.0266895  80.2233601  24.0905237  43.4641075  78.1811666
  24.5205379  42.6715374  77.8600025  23.3078289  43.1463099  78.6313057
   5.6209052  51.7127037  42.0640182   5.1798564  50.9113646  41.7819452
   6.4111221  51.7534733  41.5253830  46.8647766  37.6717281  72.1726036
  46.7087460  36.9350863  72.7635717  46.1057806  38.2419562  72.2950554
   7.4472600  69.4431925  45.9221935   7.5505239  69.9525976  46.7259836
   7.5369704  70.0856256  45.2183008   8.8522643  19.5421922  68.9090204
   9.0127265  18.5987699  68.9299297   9.6882653  19.9330258  69.1631508
  40.3773737  58.9137030  83.9826775  40.0714016  58.1015491  84.3864346
  41.1529112  58.6560488  83.4842968  56.4986944  81.0630417  77.9327154
  57.0016766  80.3946972  77.4673700  55.8299446  81.3391495  77.3059940
  34.2794013  40.8819294  77.1027088  34.6056962  41.1059093  76.2311602
  34.3446088  39.9278903  77.1449947  67.2293997  12.3038733  64.5059204
  67.8733826  13.0068243  64.5918131  67.7409887  11.4990306  64.5879936
  78.9109460  11.5666143  10.8258493  78.5697845  10.9116975  11.4348848
  78.4839425  11.3648502   9.9932726  95.9163711   9.7188751   3.3751733
  96.0833547   9.4462100   2.4729498  95.7318304  10.6559841   3.3119161
  38.0557537  23.3520007  52.0956802  38.5288692  23.4536552  51.2698126
  38.7189722  23.0493045  52.7159595  18.6164618  38.7027931  80.3452206
  17.9549170  38.2707024  80.8854866  18.1336510  39.0164518  79.5805359
  50.6560659   6.2285441  74.8218822  51.5514183   6.3108903  74.4935608
  50.7584858   6.0768539  75.7614183  28.8613963  39.1147256  55.7024336
  29.7854161  39.3485165  55.6143332  28.4029007  39.9546719  55.7248402
 108.1926653   2.7588312   5.5355127 108.2499812   3.1722680   6.3969095
 108.8670919   3.1952611   5.0150163  95.7941879  43.2836246  74.4472885
  96.5488292  43.5233831  73.9094543  95.1779212  42.8865385  73.8318443
  22.4239659  36.0610914  52.4114847  23.3610439  36.0527968  52.2164249
  22.2890043  36.8706727  52.9040241  23.0766773  40.1660728  66.6912508
  22.5683165  40.0113344  67.4874020  22.4435067  40.5228901  66.0683489
  40.4081059  49.4646215  87.5804043  39.5351243  49.3761110  87.1979141
  40.6224489  48.5859823  87.8939056  97.3525491 100.4582833  59.1275978
  97.5941791  99.8555585  59.8308563  98.1872096 100.8032810  58.8105011
  37.8359294  46.0701513  51.4989901  38.2542968  45.2140999  51.4074707
  37.1165586  45.9208012  52.1125269  50.5655193  46.1226463  69.8277664
  49.8347235  46.0118771  69.2195702  51.1332560  45.3705883  69.6595001
  38.8883495  56.7168856  73.5207176  39.6485138  56.6585636  72.9419422
  38.5450196  57.5987673  73.3770323  44.8879147  54.3386841  74.0313292
  45.1257277  53.6055803  74.5989895  45.0665998  55.1174784  74.5583773
  29.2233396  59.0036297  48.4881020  29.9392819  58.7113047  49.0521955
  29.5754004  59.7671032  48.0305004  71.5215826  27.4539375  86.2844467
  71.4891529  27.9082894  85.4425812  70.6034994  27.3309135  86.5257359
   8.3153600  52.1104574  43.2448244   7.8990322  51.3378429  43.6268854
   8.7962472  52.5072336  43.9711475  25.4330492  45.5339766  74.3500853
  25.8099055  44.7547674  73.9413834  24.6922493  45.7640696  73.7892771
  38.1156135  56.1989450  79.2778778  38.1044126  55.6619167  78.4855986
  38.0190969  55.5712700  79.9940729   4.7276244  68.4856558  67.1077967
   5.3649533  69.0535355  66.6747141   3.9547414  68.5194635  66.5441084
  44.8559237  36.0526609  69.6840143  45.1539993  36.6948795  70.3281736
  43.9258194  36.2456250  69.5661116  60.9815979  77.6135778  73.3936024
  61.6562891  77.1723700  72.8775072  61.3065052  78.5078669  73.4980536
  47.2188330  50.5478859  76.2383604  47.3863935  49.7354126  76.7158937
  47.1458960  51.2157536  76.9201708  24.3640375  34.3855596  49.0590954
  24.5445609  34.5550394  48.1344748  23.4796023  34.0195823  49.0672874
  32.9931593  67.8945589  74.1227102  32.8724909  67.9544353  75.0703859
  32.8780174  68.7916851  73.8094473  28.8583755  73.6827612  64.2582369
  27.9099464  73.6261272  64.1420317  29.0641761  72.9919958  64.8880959
  48.4304523  24.8334312  48.7937403  47.8508663  24.9465132  48.0403948
  48.9602518  24.0667105  48.5753727  44.9810505  22.9796219  77.2891712
  44.4157457  23.7517214  77.3120546  44.8552990  22.6165986  76.4124537
  89.9984417   9.2303316  12.2375829  90.1443408   8.3011810  12.4154337
  89.2697678   9.4720785  12.8092725  10.7337153  38.9105630  73.9388704
  10.8419704  39.1545320  73.0196381   9.8005575  38.7163711  74.0268421
  69.3485737  24.0235639  83.7355042  70.1565456  24.2208004  83.2616806
  69.6111202  23.9960337  84.6555805  54.4260311  22.4543452  73.8297749
  53.4720945  22.4668670  73.9077568  54.6071911  21.7383122  73.2209158
 100.7076993  95.0830882  56.5113068 100.3297248  95.5350458  55.7569170
 100.5491342  94.1550361  56.3386536  10.7722747  68.6974430  52.1066999
  11.4767218  68.3409548  51.5654945   9.9805021  68.2683229  51.7823744
  95.4065536  52.5463237   8.2773550  95.0668644  53.4379646   8.2010706
  95.1358675  52.2607298   9.1499288  43.2003527  58.9660957   3.0454309
  43.7415283  59.0820035   3.8264139  42.3434054  58.7069782   3.3841474
  32.8566289  52.4558067  80.2301216  32.1939898  52.2279167  79.5780420
  32.3834205  52.9731655  80.8817673  43.6165428  51.3748693  63.7588358
  42.7667379  51.3678169  63.3183670  43.4043598  51.4721584  64.6871376
  46.1051607  28.2616162  79.1811275  45.2636242  28.5765386  79.5110941
  46.6129160  29.0572691  79.0219069  39.9462128  22.0073390  53.6568451
  39.8644948  21.6026926  54.5204496  40.6151581  22.6824069  53.7709808
 101.5303059  71.5400839  68.7725019 101.4616103  72.4114943  69.1625786
 100.7409311  71.4540386  68.2379770  19.7200727  76.3653803  71.6679668
  18.8734925  75.9189606  71.6835260  19.8743594  76.5540886  70.7423210
  22.5785828  41.6646338  56.4390850  22.7694392  40.7795334  56.7495775
  21.6733217  41.6204548  56.1312151  56.6176939  50.3923273  66.0054445
  56.9131613  51.1244965  65.4642820  56.7924738  50.6726837  66.9038248
 109.0076586  25.0376701  72.1161556 108.8198571  25.2550411  71.2030792
 109.1897088  24.0979958  72.1060944  77.7899860  76.9023040   8.2473619
  77.7183317  77.8531840   8.3305700  78.2021831  76.7669228   7.3941381
  25.9787440  45.1614285  47.3503304  26.2730646  44.2658520  47.5163221
  25.3032684  45.0708532  46.6781950  27.2955441  51.2742424  87.1217537
  26.7568541  51.6865301  87.7970791  27.6324463  50.4798126  87.5360107
  31.7541122  40.6102562  63.5358620  31.9437957  41.1978531  64.2672873
  31.4855909  39.7904515  63.9506483  27.2302866  30.4690766  66.7085552
  27.6725698  30.1565695  65.9192753  27.3057342  29.7436881  67.3285151
  57.2632408  52.9625607  64.8694086  57.5965118  53.6814785  65.4063606
  56.3803053  53.2375193  64.6223116  22.6773858  36.8637204  75.7162476
  22.7923894  36.4466763  74.8623848  22.8062868  36.1560392  76.3477516
  43.0637503  28.3281398  72.3823357  43.3614159  27.6644564  71.7601252
  43.0980301  27.8911757  73.2332897  93.9026273  34.7437859  46.5982914
  94.0606440  35.0078058  45.6918955  93.0904890  35.1893377  46.8394279
  36.5565562  14.8606431  75.1215649  35.9615850  15.3155386  74.5254850
  37.3674059  15.3679335  75.0839758   7.8099132  51.5709019  48.0703306
   8.6564595  51.9188261  48.3505774   7.2067446  51.8137312  48.7727928
  50.5532360  29.3556786  69.7679472  50.5546665  30.0266695  70.4505873
  49.9676895  28.6758971  70.1015091  31.8871284  58.3638382  67.0523739
  31.5712714  58.9212036  66.3411665  32.1225739  57.5404167  66.6248560
  28.9047599  41.5315914  83.6676884  28.7966275  40.6007576  83.4725380
  28.3825374  41.9782495  83.0013466  53.1943846  43.6402369  53.5285854
  53.8519049  44.2123461  53.9242935  53.7005234  43.0240297  52.9991102
   7.2354826  16.3520471  39.3504865   7.2509893  17.3030130  39.2425401
   8.0250629  16.1553041  39.8545511  43.8020468  68.7158155  55.0046444
  43.5629702  69.6419668  55.0410700  44.5896435  68.6503458  55.5446815
  12.2349477  45.7794809  79.1028690  13.1857479  45.8018589  79.2110777
  12.0629668  46.3737440  78.3724499  69.9511447  96.5747445  59.5899725
  70.8152255  96.2070953  59.7755241  70.0404676  97.5073337  59.7862673
  29.1359472  17.9672849  85.2065945  30.0010204  17.6767707  84.9176693
  29.3144751  18.6917818  85.8061409  26.4602543 100.0673111  40.4693985
  25.5613924 100.1558595  40.1524782  26.5578438  99.1333740  40.6550598
  32.3654985  44.6299362  71.3967466  31.9370461  45.4784775  71.5091658
  31.8326283  44.1773081  70.7429790  37.2225308  54.6764231  72.1337175
  36.3349319  55.0263500  72.2108507  37.7485418  55.2278137  72.7129507
  23.2458878  94.3519592  81.8877125  23.2737803  95.0147533  82.5777531
  24.1652632  94.1661930  81.6967297  34.2413330  38.2170010  77.6695681
  33.3445144  37.8828359  77.6528978  34.7896671  37.4337673  77.6236820
  50.7029009  50.5253983  63.5771322  50.7712412  51.3853025  63.9920139
  50.4006338  50.7116890  62.6882219 103.5075066   9.0787927   6.9870527
 103.6325357   8.6698333   7.8434045 104.3489001   9.4923250   6.7939718
  16.0990226  34.0582466  86.6180706  16.2803781  34.8851800  86.1713886
  15.8999753  33.4432983  85.9120560  10.8790302  48.1255865  37.0751953
  11.1635625  47.5458717  37.7817369  11.5857971  48.7656403  36.9912529
  63.2143091  94.9049976   1.3966520  63.0289434  95.1697281   2.2976549
  64.0356301  95.3469255   1.1813314  73.3224486 101.9394043  22.9184301
  73.1736373 101.2069157  23.5163839  74.2383717 102.1800402  23.0577428
   2.5594196  73.8882494  40.0035334   3.4625041  73.6255169  40.1814175
   2.3106235  73.3820486  39.2301679  40.4681921  79.6713829  67.0362568
  41.1896133  79.7128582  66.4085102  40.0889397  80.5501556  67.0236778
  19.2951787  32.2643614  47.8375340  18.8584363  31.6467237  48.4240627
  18.6090112  32.8830171  47.5871897  52.1354628  37.0810056  72.3780251
  51.3397551  36.9891548  71.8539572  52.0784712  36.3780689  73.0252218
   0.5868766  48.3024693  80.7002354   0.8193061  47.3888826  80.8662510
   1.4231068  48.7345552  80.5262947  55.6090355  28.9040065  70.0007343
  56.1794186  29.5725870  69.6214008  55.2690887  28.4230185  69.2462015
   0.3620721 101.2129231  75.1098776   0.2050902 100.4874643  75.7142735
   0.4740120 101.9764948  75.6761456  36.4056730  28.4031963  54.4877195
  37.1899104  28.7828135  54.8840714  36.6992426  28.0835748  53.6345530
  37.0050859  46.3780117  67.4579287  36.4744163  45.6487894  67.7786446
  37.1401262  46.9322062  68.2266045  65.1748918  76.4904263   3.4280069
  65.0000905  76.7897752   4.3202264  66.1289691  76.5067103   3.3525045
  42.5805187  12.5744140  74.2631149  41.8587542  11.9862199  74.4851875
  42.2494602  13.0937767  73.5303831 105.2832696   1.3546888   1.3926370
 105.6211898   1.4369289   2.2844179 104.5886037   0.6995241   1.4592035
  33.8659358  37.2353840  63.1121206  33.0364847  36.7746377  63.2384443
  33.8931012  37.4270463  62.1747017  61.3778353  40.2912617  78.7476301
  61.8152428  40.0487328  77.9314899  61.1447001  41.2121487  78.6299276
  19.4204938  48.0567694  54.6957445  20.1421165  47.4502754  54.5294380
  19.4689870  48.6890745  53.9787579  31.4698005  49.2324638  76.2981606
  30.9603167  49.7453737  75.6708050  32.2300673  48.9317799  75.8003521
  12.6973581  30.3901601  53.1912422  12.0510793  30.0523472  52.5712109
  13.5320687  30.3228998  52.7275944  22.7051020  44.7419214  76.3568068
  22.8208184  44.1290140  75.6307316  23.0763507  44.2890739  77.1139956
  95.8332958  98.2283094  72.0039511  95.4613652  98.1964867  71.1225414
  96.7061129  97.8468578  71.9095278  86.4789126  18.4341709  23.7837942
  86.3599536  19.3433801  24.0584142  87.4256370  18.3367721  23.6815221
  51.2038946  54.0722370  67.3616600  50.6792641  53.6283064  68.0279303
  51.1954355  54.9926901  67.6241970  38.3473468  40.1111555  65.4499197
  38.5313559  40.3723145  66.3522291  37.4323773  40.3559494  65.3115749
  22.1198344  37.7442694  45.9702110  22.8426361  37.6665139  45.3475189
  22.4768400  37.4128199  46.7941761  29.6040606  43.6069298  76.5828133
  29.3513846  43.1501389  77.3851442  30.2253461  43.0165243  76.1565971
  71.7831649  45.5716801  75.7275677  71.1001981  45.0423098  76.1393452
  71.7087806  45.3744411  74.7938681  56.0574542  92.5424841  30.8556898
  56.7170213  92.8326824  31.4857538  55.3082012  92.2870090  31.3938196
  36.6447830  35.9247947  44.9347878  36.5157008  35.6151867  45.8312893
  35.7978630  35.7885361  44.5100641  66.4664315  96.7085054  17.4063833
  66.0131382  95.9988573  17.8615339  67.1329950  97.0036581  18.0267103
  23.0647969  50.1787853  79.9412107  23.9608717  49.8424911  79.9549389
  22.7264714  49.9239779  79.0828180  35.3159475  51.4798784  72.4240828
  35.8263969  50.8472347  72.9294968  35.9503245  51.8778324  71.8279028
  35.7918453  64.1614294  19.0358436  35.6317782  64.3488407  19.9607694
  36.1104846  63.2588768  19.0259933  46.2028503  56.2002802  75.4481792
  46.0514832  56.2831593  76.3896942  46.7577791  55.4251146  75.3621340
  50.2994871   1.6326837  68.9299059  51.1212063   1.2863240  69.2778111
  49.7836733   0.8554054  68.7154102   0.5067357  12.0127193   7.5872858
   0.5877861  11.1204568   7.2503526   0.8129915  11.9557039   8.4923799
  52.7378464  79.5001221  64.1958046  52.8472137  80.2756691  63.6455345
  52.0371485  79.7349691  64.8041677  33.9644241  23.2727599  23.2086396
  33.1944537  23.1362343  23.7606716  33.7011242  23.9593863  22.5959015
  29.3324494  39.1332746  76.5723085  29.9696493  39.1752934  75.8592606
  28.5023880  39.3839169  76.1668348  92.9190468  33.9209643  34.9519785
  93.6900209  34.4734064  35.0809629  92.9582380  33.2845762  35.6659086
  27.1233773  49.6476603  48.2222700  27.4393988  49.0067339  47.5854206
  26.2227726  49.8286390  47.9532194  76.0451034  29.4333259  10.8734663
  76.8664930  29.8643390  10.6373079  75.3883801  30.1282398  10.8284147
  18.5178661  49.2771626  68.9565706  18.5847437  49.8173904  68.1692266
  18.5092568  49.9057961  69.6783590  35.8285069  79.7076416  81.7967606
  35.6406069  78.7967443  82.0230007  35.0438261  80.0071526  81.3376236
  37.7486801  54.3365479  77.2029591  38.3896208  54.7681284  76.6380167
  38.1617856  53.5074234  77.4440527  33.1937528  35.4930949  69.2126608
  33.6200690  35.8548093  68.4357119  32.4452209  35.0049019  68.8697290
  49.9972677  45.0443077  62.0610237  50.8682346  45.3597021  61.8198204
  49.8102999  45.4725981  62.8963947  95.4025004  20.0571529   9.2738207
  96.2552354  20.3672639   9.5786245  95.2319500  19.2733995   9.7961958
  31.1883116  46.0339880  76.4840984  30.5265164  45.3444338  76.5367794
  30.9697938  46.6308594  77.1998024  29.1455889  31.3603067  86.5840149
  29.1723657  31.7182064  85.6966400  30.0560760  31.3819861  86.8785858
  41.3278055  31.6747046  57.4044895  41.5374899  30.7640862  57.1970272
  41.8062782  31.8521428  58.2143116   7.5885559  99.5002170  51.9952726
   7.4295737  98.5780623  51.7938089   7.0875622  99.6604889  52.7949905
  12.7991760  42.4635315  38.5244608  13.3455992  42.9048252  39.1747785
  13.3894086  41.8427944  38.0972099  64.2112160  11.2714601  62.2305250
  64.7589350  11.8310845  61.6800213  64.6812248  10.4384315  62.2677803
  77.6275802   4.7857753   8.8784654  78.4003840   4.6281711   8.3360918
  77.7055419   5.7014648   9.1461618  58.5135673  94.7038439   3.7135561
  58.0161666  93.9051845   3.5375936  59.3907427  94.5184830   3.3782442
  79.5294428  23.7014675  68.8954926  80.3549290  23.7154055  68.4111309
  78.8880968  24.0672493  68.2863045  14.2146242  40.0146341  60.0611687
  14.5994794  40.8184814  60.4103756  14.1754472  40.1589060  59.1157150
  46.9874907  38.2094693  53.0357933  46.5369749  38.9046574  52.5562286
  47.8491163  38.1530929  52.6226950  33.8219380  41.8181658  50.5299234
  34.1456509  40.9190702  50.5853844  33.2099175  41.8074131  49.7940254
  44.2773342  66.5263796  65.2610207  43.3787823  66.5983009  65.5829811
  44.4624853  65.5873680  65.2754307  43.4864585 102.1797493   5.5331380
  43.1569837 101.3386896   5.2164514  43.0284529 102.8315666   5.0024851
  69.6572160   1.1967863  86.2160206  68.8031982   1.2418951  86.6459656
  70.1561545   0.5697931  86.7396355  46.7816353  42.0115137  68.2001591
  46.3194418  42.6567936  67.6651621  46.6737366  41.1865377  67.7268696
  12.8740776  85.1616287  78.1445742  12.1381795  85.7696915  78.2148933
  13.4642053  85.4167747  78.8537121  29.5198846  45.6191826  54.8012829
  29.6176410  44.7144175  55.0980473  29.4105268  46.1249018  55.6065893
  45.1261759  30.7092881  62.1813440  44.6293402  30.7239127  62.9993725
  45.1635981  31.6256976  61.9074297  14.6465858  29.1635600   6.8938978
  14.3276390  28.3680526   6.4676626  15.3800234  28.8685314   7.4335821
  16.6165555  59.1321468  52.8486967  15.9929657  58.5179043  52.4613047
  17.1604931  59.4164371  52.1141624  66.0474943 102.6683643   1.3253648
  65.3642129 102.0054987   1.2255438  65.5826091 103.4474924   1.6304453
  32.7607417  23.9567709  47.7871323  32.5649452  23.2178760  48.3632612
  32.4576187  23.6745119  46.9241810   7.0932227  52.4376440  38.8250208
   7.5421280  52.5877237  39.6570015   7.3658204  51.5589237  38.5608864
  49.6867609  43.5183382  79.1109848  49.5121098  42.9317856  79.8469782
  49.3740416  43.0393267  78.3435297  43.0323696  13.1342161  87.0777512
  43.7648106  13.1486738  86.4616680  42.3053455  13.5271382  86.5947533
  58.3880091  99.4873714  48.5936117  59.1471577  99.1655922  49.0798044
  57.6397419  99.2805958  49.1535854  42.5236368  40.5862331  78.3123112
  41.8191814  41.0835028  78.7278843  43.2914686  40.7571459  78.8577032
  30.5815911  59.8287249  65.0321627  30.4191041  59.7584867  64.0914774
  30.5462146  60.7682419  65.2118444  48.3743572  53.5194016  62.7196503
  47.5406504  53.0498266  62.7454472  48.2334280  54.2230511  62.0862055
  12.8984261  68.3991337  57.1194839  13.3890653  68.7910891  56.3970709
  12.7894616  67.4826717  56.8655872  34.6808863  77.7434778  45.0594187
  34.5406365  77.7151155  46.0058641  35.5783129  78.0611467  44.9596930
  29.1532135  55.9628105  55.1250601  28.2587361  56.1811686  54.8634100
  29.1780210  55.0059605  55.1179218  75.2758646  77.1508121  44.0171051
  75.2063274  77.1246767  43.0627918  74.7509718  76.4082336  44.3159294
  23.4171152  52.5619745  65.8876133  22.8171158  52.6148891  65.1436806
  24.1551566  53.1190157  65.6401587  25.3092861  71.5872765  62.8915596
  25.6288171  71.2182808  63.7149477  26.1020279  71.7677927  62.3863792
  85.2076076  -0.0606905  63.6738205  84.9885582   0.2631486  64.5475340
  84.4149183   0.0869096  63.1579828  33.3532977  68.9321089  60.3139162
  33.6452627  69.4877195  61.0366106  32.4362707  69.1727829  60.1821280
  53.1276941  71.5301561  55.2793932  54.0579462  71.6502333  55.4703045
  52.8329611  70.8839512  55.9210920  24.1286159  50.0927258  52.8038692
  23.7956452  49.7281170  51.9838572  23.9556003  51.0317230  52.7361917
  17.7710032  52.4393129  70.9763575  17.6012897  53.1080198  71.6398764
  18.5256076  51.9552279  71.3117170  49.7728920  78.8243246  28.3771229
  49.8591042  79.5199013  29.0290213  50.0112534  79.2412090  27.5490999
  99.2765592   8.2011903  53.8604736  98.7964081   7.3910249  54.0317059
 100.0530981   7.9214872  53.3757162  66.6198635  91.5714359  64.5790195
  65.7841063  91.4085674  65.0163031  67.1290398  92.0738697  65.2150440
  42.7206802  64.6949339  45.1753473  42.7598906  63.9852190  45.8164406
  43.6270666  64.8103571  44.8900890  23.2336712  49.9798012  57.7506781
  23.8639140  50.6215143  57.4232292  23.7715626  49.3084526  58.1704426
  42.5998020  66.7093277  61.6682863  43.3829165  66.2573481  61.9824076
  41.8709421  66.1991739  62.0214653  34.6789122  63.8017368  61.1741877
  34.0272832  63.1193399  61.3352776  34.1976309  64.6223164  61.2802553
  35.4279947  60.3461552  42.9989243  35.5637527  60.4129982  43.9440870
  36.0754633  60.9414625  42.6212645  30.4869112  53.9541999   0.9384687
  30.2232870  53.2722465   1.5562685  29.9117168  54.6929828   1.1374242
  49.9672508  71.6187954  73.7175751  49.4985962  71.2327290  72.9776144
  50.1074791  70.8881283  74.3198109  39.0877819  81.7735958  45.7083893
  38.3058429  82.0712471  45.2434111  39.4046259  82.5518513  46.1668205
  36.4273334  67.6766396  53.9118767  37.2165942  67.1355152  53.9338589
  35.8084774  67.1760750  53.3801937  21.9913721  58.5936832  37.1957350
  22.3846245  58.1160069  37.9260826  22.7014732  59.1379070  36.8554235
  77.2904110  98.7509060  53.6556911  77.1131277  97.8140163  53.7396574
  77.1544743  98.9380932  52.7268696  48.0432940  72.7698803  55.1254177
  48.8937283  73.1043339  55.4102564  48.1536245  71.8192339  55.1073694
  44.0705824  69.1604376  58.2146454  43.8031054  68.6618853  58.9867401
  43.9347410  68.5591364  57.4823809  35.7934809  49.6440315  57.0978928
  35.1263571  50.2582598  57.4043226  35.4427814  49.2996597  56.2765217
  30.8199310  69.7413158  60.3312254  31.0667658  70.3667116  61.0125399
  30.0060296  69.3501377  60.6486702  61.2331389   7.2190774  66.9347000
  60.7753013   6.4002813  66.7444754  61.1175750   7.3448766  67.8765345
  36.6218162  52.6355410  56.2984180  36.0037374  52.7761364  57.0156670
  37.4835801  52.7508497  56.6987896  36.2447953  35.5699635  62.9743481
  35.5710173  35.9217191  63.5561752  36.0864758  34.6259713  62.9676819
  19.4722545  50.6404638  66.5273142  20.3968716  50.7141304  66.7637205
  19.2238843  51.5234900  66.2538004  35.6734252  61.6153097  59.0187931
  36.2424302  61.1091661  58.4388924  36.1927462  62.3847961  59.2520905
  36.1254668  74.6275949  42.4089909  35.6482482  74.3635988  41.6223526
  36.4135766  75.5217838  42.2255659  61.2496281  80.5584717  57.0153141
  60.3749084  80.4452515  57.3871756  61.1534309  80.3084278  56.0963726
  26.1151584  10.1118652   4.2962129  25.6016334  10.3105251   5.0791986
  27.0225033  10.1021806   4.6009596  95.9476494   5.0668252  52.7702332
  96.0185217   4.8124612  53.6902905  95.2853369   4.4775785  52.4091673
  64.8721647  60.8061266  84.3905735  65.4797554  60.4076672  83.7674332
  64.6674967  61.6611958  84.0121555  14.3255266  55.7568637  14.3909319
  13.4643015  55.4479209  14.1097219  14.4717916  55.3250686  15.2325971
  18.7747129  46.2811557   8.9911516  18.5483679  46.7605010   9.7881658
  19.4224247  45.6362144   9.2753275  81.6864300  72.2320175  46.9082594
  81.8864918  72.9152203  47.5481319  80.9382725  72.5739527  46.4187956
  60.8258581  67.3783970  69.7946739  60.8940649  66.7279482  70.4935980
  61.7318487  67.5495863  69.5375586  42.1544743  66.9781446  66.9503164
  41.4940500  67.3131084  67.5568390  42.6438665  66.3334322  67.4612665
  55.8250523  60.5997419  87.3653221  54.9641705  60.9915209  87.5123787
  55.6576490  59.6577501  87.3359394  31.3954544  98.3647537  26.9656420
  30.6972861  98.8201046  26.4950657  31.6805673  97.6768589  26.3641882
  40.7091379  90.4516315  89.3589878  40.2624989  89.6969414  88.9753437
  40.9267044  91.0071659  88.6104679  63.1949186  87.5964355  56.6107893
  62.2968340  87.3709202  56.8533087  63.3227110  87.1849537  55.7560444
  83.2082272  57.4854708  48.8716555  83.6426544  58.2571650  49.2349672
  83.4540558  57.4855232  47.9465628  87.2081566  65.8462763  88.7804985
  87.9532051  65.2483892  88.7199879  86.7020798  65.5236197  89.5261669
 104.5896719  29.2700950  13.0367811 104.4002697  29.3422691  12.1012838
 105.5440876  29.3174640  13.0922754  94.7562504  71.5594721  54.4918919
  94.4852066  70.7018518  54.1643810  94.6742058  71.4895058  55.4429960
  39.5081329  92.4801826  71.0172462  39.8525143  93.3031464  71.3641834
  40.0008440  92.3359966  70.2093601  44.5501026  31.7038337   1.5432031
  44.0099701  30.9249488   1.6767080  45.2818855  31.3987819   1.0068567
  49.6925545  66.9191790  88.7305260  49.5356750  66.5756178  87.8509808
  48.8804626  66.7420197  89.2052364  29.2873621  37.6098466  69.7847128
  28.3349037  37.5147605  69.7808504  29.4348192  38.5485816  69.6695518
  16.8684375  37.7597690  82.2178173  17.4077678  37.6745653  83.0040073
  15.9944701  37.9676318  82.5482845  56.1955357  83.8956928  62.7471495
  56.6786146  83.6616993  61.9546127  56.8449831  84.3218708  63.3064604
  31.7105198  82.5703526  39.8606324  32.3827481  82.1275806  39.3426633
  31.1505055  82.9967594  39.2119479 102.7611231  10.1892580  81.6899967
 102.7736067   9.3134607  82.0760727 102.8591226  10.7812036  82.4358082
  47.0300007  62.6675320  59.2844534  47.0957804  62.2067785  58.4480286
  47.7003479  62.2622252  59.8345375  27.2595191  75.7106590  44.0168285
  26.8818927  76.4544106  44.4863605  26.9589329  75.8193827  43.1145763
  93.2869505   1.7758192  40.3983402  93.5643648   2.4397958  39.7671461
  92.3374485   1.8822587  40.4562044  53.1875086  76.8116331  83.5492992
  53.7870073  76.9913340  84.2735577  53.6057949  77.2121239  82.7871513
  96.2469982  15.0881113  71.4879608  96.4270900  15.5523504  70.6704760
  96.4951681  15.7071222  72.1746063  66.5188456  77.0047140  36.2751865
  66.4914179  77.0949650  35.3226471  66.2061691  77.8472614  36.6047025
  60.9724426  62.8504324  83.3481789  60.3501892  62.2011948  83.0202770
  61.7416668  62.7494717  82.7875233  13.3915100  21.1208929  80.3266811
  12.9529438  20.9254087  81.1547375  12.7410469  21.6072095  79.8201132
  19.7335923  67.2980547  72.3177481  18.8261211  66.9957829  72.3546696
  19.9683094  67.2387362  71.3916683  70.1041650   6.0316003  55.2556753
  70.4754256   5.2374471  55.6400204  70.7737731   6.3371576  54.6437168
  23.8540777  14.5765773   8.3131559  24.1877731  13.6828128   8.3909853
  24.0896734  14.9932424   9.1420801 100.1132488  99.9968338  63.8212967
  99.5358181 100.6312943  64.2458725  99.5211029  99.4174099  63.3418655
  87.6781845  72.9375505  71.0320616  88.3281803  72.6466560  71.6716862
  88.1314468  72.8879070  70.1904440  67.4054718  67.3757696  51.1689377
  68.1642294  67.7876806  51.5822744  66.8171644  68.1038094  50.9687042
  48.7304577  17.9115955  17.3761614  49.5361313  18.4166662  17.4858244
  48.9171490  17.3177663  16.6490133  62.7918863  78.0434513  70.3576088
  63.0223036  77.5712156  71.1576939  62.3322535  77.3969650  69.8218632
  59.7300323  32.5553123  14.9005277  60.1905903  33.2935897  14.5016916
  60.2200302  31.7844669  14.6143015  76.0007048  73.8241577  46.9412899
  76.5440130  74.5551300  46.6467905  75.8621502  73.9892435  47.8739119
  26.1572051  66.6666889  55.4620123  26.8573141  66.0604477  55.2200413
  26.2251091  66.7434216  56.4137125  27.6582909  85.3835773  47.3054171
  27.6814842  86.1429119  46.7230940  27.0684028  85.6425858  48.0133581
   9.7113460  75.7904434  48.7873554   9.5292395  75.1227236  49.4485807
  10.3213060  75.3683329  48.1823683  82.7521133  81.1233044  88.7246132
  82.8243828  80.7890987  87.8305721  82.9539394  82.0559025  88.6487389
  16.4585909  37.1146480  15.1971300  17.1929964  37.6779071  15.4413183
  16.3302931  36.5458194  15.9562071  29.4413815  39.8376955  65.9876728
  29.1715679  39.7725976  66.9037485  30.2080307  40.4105962  66.0039234
  55.9469652  78.6420298  53.8590956  56.1273527  78.2315922  54.7048092
  56.7003345  79.2117262  53.7038040  45.1744223  83.5615540  62.6032686
  45.8152723  83.3912659  61.9129419  44.9510288  84.4865513  62.4998236
  81.2450002  14.8199762  67.0722198  80.9277366  13.9766324  66.7491913
  80.4619859  15.3685678  67.1187258  47.6469707  87.4800205  44.3560457
  48.3441639  86.8959141  44.6543169  47.0528698  87.5451946  45.1037264
  61.4557266  71.3718557  47.8343821  60.8543062  72.0167303  48.2067633
  62.1120834  71.8945074  47.3736715  38.4310460  55.5375242  57.4114943
  37.8102040  55.6179810  58.1355858  37.9075861  55.7039070  56.6275692
  38.7002134  35.6468964  72.9331207  38.0734658  35.6547379  73.6565542
  38.3257174  35.0360799  72.2983885  43.6409473  68.2383823  50.7304764
  42.9198122  67.6627970  50.4757404  43.5720158  68.3014536  51.6831064
  35.2812004  74.6173954  46.3854265  36.0515094  74.1123915  46.1249876
  35.3546667  75.4362488  45.8952093  81.4879036  76.8824911  86.2424183
  80.7095814  76.3256645  86.2623692  82.1241665  76.4245510  86.7916870
  50.8637619  75.4620123  81.2905407  51.8019104  75.6001186  81.4210701
  50.7864952  74.5332527  81.0721970  82.0388626   3.5796178  62.7795362
  82.9580091   3.8393796  62.8421736  81.6719984   4.1566766  62.1097279
  96.5619110   5.9251035  45.7278824  95.9240841   5.9617437  46.4406681
  96.7550157   6.8419088  45.5319166  51.8313694  76.1290789  48.4381676
  50.9393454  76.1108017  48.0914783  51.7192221  76.1163282  49.3886900
  69.2583227  73.5948324  46.4395857  68.9147091  73.9053011  47.2773027
  69.9619770  74.2080355  46.2272739  69.4665194  81.0838318  86.8155193
  68.5852623  81.4474392  86.7294312  70.0173092  81.6637230  86.2895966
  19.0021479  53.4217453  51.6470146  18.2799816  52.8103209  51.5025473
  18.5757363  54.2407417  51.8992949  94.5026516  10.1845659  74.0009069
  94.7701763  11.0087312  73.5942173  95.0276731   9.5176233  73.5584354
  60.8355665  83.5148907  47.3551273  60.4580116  82.6442528  47.2299480
  61.0346222  83.5574245  48.2904339  45.1614809  93.7983894  69.4677210
  44.6282721  93.2214165  68.9208889  45.7272625  94.2596722  68.8485813
  49.8240089  83.5139370  48.9056635  49.5485115  82.7868652  48.3473730
  50.2462578  83.0938911  49.6549892  66.4381647  89.8536205  81.0971642
  65.9208012  89.2128086  81.5849400  66.0631227  90.6998348  81.3410759
   6.2030586  22.5389949  19.2330034   6.3408502  22.8849355  18.3511980
   7.0852932  22.3788349  19.5680196  51.3757753  85.8449078  40.1574183
  51.2031412  86.4906693  39.4722772  50.6684685  85.9717083  40.7897711
  56.0729551  90.5919647  57.4430752  55.3738213  89.9783325  57.2174597
  56.8784428  90.0845718  57.3432016  38.3060002  96.4844799  49.7249556
  37.6112533  97.0336056  49.3616104  37.8508997  95.7101059  50.0558043
  14.1129145   8.9751808   9.0263612  15.0608000   8.8729278   9.1117246
  13.8638862   8.3446161   8.3506258  64.3003702  88.2375431  60.5119944
  63.4012699  88.2064247  60.1850557  64.8371553  88.3450985  59.7268009
  54.9743032  57.9330111  86.9089222  54.1092443  58.2408381  87.1793842
  54.8017025  57.3586893  86.1628723  55.6291485  97.7781010  56.4375448
  54.8083735  98.2394505  56.6099310  55.3710938  97.0155430  55.9197140
  31.6155839  84.9072075  69.0457535  31.2941098  84.8656082  69.9463940
  32.1135306  84.0977383  68.9315462  96.1501217  97.8253937  61.0739708
  96.3460445  98.4607792  61.7625475  95.1981640  97.7289677  61.1008596
  54.6712399  87.1710777  77.2038794  55.5938530  87.0494080  77.4279690
  54.6403885  88.0242729  76.7710590  69.0202618  94.3557739  84.1814423
  69.2693567  95.1266670  84.6912479  68.1288052  94.5415211  83.8864231
  66.4214516  97.2942257  55.8389997  65.8036900  97.3196125  56.5697241
  65.8823347  97.4521828  55.0639915  59.7674704  70.6929255  80.6926346
  60.2368498  71.5120220  80.8507633  60.4566669  70.0512314  80.5209827
  14.0987740  97.8536013   5.9267290  14.0901623  98.2565859   5.0585325
  13.5504303  97.0744636   5.8345850  58.6523390  68.6445713  68.3957577
  59.2280912  69.3487024  68.0975246  59.2329693  68.0399036  68.8577938
  37.1512127  86.7313099  54.3378162  36.7834067  87.4096584  53.7714291
  36.4329624  86.1119556  54.4672346  94.9850630   3.2172883  47.0377064
  94.3683075   3.7864030  46.5773249  94.7408699   3.2958139  47.9598999
  39.8571754  70.5304337  37.4033475  40.6381083  71.0724068  37.2908998
  40.1955843  69.6407604  37.5043392  30.5252504  78.7707424  64.0606737
  30.1837897  77.9168224  64.3261051  31.3362432  78.8699389  64.5593548
  24.0765977  87.1644020  51.0120678  23.3942509  87.3088932  51.6676235
  23.9947176  87.9068470  50.4134798   5.4988512  11.9653074  20.8009489
   5.7284960  11.3053790  20.1467378   6.3329729  12.3742668  21.0316427
  44.5308542  91.8321800  67.7717352  45.3698254  91.7954826  67.3123693
  44.2877817  90.9152985  67.9001188  51.4530849  80.1731777  56.3743973
  52.2804499  80.4335403  55.9695435  50.7819843  80.4680729  55.7588482
  27.8688693  87.6159859  54.6639681  27.7227092  86.7298508  54.9950838
  28.1076884  87.4920654  53.7453604  16.4442170  78.9948606  74.9980927
  15.9033322  79.6961021  74.6348667  15.9750187  78.1907654  74.7755766
  53.9845753  95.6741905  60.6122684  54.8019409  96.0672474  60.9182930
  53.5961533  95.2876186  61.3970757  53.7168789  66.5328503  76.2804747
  53.0319929  66.6209507  76.9433451  53.5844469  65.6585646  75.9139824
  35.5714512  54.1388941  45.1133204  36.3942814  54.1818762  44.6261501
  35.3468108  55.0533485  45.2851868  54.5151329  93.7342072  36.2458038
  55.2544212  94.3084335  36.0459208  53.9392090  94.2672253  36.7939210
  46.9022942  73.2262802  60.5597305  47.2590113  73.4060049  59.6898556
  46.3838291  72.4297190  60.4460907  73.2688951  96.6536140  30.7988095
  72.8088713  95.8463287  30.5688214  73.9828920  96.7116165  30.1639223
  51.0819674  75.5143595  84.8698330  51.7320013  75.9583187  84.3252373
  50.4900312  76.2114429  85.1525307  32.5212082  23.6741392  15.6963022
  32.0806536  24.3825714  16.1656244  32.1354946  22.8741399  16.0533197
 107.1053908  42.9885284  21.2361105 107.7811143  43.5046474  21.6757162
 107.2800086  42.0866386  21.5050657  40.7985878  82.9721642  66.6102648
  41.2499905  83.7149334  67.0112181  41.2405872  82.8483105  65.7703066
  48.8784647  80.3411007  68.3129358  49.2632723  80.6352520  69.1385460
  48.0422258  80.8038616  68.2601404  49.9025488  75.9427595  75.6427908
  50.3233242  75.6215525  74.8452902  50.2125025  75.3540087  76.3309288
  79.0771269  15.9394849  83.5079575  79.3198465  15.1715005  84.0251732
  79.0702413  16.6601099  84.1379547  57.2839165  85.5670547  71.6901064
  56.6980267  86.0764313  72.2500086  57.0209980  84.6577835  71.8327427
  61.7827749  80.1059532  66.2071419  60.8382750  79.9534702  66.1770487
  62.1686125  79.2731047  65.9356070  52.7428579  80.9633923  79.5173550
  52.0139694  81.0138798  78.8989639  53.4024477  80.4353523  79.0675306
   4.0832840  79.4178867  37.2322154   3.6989342  80.1341057  37.7377248
   3.5114037  78.6697435  37.4038625 103.0506204   1.1698545  55.6206799
 103.6950420   0.9875597  54.9367762 103.1168484   2.1135152  55.7667732
 104.9853370  63.8570110   0.6621416 105.5185530  64.6102039   0.9163435
 105.2969668  63.6274806  -0.2133219  14.5357021  15.5772344   6.5480096
  15.4587206  15.4879085   6.7852552  14.5155462  15.4257432   5.6030805
  36.3543034  67.8312397  61.1997175  36.3768125  66.9649029  61.6061497
  36.2763047  67.6540613  60.2622938  25.9002590  60.4423380  43.4262609
  26.1488223  61.3562202  43.5650778  24.9742889  60.4068851  43.6661720
 107.5055526   7.1203817  58.5427809 106.6890739   6.6582406  58.7325764
 107.9213594   6.5996374  57.8556395  48.3218193  61.2769032  61.4293289
  48.3262539  60.7904625  62.2536993  49.1535425  61.7506742  61.4263105
  67.2800303  68.6332989  44.7792482  67.5938749  68.3163118  45.6261539
  67.8588343  68.2192755  44.1390896   8.9144573   9.3905366  43.6665487
   9.4365940  10.1851095  43.7773371   8.9779816   8.9426340  44.5101023
  57.6413536  55.3447008  82.3900318  56.7096424  55.5504036  82.3136616
  58.0469894  56.1681795  82.6612759  14.2699680  15.2913488  67.1051836
  14.3525753  14.4960607  67.6314211  13.3295403  15.3791631  66.9498539
  80.0497532  89.5399666  47.6093864  79.1326380  89.6730518  47.8489971
  80.3551006  90.4062748  47.3401117  48.3024979  80.0602150  78.2840014
  47.6783848  80.0895119  77.5588417  49.0657711  79.6077394  77.9249573
  44.1099453 102.2344971  64.3127966  44.8090410 101.5879154  64.2157078
  43.3403015 101.8145943  63.9286613 108.0391239   1.6088403  70.4164028
 107.7405237   1.2034620  69.6023130 108.2296108   2.5157178  70.1765633
  52.0298433  97.5228310  66.2910652  51.8507957  98.1472111  66.9941473
  51.2672281  96.9443798  66.2844801  93.4814714   0.4800905  44.1375637
  93.4344267   0.6443704  45.0793839  92.9633974  -0.3140914  44.0067863
  32.2107196  88.3969402  27.3862123  31.9250917  87.5273418  27.1061301
  33.0999589  88.2628918  27.7141118  66.1258364  76.4135933  48.3670139
  66.0244894  76.6749954  47.4517918  66.9056892  75.8585930  48.3726406
  86.7750931  79.4772816  46.4678049  86.0967922  79.4366360  47.1419621
  86.2930584  79.4519949  45.6412220  36.5473008  48.8747406  80.9590530
  36.0722852  48.4249115  81.6578007  35.8784437  49.3897390  80.5077839
  57.3866749  93.3267117  43.6647320  57.1142626  94.2443180  43.6599064
  56.8516064  92.9144478  42.9865170  48.5418367  66.3659048  62.1270323
  48.0232811  65.5939817  62.3538923  49.3162489  66.0137367  61.6882896
  48.9057684  88.3362007  78.4445190  49.1559935  88.2936764  79.3674564
  49.7375917  88.3713150  77.9722118  90.6402229   0.2629007  64.2838764
  90.5824779   0.4249300  65.2254963  89.7370981   0.3289236  63.9736557
  31.0529304  86.8441200  40.6322432  30.6853151  86.7370033  41.5095234
  31.0769272  85.9573364  40.2726889  43.9612961  82.6601315  84.7579193
  43.4646225  82.1434116  84.1234493  43.6801720  82.3274422  85.6102848
   8.8373646  44.1173450   1.7601640   7.9054340  44.2136470   1.5640600
   8.9136919  44.3563548   2.6839025  54.8529148  72.7733707  70.9054995
  55.0947809  73.5652590  70.4252434  53.9305449  72.6350403  70.6902599
  96.7117046   1.4074911  88.5538006  97.4159263   0.8437074  88.8738918
  97.1268247   1.9536699  87.8862667  50.6364393  90.8092403  79.1208649
  51.1601496  91.6082573  79.0614605  51.0362673  90.3133678  79.8353434
  40.2722296  13.9063922  17.2462995  40.6637462  13.1198923  17.6262529
  40.8328613  14.1161195  16.4993532  56.3790703  78.1508875  88.6435318
  55.6558657  78.2757139  89.2580414  57.1636915  78.1615448  89.1917038
  82.8984165  94.1130257  49.2694092  82.4592400  94.8220730  48.7997198
  83.8034153  94.1447735  48.9592361  41.9992733  71.0242939  60.3410482
  42.4178696  70.6776905  61.1290073  41.4261770  71.7210102  60.6610155
 105.5879282   9.2927946  48.6423111 105.7636856   9.9712480  47.9903698
 105.7305788   8.4693826  48.1755304  49.7356844  76.4912462  78.9677620
  50.2776957  76.3326263  79.7406149  48.8519764  76.6111469  79.3154860
  54.0871763  70.5906105  74.4336319  54.9975729  70.6849337  74.7138262
  54.0828609  69.7986460  73.8960409  60.2897071   0.7881845  51.7747450
  60.2213143   1.3471616  51.0007286  61.2209343   0.5749906  51.8346930
  42.3416780  20.7559789  87.0341492  41.5909796  20.8459676  87.6211643
  43.0451320  20.4268373  87.5936604  52.4783691  20.4583255   3.0583055
  51.5220627  20.4917566   3.0339487  52.6811966  19.5429126   3.2509477
  92.3860359  72.2705984  57.0044661  92.1167278  71.3577366  57.1063805
  92.2723007  72.6524639  57.8747988  44.5934439  76.1831713  41.3306046
  44.6714211  75.7476330  40.4818058  44.9064970  77.0737982  41.1724567
  77.8255558  71.7261744  46.2979412  78.6025620  72.1965027  45.9958029
  77.2414637  72.4118090  46.6219425  49.6062326  95.6627178  58.0808449
  49.0606785  94.9643421  58.4426069  49.8400259  96.2003231  58.8375139
  57.7657318  71.0026598  57.8983879  58.5175753  70.4122257  57.8499889
  57.9221392  71.5256643  58.6846685  75.7123041  76.4947271  79.0509462
  75.5205154  76.9311619  78.2209063  74.8526716  76.2768173  79.4111967
 102.4402905  85.1321030  54.7901154 102.0110226  85.8673191  55.2276134
 103.2006073  85.5212975  54.3580580  37.6157594  74.0871620  51.2805414
  37.0872688  73.3314657  51.0239172  37.1857500  74.4243908  52.0664120
  31.0415173  90.8870602  59.8761702  30.4871225  90.6098747  60.6055832
  31.5564680  90.1102161  59.6580458  14.9819851  85.2889729  84.6595001
  14.5911980  85.7927132  83.9455223  15.7043290  85.8347321  84.9702930
  72.8898715  11.4249242  51.8808556  73.7148498  11.1287893  52.2654915
  72.3023103  10.6742013  51.9670486  99.3549347 101.3153172  38.4639788
  99.1035175 101.2031078  39.3807292  98.7208080 100.7902241  37.9757190
  60.7625341  75.7202244  44.1985321  59.8236847  75.6305122  44.3620634
  60.9368229  76.6548109  44.3098879  62.2346115  89.3548584  51.1323881
  61.3548088  89.1013336  51.4114952  62.7609301  88.5643387  51.2519741
  10.5101951  24.0801135   4.9690874   9.7068533  24.0220348   5.4862936
  11.0578188  23.3664647   5.2962644  65.8993340  83.6288357  65.0828886
  66.4433146  83.9083958  64.3465710  66.0658264  82.6894379  65.1605844
   1.1434110  49.7787753   6.8666799   0.4789766  50.4644767   6.9343145
   1.7315682  49.9416152   7.6040990  63.8995934  78.9146948  48.1114960
  63.5575581  78.5915184  48.9450455  64.8004150  78.5924721  48.0811644
  68.2188559  95.1660442  74.6649599  67.8312254  94.3263626  74.9117804
  69.0340614  95.2096558  75.1647329  67.2415924  90.1402664  46.4576054
  67.2337675  91.0874271  46.5956545  66.4790583  89.9726295  45.9038258
  73.6409426  70.9318447  60.2346897  72.8839970  70.7320642  59.6839142
  74.3655920  70.4575443  59.8270702  30.8451033 100.0881577  44.7954607
  30.7125258  99.1423702  44.8598051  30.8697772 100.2630901  43.8547039
  77.3199129  90.2520943  65.1134205  76.4020491  90.1293087  65.3556490
  77.3278570  90.1773834  64.1591740  36.4838728   9.6902267   7.3154600
  36.9634947  10.5150691   7.3918493  35.5748543   9.9540512   7.1729429
  67.7686167  86.6628551  75.6432915  68.6418867  86.3117313  75.4690695
  67.3779821  86.0400772  76.2563038  31.6919184  64.3502569  64.0960646
  32.6139855  64.1311502  63.9618206  31.6359448  65.2843761  63.8947678
  29.4530710  26.7028800   5.0178774  28.9904436  27.1383945   4.3019636
  30.1916345  26.2651817   4.5945890  61.7876577  70.3863096  36.2983298
  61.4626837  70.8167458  37.0891213  62.6111555  69.9797487  36.5681291
  44.1532692  23.4746734   1.9023855  43.4629949  24.0279857   2.2678907
  44.9677929  23.8797370   2.2002180  59.2289209  93.8332748  80.0547600
  58.4220123  94.3143654  79.8712206  59.0446472  92.9385662  79.7688293
   8.0823670   6.7827810  36.9406223   8.2082329   7.7281393  37.0224690
   8.7914047   6.4956869  36.3652253  24.7912439  59.8331634   6.1726434
  24.0186771  59.2860786   6.0309751  24.6487078  60.2311221   7.0314462
  91.1062145  85.8303547  53.8208151  90.1909637  86.1095047  53.8458061
  91.2923050  85.7024670  52.8906298  94.5006107  93.7302616   7.9591234
  93.7253021  94.2647198   8.1308134  94.7593664  93.9630964   7.0674570
  44.7301340 101.8850613  78.8570166  44.6887684 100.9527779  79.0700197
  45.6487083 102.0399094  78.6368465  85.4461025   2.3153032  25.4442883
  85.9018158   2.5983728  24.6515512  84.5648454   2.6785291  25.3565884
  61.8509912  87.1190929  47.6310444  61.9122648  86.8510723  46.7141819
  62.4653673  86.5460014  48.0896807  21.8515190  72.0018379   1.1505277
  21.1856159  71.8703834   1.8254526  22.0649895  71.1186592   0.8494337
  13.0146561  14.9084009  55.0015402  12.8888664  14.7851957  54.0606737
  13.5221157  14.1450704  55.2773190  37.3006558  78.1700468  55.7138729
  36.4612389  78.5171032  56.0158110  37.9554701  78.7272120  56.1346054
  83.8197422  93.3705711  61.9495249  83.9022064  94.0270233  62.6412678
  84.7223663  93.1584358  61.7118168  43.1096220  70.6362057  30.3308225
  43.3757830  70.9102154  29.4531512  43.5393095  71.2592363  30.9168530
  92.3156834  73.5362339  80.3244400  92.5174999  74.3522453  80.7822895
  91.3929844  73.6186743  80.0834942  17.4210215  95.9661961  48.2883120
  17.7672517  95.1035786  48.5168648  16.6550696  95.7806110  47.7450752
  32.2755703  38.2895175  10.6917341  31.4138254  38.2070342  10.2832945
  32.7020201  38.9983550  10.2101572  92.5191402  94.5025826  78.9280844
  92.4476433  94.5145130  79.8825359  91.7433453  94.0241623  78.6357403
  77.0623064  90.5837440  78.5613060  77.2757435  91.3391399  78.0135345
  77.9073334  90.2854443  78.8977385  61.6311455  76.0438156  68.9441490
  61.6442919  75.0895739  68.8701296  60.7310724  76.2883615  68.7289715
  45.5524921  93.5003757  13.5787153  44.6193647  93.5060501  13.7919748
  45.6549644  92.7675152  12.9715526  98.0322933  79.2971706  75.4380465
  98.2217693  79.5167542  74.5258427  97.7935219  80.1320648  75.8407497
  77.4883318  83.7882423  39.6060896  77.7854729  84.6968269  39.5569658
  76.5591478  83.8517380  39.8270297  80.7067680 102.3270798  73.2505417
  80.0126171 102.1482944  72.6161671  80.2787685 102.8407955  73.9354849
  66.2429237 101.7699814  80.9297562  66.2628269 100.8593941  81.2241554
  65.7983589 102.2400951  81.6351604  70.5633878   4.3337358  78.0858517
  70.7163476   5.1934541  77.6937628  69.8897098   4.4888795  78.7479115
  19.0154537  58.4032909   1.0847528  18.0722603  58.3867637   0.9224565
  19.3378910  57.5850955   0.7068308  69.4768976  15.4421342  42.5811672
  69.7560381  15.7772268  41.7290974  69.5029281  16.2049783  43.1587648
  48.0951405  81.0361004  73.1189346  48.8855314  80.5564499  72.8710461
  47.4923754  80.8984566  72.3882103  68.3926487  89.5758629  75.3541422
  67.8264093  88.8398743  75.5863523  68.8860321  89.2679119  74.5939016
  90.4979324  66.4708710  89.3306446  90.0100040  66.8646336  88.6073780
  90.3287029  65.5321455  89.2507362  32.3537048  82.9235069   6.4673383
  33.0019888  83.3866016   6.9979055  32.4286541  82.0094673   6.7414720
  16.3633499   9.4320215  46.8048191  16.6815529  10.1050485  47.4064922
  16.3552532   8.6292280  47.3260689  82.4153137  56.6892433  43.3506680
  81.7112732  57.3225403  43.2110596  83.2161713  57.1729946  43.1485367
  84.0778087   1.3062585  82.0200539  83.6126541   0.4785551  82.1416378
  84.1251253   1.4171613  81.0704803  99.5024202  41.6989890  11.7220075
  99.2834065  42.0242874  10.8488233  99.4991038  42.4794570  12.2761591
  90.8911442  39.6687520  38.7695789  90.4540514  39.9632181  39.5686221
  91.2536119  40.4675878  38.3865428  91.0065292   5.7193483  36.8505692
  90.5682729   5.4547132  36.0417867  91.7805504   5.1582349  36.8982196
  74.8953031   7.2775091  50.6306934  75.8270310   7.0660127  50.5724907
  74.5293354   6.9783319  49.7983503  65.9112238  11.1786283  76.5663433
  66.5667557  10.6684221  76.0907459  65.4386758  11.6563047  75.8846140
  84.3246864  20.8547605  56.1283302  84.1810869  21.7130102  56.5271091
  84.9710630  20.4327882  56.6943407  13.3339440  82.2489262  70.4351473
  12.7216851  82.8046131  70.9174156  14.1977536  82.5992203  70.6527901
  65.5397224  74.4262934  36.8062830  66.0929203  75.1889706  36.6373944
  65.0834322  74.6370459  37.6209092  18.1292591   5.2304662  86.7540169
  18.2923184   6.0647119  87.1940994  17.2355518   5.3066648  86.4197731
 101.1530781  74.1257811  78.3036089 102.0263481  73.8861513  77.9934359
 101.1639309  73.9138794  79.2369986  81.2648678  68.2064247  85.2872467
  81.7957401  67.8550863  84.5724392  81.8362045  68.8404179  85.7206821
  89.3147491  11.2133420  67.4697781  88.4834265  11.6875280  67.4529314
  89.9236368  11.8126691  67.9013920  34.7595477  91.8847275  77.9278564
  34.8026109  91.6615868  78.8576889  35.6593347  91.7872429  77.6162291
  50.6020594  85.9379387  34.2210507  50.9138489  86.0776424  35.1151967
  50.6773901  84.9933147  34.0859771  75.0366591  12.1732343  10.7120931
  74.8306321  12.3355306  11.6326594  74.2085170  11.8845190  10.3286099
  42.6865562  33.5757438   7.4644239  42.1315750  34.2229930   7.8994997
  42.3405680  33.5237686   6.5734537  53.4570742  80.6259346  45.4801226
  53.2454109  80.5027103  46.4054585  54.3372726  81.0020542  45.4837894
  36.2387213  40.0342742   0.9437616  36.0496219  40.9599296   1.0975225
  35.7719787  39.5752517   1.6420992  63.1099272  77.4804544  50.1855183
  62.6100111  77.1731091  50.9417248  63.6615705  76.7362356  49.9445581
 108.4106039  20.8241380  73.4886646 108.7896274  21.3577474  72.7902126
 108.1602644  21.4553560  74.1632986  23.9570580   8.1466115  69.8788691
  24.3294201   8.1132711  68.9976978  24.5436153   8.7261499  70.3649855
   0.2595218  24.5577613  14.5658453  -0.0372592  24.7039501  15.4640634
  -0.0791017  23.6914913  14.3397100  69.0345860  96.5946388  40.6969786
  68.8592482  97.4199963  41.1489487  68.1692266  96.2112808  40.5540848
  63.4045076  77.7178288  56.8594408  63.5075808  78.5810518  57.2600079
  64.2834091  77.4868059  56.5587950  60.0566959  93.5350990  44.3368578
  59.1189623  93.3755589  44.2299128  60.3072166  94.0247631  43.5534668
  60.4079533  83.8277435  69.3599463  60.1859522  82.9400826  69.0788460
  59.8184776  84.3919277  68.8595104  57.1588087 100.1648808  56.2378597
  56.4654827  99.5092201  56.1627054  57.2761726 100.4926491  55.3462219
  25.6662726 101.8089008  62.8521729  26.3846970 102.3789597  62.5780773
  25.3378153 101.4288902  62.0373440  95.9283829  76.4165974  63.0096817
  95.6854057  75.4962635  63.1105614  95.5635929  76.6690350  62.1614838
 100.7551956  68.0587816  84.5434666 100.2001095  67.4220133  84.0933132
 100.2901077  68.8901806  84.4501972  88.2237339  83.7671757  62.6420498
  88.3881760  83.6971664  63.5824156  87.3099518  84.0450668  62.5787354
  33.4948667  27.6185743  13.9506967  33.4607395  28.2667343  14.6542318
  34.0760311  28.0059282  13.2961519  95.3868936  15.3018774  56.0644197
  95.0242733  15.1674379  56.9400120  95.4148458  14.4258607  55.6796551
  64.6223472  15.1256097  73.1050396  65.3415750  14.8121847  72.5566721
  63.8337373  14.7820867  72.6851368  93.3224297  99.3259430  65.0422144
  93.4774971 100.2231216  65.3376102  92.8981304  98.8987446  65.7863235
  69.3243812  12.2435010  67.2513914  69.1122864  11.3386739  67.0221710
  68.6743330  12.7677549  66.7835999  96.2259887  11.5144266  63.4707642
  96.6213058  11.6591562  64.3304205  95.2832340  11.5225042  63.6362457
   3.3235607   1.5861906  56.5884495   4.1895447   1.2911237  56.8699408
   2.7761374   0.8024515  56.6365719  73.2737160  91.6142941  37.8815126
  72.9911423  91.9840908  37.0450711  74.1267347  92.0165157  38.0452538
  24.4497713  19.1588584   0.9400995  24.7504696  19.7585431   1.6228826
  23.6621031  18.7557737   1.3052519  27.5935435  85.9628868  40.7531166
  27.7665424  85.2090073  40.1892328  27.5140500  86.7008400  40.1486921
  99.9682974   6.2757410  39.1178393 100.5796741   6.9701494  38.8723993
 100.4861473   5.6816972  39.6611428  40.2812052 102.7195740  54.5149899
  40.2207708 102.1659088  55.2934742  39.4145155 103.1182766  54.4367838
  59.2322016  90.4206276  63.8521481  58.3421469  90.3586102  63.5054684
  59.7810125  90.5575657  63.0799532  99.9870037  42.3785795  55.8675432
  99.0843748  42.4301733  56.1819077  99.9376510  42.6522459  54.9516296
 103.4381365   5.3185380  85.8910179 103.7195419   5.0312341  86.7596340
 103.9841484   6.0818304  85.7026577  84.1584492  89.3606853  48.4173632
  84.1595650  90.2163315  47.9883003  85.0545120  89.2511749  48.7356520
  24.1469225  26.1067001   9.6513231  24.9584326  26.4411489   9.2694433
  23.6758360  25.7209484   8.9127405  37.7455982  49.0902320   4.2199857
  37.5150665  48.1635753   4.1536100  38.4898552  49.1949359   3.6272390
  15.3506790  81.7552662  54.5610237  15.3508412  81.1749744  55.3222656
  14.4817578  82.1567535  54.5660973  45.2114773  78.9891577  34.4559503
  45.7196951  79.2045641  35.2379632  44.3383265  79.3386650  34.6339560
  86.6070913   5.8571352  55.8010244  85.9980081   5.6840909  55.0831795
  86.0446333   6.0498060  56.5511894  91.5231037 100.8566952  43.3477640
  90.9667015 101.1958408  42.6466036  91.9064140 100.0583935  42.9844332
  54.6862936  82.3151493  40.4325342  54.4776392  81.3812542  40.4556274
  54.8147869  82.5546360  41.3503408  99.0032266   0.6686223  78.9853191
  99.7171091   0.2740491  78.4844065  99.1725610   1.6097749  78.9429855
  93.4096168  31.4693273  36.5995407  93.7065433  30.9760869  37.3642516
  92.5217174  31.1500276  36.4385486  34.7050953  92.1620750  43.4412956
  34.9996996  91.4050961  42.9349184  35.1461148  92.0715141  44.2860031
  81.8575643   0.2150739  67.2118187  81.7503523   0.5466569  66.3203049
  80.9862684  -0.0952612  67.4583340  81.9135545  25.0471319  77.9119015
  82.3223995  25.9125436  77.9235077  82.3779558  24.5720685  77.2227859
  48.1963714  25.1678220   9.5831163  48.1817802  25.4020254  10.5111082
  49.0825447  24.8385421   9.4331033  43.3399423  51.9697181  18.7907655
  43.0323061  52.6322070  19.4093950  42.6768240  51.9602577  18.1005438
  63.0745363  82.2900486  28.7545180  63.6904955  82.3020267  28.0219269
  63.6105061  82.4921703  29.5214057  56.0512686  76.0021400  79.8076725
  56.0472441  75.0988531  80.1243496  56.7824841  76.0364676  79.1909266
  52.3145008  91.9758034  60.5429792  52.4250841  92.7665997  61.0708475
  52.9535389  91.3586617  60.8993387  66.9235023  76.4963046   0.7489736
  66.4041885  77.1655742   0.3032835  66.4175972  75.6906597   0.6430490
  18.0916389  49.3577377  17.8327997  17.3556598  49.8325244  17.4465997
  17.8978237  49.3367282  18.7699373  29.6354365  79.6207237  36.9600129
  29.8839402  80.2376175  37.6484299  29.4398403  80.1727676  36.2029004
  38.7236166  84.1023445  60.0425005  38.5508585  83.3600903  59.4633293
  37.8955150  84.2466927  60.5003643  12.7685700   0.3870023  63.8409185
  12.1072254  -0.2289950  64.1561842  12.3802338   0.7746995  63.0566263
  24.1348966  36.6870109  34.6892507  23.2849392  37.0492641  34.9394090
  24.3617662  37.1452323  33.8800581  86.1690592  17.4793924  81.9359112
  85.5453466  17.7718175  82.6005173  86.3674568  16.5741361  82.1754551
  94.6670532  82.5042343  53.5388851  94.6673393  82.9834843  52.7103043
  95.1530361  81.7012119  53.3512735  61.7369461  75.9008360  80.1963520
  60.7993984  75.7701921  80.3383827  62.0670891  75.0331116  79.9633360
   2.4405918  33.0992616  74.3836641   2.6965199  33.5478796  73.5777664
   3.1041536  33.3582891  75.0230598  42.3925924  94.2499542  82.2860146
  42.6982403  95.1434135  82.1293545  42.9576778  93.7041664  81.7391872
  62.3004912   9.5047773  85.3118229  62.4842786  10.3308977  84.8646355
  62.3001264   8.8496030  84.6139812   1.2301407   9.4350923  60.3081703
   0.6832323   9.6049894  59.5411921   1.1890850   8.4860815  60.4261494
  64.6268177  65.1460981  73.2753992  65.5225420  64.8153687  73.2081127
  64.6719742  65.8245182  73.9491510  91.6081238  87.1011734  56.4977741
  91.5333080  87.8826618  55.9501362  91.8445206  86.4027309  55.8874273
  51.6880688  41.8420783   8.0528982  52.5461849  42.2234527   7.8673513
  51.4080509  42.2657386   8.8642748  60.4975891  75.6514120  57.0825195
  61.1559343  76.0635567  57.6419401  60.0777006  75.0013018  57.6458025
  83.0010961  16.4813341  64.6248579  82.9148077  17.3856653  64.9264812
  82.1318601  16.1018480  64.7538900  68.4448814  96.2466240  52.2676325
  67.4897146  96.2676239  52.3264027  68.6325645  95.5162907  51.6780424
  53.5166883  88.6553001  79.4455099  53.2747602  88.2086945  80.2568340
  53.6041832  87.9521465  78.8019657  58.5644436  73.4365559  79.4631433
  59.3758392  73.0939531  79.8379564  58.8205385  73.7725830  78.6042309
  72.8646421  95.5942059  78.5305882  72.9146576  96.3558960  79.1081381
  72.8126001  94.8458385  79.1251135  65.5805159  84.2935371  87.8170109
  65.7535315  84.4159889  86.8835735  66.3486767  84.6620083  88.2533455
  90.4754614  32.7565397  72.4020624  90.3597711  32.7853406  73.3518076
  90.1441072  33.6003316  72.0947218  65.5705261 102.3980427  64.1974640
  65.1805544 103.2426929  63.9722538  65.0612450 102.0915318  64.9477386
  44.9899769  74.7138882  62.2316742  45.6882429  74.2471886  61.7724848
  45.0022507  75.5938721  61.8552351  88.2288933  90.5531216  57.9878855
  87.9666901  90.4438591  58.9019680  88.9065552  89.8908424  57.8523016
  13.3266318  71.6349602  57.3234081  12.8629982  70.8246088  57.5346041
  13.8573349  71.4147186  56.5578508 106.5907452  26.5795747   6.9509847
 106.8697450  26.6874305   6.0417230 106.1487720  27.4012176   7.1649702
   1.3138924  16.6953767  62.9192734   1.1668358  16.5753854  63.8574696
   0.6474600  17.3280824  62.6513672  74.2215346   0.6832803  76.3048792
  74.7702788   1.4131464  76.0178137  73.9060568   0.9464086  77.1694469
  36.5598043   2.2457687   9.4848974  37.0106348   2.8071014   8.8541086
  37.2441419   1.9759885  10.0973756  85.0768280  95.8812332  41.0820675
  86.0025978  96.1144733  41.1511898  84.6098328  96.6713905  41.3537312
  59.0242815  83.8400364  51.2743282  59.0703058  84.7684193  51.0458231
  59.7263432  83.4332848  50.7664919  57.4691629  76.4442825  71.0844898
  57.3687267  77.3480463  71.3834095  57.2436810  75.9129858  71.8481064
  20.8427652  46.6188136  -0.1082556  20.4265150  45.7571594  -0.0858443
  20.1890024  47.2103969   0.2643736 104.6074390  92.2431183  75.6195641
 105.1119423  91.9373131  76.3733482 103.6948776  92.1847343  75.9025097
  98.7284731  19.6884073  71.9980145  99.5417999  19.7921098  72.4919558
  98.7455295  20.3987421  71.3566399   2.6859722   6.3648809  80.6562805
   2.3254500   7.2105611  80.3896809   3.4238062   6.2214864  80.0636005
  89.8061823  18.9406217  73.1982613  89.5005249  18.1788648  73.6907387
  89.0183138  19.4649232  73.0547142  15.0699838  31.7585937  24.7136934
  15.7455477  32.0898525  24.1219862  15.3858742  30.8945743  24.9780996
  74.0206527   6.8928922  75.9227085  73.4345101   7.3877061  76.4952707
  74.7919368   6.7189134  76.4622307  65.5390549  93.1597614  72.6581049
  66.0276747  92.6317215  73.2894897  65.3097391  92.5466633  71.9597101
  76.5598154  95.0045204  62.4817085  77.4637222  94.8677444  62.7653790
  76.0289240  94.6291542  63.1841898  72.9962015  67.0549726  60.8736992
  73.4509850  67.0636511  60.0314808  72.9761553  66.1317253  61.1255741
  57.2732115  81.4819145  80.4965305  57.1194935  81.4218807  79.5536661
  56.6195536  80.8993912  80.8833504  73.4062933   0.6581796  51.4521933
  73.1412266   0.3851427  50.5738878  74.1218566   0.0652421  51.6815996
  49.3851089  79.6351528  61.3003111  50.2246284  79.2786932  61.0098314
  48.7298822  79.1022158  60.8498764  85.6917213   2.0904935  61.6919851
  85.5783724   2.8791917  62.2223997  86.6161751   2.0994962  61.4439249
  56.7546463  79.1541338  59.2474174  55.9662914  79.1975927  58.7062740
  56.5918016  78.4284925  59.8500443  74.3784856  15.0569070  67.3033142
  75.1037096  14.6594633  66.8213177  73.6246370  14.5025075  67.1018505
  57.1503090   6.3566030  47.5571299  56.5303110   6.6301645  48.2331467
  56.9769477   6.9438280  46.8213701  76.1626291  77.4421024  60.2848482
  75.7503366  77.9032421  61.0153246  77.0756626  77.7287817  60.3053474
  19.5347557  18.5544981  73.3296871  20.2084313  18.1734098  73.8928699
  19.2461262  19.3378652  73.7979412 101.2637733  19.3938268  85.4051971
 100.4379438  19.8100961  85.6520939 101.2216209  18.5239042  85.8023071
  50.0275755  75.8307838  62.5854683  50.5183506  75.0198030  62.7184629
  50.7004356  76.5026379  62.4754810  37.5867996  32.1226896  61.0528851
  38.0103359  31.4954675  61.6389275  36.9489632  32.5740732  61.6057444
  74.3937181  12.2548688  72.1311951  74.1854094  12.9678644  71.5274811
  73.7212156  11.5947164  71.9633436  61.0380030  79.3799973  52.0493698
  61.1116457  79.0094662  52.9288673  61.9398594  79.5768452  51.7961168
  70.7512712  95.6144142  55.2474213  70.0549984  96.2710953  55.2329969
  70.2981758  94.7819328  55.1135921  82.6448892   6.0969079  57.7838087
  83.4089302   6.6581644  57.9159737  82.9154180   5.4803670  57.1034288
  93.0536531  13.2857240  84.0872478  92.1650480  13.6031068  84.2481232
  93.6090063  13.8407052  84.6347904  74.1648506  20.5172170  76.1211252
  73.6949466  21.1578954  76.6549397  75.0895070  20.7228673  76.2587881
  93.6586498   4.3482412  49.2133141  93.4797071   4.3436540  50.1536274
  92.7960895   4.4263376  48.8057375  69.0522465  56.4465896   0.1625402
  68.1374153  56.4230243   0.4431780  69.2113193  57.3641673  -0.0587981
  33.3304644  89.2738533  69.0244246  32.8032374  90.0722122  69.0543842
  34.2263269  89.5833302  68.8906860  14.0154133  13.0966772  79.9144030
  13.9980755  14.0058149  79.6154070  13.5147724  12.6177419  79.2539310
  15.3215059  54.6468822   3.4971769  15.2661213  54.4432155   2.5635393
  16.1910662  55.0315753   3.6072309  81.3365555  91.8987370  61.6939402
  82.1210480  92.4470615  61.7058897  81.3320065  91.4684963  62.5489855
  16.2180576   1.5728105  42.1408367  15.6451950   1.5228857  42.9060602
  17.0071278   2.0103277  42.4604988  77.8743839  76.8019724  63.1113195
  78.4402323  77.4017286  62.6251745  77.0668221  77.2960711  63.2525253
  44.6678209  90.1288891  62.0619917  44.0070820  90.5927277  61.5476894
  45.3639650  89.9314880  61.4353752  97.7148819  67.8554249  81.9437504
  97.7167988  68.7660599  81.6488361  96.7909527  67.6533699  82.0912170
  72.4892855  73.5208273  59.8150635  71.8504047  72.8087378  59.7835302
  73.1300926  73.2977486  59.1399050  74.3091679  52.4548197  35.1751518
  74.8777914  52.0903063  34.4968939  74.9102974  52.8671646  35.7955170
 106.6427587  14.0968431  81.4786816 106.8636440  14.9903882  81.7414093
 107.4799179  13.7076772  81.2257957  49.4318151  76.6168499  53.5013008
  48.5563040  76.3338089  53.7651157  50.0255013  76.0648632  54.0103006
  17.5733646  73.0369369   7.4850328  16.9977554  73.1798164   6.7336996
  17.6395592  73.8956348   7.9027517  92.5488399   3.9711297  45.5114841
  92.2573684   3.4704603  44.7495031  91.8561386   3.8453210  46.1599970
  96.8534111  37.4297441  72.7976418  96.0244488  37.3520483  72.3253965
  96.8553327  36.6873659  73.4018755  95.2685165  86.7671776  40.6405020
  96.1317158  86.3547325  40.6722736  94.7887230  86.3751030  41.3700914
  97.1464370  29.8457635  29.2211628  97.5372099  29.8663438  30.0947213
  96.2157034  29.6872629  29.3788052 105.8658098 100.6343725  21.0441549
 106.0015463 101.1774567  20.2677114 105.3279423 101.1744478  21.6231592
  87.4038957  20.7103647  63.5700369  87.8720592  21.5290941  63.4065485
  86.5743183  20.9830011  63.9620876  72.2685989  51.7774288  28.2269056
  72.3421081  52.6780979  27.9112680  72.6767143  51.2491695  27.5408895
  68.2049370  73.8074589  51.2115860  67.3771667  73.3352375  51.1219501
  68.3287477  73.8965511  52.1565533  34.8668941  22.0053474   2.8045042
  35.2881273  22.4910537   3.5136469  35.5367550  21.3911907   2.5039632
  70.0978041  74.5804119  34.0791273  69.9802971  74.3475103  35.0000954
  70.3881311  75.4923296  34.0978456  28.8240242  86.8240452  61.4244699
  28.2925773  86.6836929  62.2081137  28.2892466  86.4821148  60.7080030
  95.4483722  16.9653524  75.9956694  95.2122186  16.2768663  75.3740215
  96.3370537  16.7429555  76.2731838  59.2271948  68.5945034  57.9706812
  60.0032330  69.1135168  57.7594471  59.5598841  67.7054787  58.0938911
 105.8788013  77.2439814  65.5229568 106.0838032  76.6359615  64.8126650
 105.7806110  76.6863489  66.2947321  92.6562713  13.4122575  55.4144096
  92.3892807  12.5111879  55.5961180  92.6676010  13.8363660  56.2724495
  96.3013290   0.2581323  31.3748169  95.4908918   0.7382310  31.2047148
  96.9815849   0.9315027  31.3820982  47.7476215  89.9066448  67.7040243
  47.6834631  90.6609631  68.2897806  47.3644686  89.1840076  68.2012463
  84.8558998  64.0805769  70.9590673  83.9772129  64.4389153  71.0844946
  84.7082520  63.1937218  70.6305647  83.5886215  10.2064336  79.5407343
  84.3141960  10.2498830  78.9179325  83.8529514   9.5353044  80.1699829
  99.8628829  72.4643222  15.4469164  99.4916532  72.9508296  16.1829431
  99.5204995  72.9068176  14.6702535  19.6525345  33.3762468  72.3960781
  20.5980549  33.3189310  72.5337458  19.3228684  33.8177503  73.1787777
  83.2234215   7.5292028  69.0611362  84.0735506   7.6862825  69.4720364
  83.1334232   6.5762723  69.0536785  16.4722214   0.7532419  30.4625130
  16.7136345   0.0387586  29.8730564  15.5957661   1.0125268  30.1781988
  75.3631926  45.6347752  83.4593296  76.2243795  45.2291012  83.5594463
  74.7469997  44.9039364  83.5084248  87.8456306  81.9040489  65.2507639
  87.4027348  81.9483948  66.0981798  87.7393246  80.9944439  64.9722672
  36.2317976   5.2781526   2.5981577  37.1847137   5.3278867   2.5226267
  36.0158380   4.3873588   2.3223264   4.3601666   4.1447462  70.6846189
   4.8503647   4.4746030  71.4377069   3.4715853   4.4765771  70.8132505
  83.1921101  80.3390980  83.6730957  83.2316399  80.4017448  84.6274281
  82.8044128  79.4801664  83.5053062  32.6250482  90.2566528  42.0350409
  33.2694054  90.2314186  41.3276529  31.8078446  89.9735451  41.6248417
  67.8634310  60.3504848  87.2904396  68.5510588  60.8848286  86.8930912
  68.2170820  59.4610357  87.2833061  12.5132618   3.2442583  79.1430855
  11.8704090   3.9066423  79.3965101  12.1928940   2.4348844  79.5412302
  50.3261137 100.5529785  64.0390396  49.9521971 101.4312840  63.9683580
  50.7822466 100.4192829  63.2081985  89.1582203  67.5962591  40.7348680
  89.8651791  67.3298311  41.3226318  89.2729473  67.0483160  39.9584508
  73.0439043  63.0808449  23.8486505  72.8463984  62.4573755  23.1497169
  72.6118135  63.8904715  23.5765576  30.2509594  77.4296808  69.9370670
  29.9249625  78.2579041  70.2892113  29.8767662  77.3795700  69.0574646
  19.0151581  21.7505399   6.1506612  19.2291435  21.0443488   6.7603548
  18.0886015  21.6201822   5.9488351  59.2414999  80.0782776  60.4698277
  58.5871935  79.8604059  59.8060179  59.5333624  80.9599590  60.2381325
  86.6342806  25.4796422  56.7620087  86.9949316  24.7480119  56.2611246
  86.9325804  26.2599576  56.2947226 100.7376550   5.9723867  81.5801907
 101.2784027   6.5130247  81.0043907 100.2599548   6.6016687  82.1205902
  67.5029707  71.3649225  47.6417971  68.1294918  70.6484270  47.5401115
  68.0293322  72.1586943  47.5464010   3.7834988 100.5437401  25.7226617
   4.5615254 101.0044935  26.0366876   3.3537397 100.2296570  26.5182073
  63.7719520  63.2989494   9.2235048  63.9204391  64.2444507   9.2090376
  64.4734272  62.9547683   9.7763975  22.3513851   1.9159139  29.1064882
  22.1303997   2.1679605  28.2098985  21.5179215   1.9464887  29.5762110
  56.3549279   8.0456365  83.2556343  57.0422100   8.7114156  83.2801819
  56.8195723   7.2282613  83.0760574  19.6348057   5.3015150  84.0646362
  19.2799053   4.8747838  84.8444939  20.5268250   5.5464757  84.3106556
  79.1362667  94.9795532  74.5210457  78.6764002  95.0787354  73.6874294
  80.0455189  95.2019119  74.3209267  84.9611076  41.4796058   4.9200304
  84.4124969  42.2634879   4.8916681  85.8324226  41.7879287   4.6710737
  82.7982330  56.4265633  57.6307058  82.8365326  57.1214056  58.2879400
  81.8628025  56.2680244  57.5039959 107.7648615  17.0073141  42.2280788
 107.6495098  17.5350393  41.4378738 107.3220514  17.5051511  42.9153252
 101.1004639  80.7634544  60.6502247 101.2999058  80.0770760  61.2868881
 101.2020206  81.5802383  61.1388779  48.4337219  21.6857520   0.3572519
  49.1448387  22.0898715  -0.1399748  48.2590183  22.3015396   1.0689504
  17.4664555  31.4580739  72.4545527  17.7281151  30.7241643  71.8985319
  18.1765900  32.0932783  72.3626471  81.5994740 102.8988934  60.9183598
  81.1906052 102.0361900  60.8490086  81.6790581 103.1996918  60.0131464
 104.9098587  97.9691219  81.9945812 104.5865154  98.4922886  82.7280521
 104.2066097  97.3443317  81.8176365  52.2047504  30.0953285   0.5383260
  52.2408851  29.4310752   1.2265833  51.5523704  29.7649852  -0.0793402
 107.2139477  27.0443262  81.4054489 107.7262806  27.8068841  81.6742611
 107.6063513  26.7725099  80.5757713  90.5637264  82.7351665  60.8603191
  90.2609253  83.1648731  60.0603867  89.8551369  82.8726292  61.4889956
 107.6561353  61.7098323   1.1498792 107.7945993  61.3769714   0.2631624
 107.5973318  62.6592151   1.0428674  17.2437630  38.9617933  76.1355543
  16.8687687  39.6256841  75.5568790  18.1863651  39.1262353  76.1095667
  72.7500439  72.0031166  70.3088188  73.2563686  72.3657656  71.0356951
  72.4211931  72.7700329  69.8398542  69.2280722  89.3270111  89.2787647
  69.9392080  88.7150478  89.4685364  68.7421751  88.9154053  88.5641289
   0.2549896   1.5196622  58.5455275   0.9751234   2.0072568  58.9453840
  -0.0748148   2.0995153  57.8590631  34.2083225  18.1615270  55.3242970
  35.1057396  18.1257356  54.9932528  33.9686546  19.0864671  55.2671385
  68.9429474  97.5244522  54.7865438  68.9201212  97.2655582  53.8653088
  68.0230474  97.5564194  55.0492144  14.3959268  28.2680885  19.4863660
  13.9774116  28.6615840  18.7207086  14.4140991  27.3305837  19.2940481
  26.8928585  15.7991804  85.4057693  27.4898014  16.5171922  85.1951599
  27.4099979  15.0070680  85.2596092  46.9491539   5.2036203  48.1959724
  46.6438446   5.0287736  47.3057795  46.3958798   5.9222234  48.5021210
  79.5999718  88.7809372  55.4789305  78.8912344  88.7486744  56.1214876
  80.0179386  87.9219818  55.5400229  29.2050991  10.6111063  84.8882771
  28.6780987  10.1800455  84.2154503  29.1781483  10.0117601  85.6341171
   1.6866528 102.1567822  33.2971716   0.7462250 102.3330402  33.2694244
   2.0115219 102.7022076  34.0135503 106.1178230  18.3661760  43.8131285
 105.9913181  18.0958189  44.7226000 106.6095995  19.1852010  43.8729191
  36.9886431  75.1474849   9.2542417  36.8932041  75.4632179   8.3556612
  37.9210981  75.2480403   9.4456728  23.8233312  61.5017883  11.8474634
  23.9606508  62.4183456  11.6080721  24.7055897  61.1358253  11.9100721
  81.4695263 103.0400467  63.8378811  81.8262100 102.1906090  64.0976191
  81.8114758 103.1836987  62.9554605  68.3052826  75.8451700  42.7876520
  68.7268686  76.4471817  43.4009027  67.4292469  75.7098532  43.1488752
  84.0645241  15.1388467  80.8143806  84.1532062  14.4890989  80.1171017
  84.0135692  14.6219266  81.6183853  77.4588108  84.4890594  71.7829561
  77.4724197  85.2400017  71.1895514  76.8091106  83.8965893  71.4046621
  27.4386177   3.3302701  51.2803793  27.2554264   2.3909200  51.2975597
  28.3940182   3.3878053  51.2689638  55.4219580  71.3458300  67.4234819
  56.2821770  71.7604828  67.4891901  55.4433155  70.6453133  68.0754423
  15.0858269   0.6315816  71.9207001  14.9113522   1.5659345  72.0337248
  14.2345295   0.2121366  72.0455503  20.4139004  12.2850908  72.4625301
  20.5229149  12.6135744  71.5700960  21.2769566  11.9460691  72.7000666
  12.6942787  16.7432893  74.2344666  13.5623798  17.1348394  74.3309641
  12.2596607  17.2839178  73.5748720  83.9585003  61.0323802  11.8683202
  84.4212231  60.5579463  11.1776407  84.0555080  61.9547740  11.6316373
 101.7517399  27.1334947  57.7564621 101.4883350  26.2218011  57.6312923
 101.5861915  27.3055280  58.6834097  51.5812286  77.1519557  12.9832227
  50.8438095  76.9524185  13.5599573  51.4280304  78.0539600  12.7018888
  66.7795061  88.7955478  38.5047109  67.6880955  88.8099316  38.8055284
  66.7455839  88.0713919  37.8796632  15.8415756   1.7637456  67.4143219
  15.4279671   1.8850435  66.5596581  15.8149204   2.6309885  67.8185511
  43.6877045  66.5060703   7.4501474  44.1484627  66.8354312   8.2218034
  43.9910778  65.6029693   7.3573644  12.8023968   2.1666444  53.2155514
  12.4245606   2.7865137  53.8394356  13.7481079   2.2510732  53.3369303
  49.6319660  60.9799568   9.5135648  50.1531967  60.1798526   9.4473703
  50.2785667  61.6808311   9.5967825  75.3133154  92.1580410  80.6903076
  75.9146261  92.2265911  81.4319038  75.1759148  91.2172508  80.5795383
  94.7897409  18.0015386  55.5488539  93.8591980  18.0375875  55.7702684
  95.1305555  17.2708333  56.0647535  82.8892899  95.5540943  67.4922276
  83.1786728  96.0602474  66.7330885  82.0178890  95.2391243  67.2520447
  49.1597996  17.9265798  45.3020144  48.2883701  17.5669778  45.4679537
  49.4982491  18.1446756  46.1704159 105.3067802   5.4627050  82.9862022
 104.8542427   6.1439718  82.4888897 105.1024793   5.6580652  83.9007187
  75.3366398  14.1153348  45.1117086  74.6452926  13.9845193  44.4627428
  74.9070023  13.9629472  45.9533882   0.8212385   3.4778989  64.9547958
   0.0184641   2.9581274  64.9145603   1.3552103   3.0428327  65.6194925
   8.6623821  20.1269926  65.9819221   9.2524872  19.5992006  65.4439211
   9.1271362  20.2351583  66.8117046  64.8397564  19.9361337  56.7981911
  64.2881202  19.9201215  56.0160971  64.2204140  19.9538911  57.5278044
   4.3092285  90.8609867  51.3650370   4.5888459  91.4025021  52.1031427
   3.7194001  90.2142239  51.7523813  35.2922853  48.4404842   1.0172327
  35.8025154  47.7069179   1.3604219  35.8859905  49.1896144   1.0677869
  77.9119133  15.5966772  69.6568632  77.0690750  15.9870161  69.8881531
  78.0561279  15.8593954  68.7477922  92.5338243  50.4587472  66.4175797
  91.6060709  50.5403055  66.1965513  92.5392174  50.2237237  67.3454666
  56.0615444  99.6121693  69.1928911  56.0019207  99.0150261  68.4471703
  55.9084272 100.4795074  68.8180447 108.6262894  84.8835373  58.8863277
 109.1429710  84.1255283  59.1596270 107.7687073  84.5212173  58.6638308
  55.0684071  99.0682411  41.1745691  55.0165129  99.6626568  40.4260969
  54.2812109  99.2570019  41.6853666  15.1511536   9.6777833  83.5570240
  15.8864937   9.0654005  83.5346699  14.4691525   9.2154325  84.0441990
  53.5764885  77.7279186  47.2753811  53.1672335  78.5280895  47.6047325
  53.1186771  77.0204115  47.7293301  16.9469414   8.4695447  64.7087908
  16.4907799   8.3970941  65.5471849  17.3961220   7.6304067  64.6072197
  34.4580349  45.8605853   9.1037901  33.7411913  45.6217376   9.6914251
  34.0395864  46.3714019   8.4108312  63.8900089  72.4548769  49.6428394
  63.7712765  72.3298597  48.7012911  63.0343103  72.7488899  49.9552011
 100.7536243   9.0396894  59.5184565 100.3391050   9.1182054  58.6592484
 100.0310205   9.1191495  60.1411629  61.9705057  98.0216789  75.3424358
  61.0519695  98.2544041  75.4779291  62.4610758  98.7327099  75.7547522
  26.5889511  12.0680345  76.8792820  26.7084274  12.7824701  76.2535524
  26.4884529  12.5047506  77.7251053  43.4237179  85.2696315  13.4895570
  42.9565843  85.6287853  12.7352197  42.9893335  84.4349281  13.6650617
 107.8695272   5.6140150  47.9261398 107.1307110   6.1833013  47.7109766
 107.4661993   4.8230184  48.2837343  48.3871746  88.5540390  73.3751917
  49.3157578  88.3500957  73.4864044  48.3009100  88.7804413  72.4491644
  56.0307932  73.0519533  78.0572128  56.5734768  73.0150032  77.2695827
  56.6392088  72.8788614  78.7756157  82.1558380  91.8251324  70.5406761
  81.9663811  91.6620541  69.6166945  82.1686745  90.9551716  70.9397125
  82.5445938  83.6848736  66.7646408  81.6065884  83.5647964  66.9128418
  82.6356602  84.6121788  66.5454292  17.6574787  56.0257808   4.7898061
  18.3192762  56.3286296   5.4115255  17.0075497  56.7282478   4.7706945
  18.6621914   0.4831518  72.7955198  18.1561813  -0.2863871  72.5347805
  19.4162426   0.1262392  73.2648277  22.9219112  14.0863050  73.3434820
  23.0442486  13.1370939  73.3272219  22.8493939  14.3025602  74.2731094
  38.1056857  81.8745995  58.0868530  37.3342609  81.5970325  58.5809135
  37.8581333  81.7562675  57.1698189  95.6708431  88.8458157  74.6170235
  94.7865009  89.1804790  74.7658825  95.7475281  88.0991840  75.2110672
  97.9342674  19.0167440  43.3105612  97.2011541  19.3045438  43.8545704
  98.5894846  18.7071241  43.9359140   8.2229576   8.2449354  60.3364325
   8.3127461   8.3811868  59.3932438   8.4081135   9.1017545  60.7208967
 100.6028817  43.6553375  13.5203226 100.7047269  44.5627490  13.2331426
 101.2747476  43.5399429  14.1922720  54.9611807  96.8871689  39.2463374
  55.5722475  96.2526989  39.6208668  54.9889755  97.6307297  39.8484826
  49.7392925  46.3388721  23.2114084  48.9439377  46.6187564  22.7582986
  50.2222809  45.8335773  22.5574739  67.4879313  91.9560719  50.1594687
  67.5513792  92.1452618  49.2232990  66.6270208  92.2887325  50.4132414
  11.4881764  25.4704870  74.2999887  11.8720684  25.1492895  73.4840965
  10.6543598  25.8592142  74.0356159  88.4339021   6.0008539  67.6649570
  88.4116434   5.5229486  66.8358994  88.0323862   6.8464101  67.4648523
  66.3732599   1.9486726  56.0062218  67.0235275   1.3093198  56.2971020
  66.1833166   1.7022336  55.1010036  29.0996800  16.6264547  68.1041670
  29.6789799  15.9001935  67.8735399  28.2180271  16.2593473  68.0396748
  97.7784729  95.4375553  43.5377741  97.3919201  95.0940323  42.7322865
  98.5656166  94.9092007  43.6699820  61.1372519 100.6920624  44.7520208
  60.2040291 100.8210468  44.9214077  61.2926579 101.1347389  43.9176846
  19.4035873  36.6123689  73.0148125  18.8611088  36.3163961  73.7458086
  19.2378006  37.5534643  72.9591942  33.5032997  11.2429536  54.1318512
  33.7515221  11.6868700  53.3209562  33.6492977  11.8956674  54.8165941
  91.6531729   0.3774274  86.3373566  92.2512316  -0.3699099  86.3306522
  90.8285211   0.0212968  86.6680336  13.9239630  65.8190433   5.1421411
  13.3783134  66.3152019   4.5319612  13.3675083  65.6894771   5.9101255
  12.2056351   9.4585527  58.4757805  11.4360104  10.0101388  58.6159754
  12.7758656   9.6492494  59.2205667  72.3188447  17.5676645  55.5263376
  71.4063309  17.5111307  55.2428722  72.4316596  18.4809507  55.7898140
  65.3454208  88.6153221  58.0668926  65.9754562  89.1440296  57.5772476
  64.8006248  88.2075024  57.3937511 108.5466360  26.2404073  61.1892414
 108.4018825  25.4413808  60.6824541 109.1729664  25.9844316  61.8663073
 104.3789768  87.5234032  80.2773190 104.7179508  86.8916035  80.9114742
 104.8579597  88.3308029  80.4641724  57.5583649  76.7360973  85.3464699
  58.2047176  76.1702728  85.7687283  56.9168711  76.1308527  84.9744415
  95.6145452  48.4530653  65.7104921  95.6469272  49.0838636  64.9912739
  94.9089121  48.7691892  66.2747431  97.2415184  31.8812383  87.1647644
  97.1108793  32.0053304  88.1048584  97.8335832  32.5888265  86.9097710
  99.5730470  46.4449037  59.9227428  99.5389436  47.1962560  60.5148029
  99.8458647  45.7145608  60.4780769  11.1021004  23.7231077  80.9336948
  11.5531120  23.9241231  81.7537022  10.6889973  24.5481695  80.6790638
  15.6755409  37.5750268  72.4657488  15.3097782  38.4590066  72.4977922
  15.0048218  37.0235551  72.8685474 102.6762676  93.7080669  43.6464739
 103.1986141  93.2166386  43.0125284 102.5899887  93.1174946  44.3948221
  81.0061191   2.5293745  79.4620419  80.1493429   2.7733434  79.8122549
  80.8073829   2.0124544  78.6813211  38.5702642  62.3756877   4.0531595
  37.7921423  61.8356887   4.1915758  39.2412885  61.7585460   3.7614401
 105.4426979  41.0993207  66.7623281 106.3746523  41.0691942  66.5460300
 105.0361799  40.4791177  66.1570787  30.8602867  24.7668279  65.7497835
  31.2149677  24.9370588  66.6224003  31.2615833  23.9389909  65.4854393
  89.5167732  87.6402950  70.5085659  88.7503052  87.2096157  70.8870935
  90.0948238  87.7996540  71.2546873   2.6208124  23.2922662  53.2653141
   3.1105099  23.0541528  52.4780846   1.8099270  22.7872480  53.2048702
 105.9327053  28.1176485  74.5675516 105.8143591  27.1974004  74.3322420
 105.0434564  28.4493841  74.6917295  39.3392396  87.3079491  64.1147757
  39.4481778  87.0116901  65.0184298  39.6028924  86.5569401  63.5830736
  30.0198770  72.1613455  58.8535547  30.2622604  71.3949585  59.3732977
  30.8557510  72.5438786  58.5867023  69.8064566  82.6621628  58.4933424
  70.7276154  82.8792000  58.3498287  69.5568943  82.1544838  57.7211952
  81.7225361 101.8936253  26.4938331  82.2641373 102.6827431  26.4800358
  82.3251724 101.1855030  26.2666249  54.9463352  26.1652080  27.5565584
  54.0112766  26.3588706  27.4902399  55.3380474  26.6166488  26.8089063
  57.8056479  72.0064497  76.2317705  58.5748482  72.4161625  75.8359194
  57.6482725  71.2272215  75.6986046  54.6528992  64.8278800   3.3771951
  54.2887672  64.9638072   4.2519243  53.8925918  64.8451129   2.7959306
  49.7473679  35.9132875  71.3167334  48.8458405  36.0530389  71.0269976
  50.0083695  35.0921262  70.8998299 107.1129249  12.8045763  35.9492707
 107.0246004  13.3554853  36.7270422 106.5272735  13.2032598  35.3056073
  73.9845514 100.9253120  73.5230207  74.6845818 101.5709209  73.6198568
  73.5571337 100.9052277  74.3792582  96.0035896  56.2182951  39.2332840
  96.4222813  56.9888783  38.8497114  96.4197063  55.4762888  38.7945223
  66.4205313  72.0170069  50.2932930  66.8029070  71.4486599  49.6247101
  65.4910803  72.0595312  50.0684738  12.6896916  45.1686681  83.8463211
  12.7211247  44.6748365  83.0269432  12.2572765  44.5795835  84.4645596
  83.0267414  94.0136329  20.3903635  83.6140713  94.6617404  20.0014932
  83.5978016  93.2809821  20.6213529   4.5802174   8.0374444  67.3194742
   4.8409519   7.7153123  66.4566422   3.6283360   7.9378522  67.3347187
  74.4521046  98.6497593  46.2576246  74.4386721  97.9034805  46.8568897
  75.1175785  98.4232807  45.6079388 103.4969972  38.4434617  76.4617062
 103.8064646  37.7081502  76.9906473 104.1061615  39.1545595  76.6604137
  54.5719385  86.2135029  62.9607487  54.7254801  86.0310173  62.0337296
  53.6240959  86.3285637  63.0284166  44.5645485  11.9491876  41.2217569
  45.1563320  12.6865877  41.0725498  44.8814354  11.2647260  40.6324053
  10.1966438  11.7425645  18.7768531  10.7492695  11.3976491  18.0755162
  10.5576286  12.6095880  18.9617848  86.3651180 102.0563126  75.5813360
  87.1744537 102.3808575  75.1865339  85.8811951 102.8469467  75.8199501
  61.5902184  31.5834630  74.8394537  62.1662925  31.1351312  74.2202902
  61.2605046  30.8869756  75.4072809 107.5643610   9.0033830  75.5888224
 107.5096868   8.6809362  74.6892262 108.3161854   9.5958246  75.5856228
  34.1901239  54.4353858  25.3973920  34.7627100  53.8094894  24.9539621
  33.9927229  55.0933544  24.7308023  26.5985998  57.2190086  28.0431135
  27.1966394  57.8612033  27.6607854  26.3866314  56.6288654  27.3199041
  14.8494301  13.1351961  48.7442493  15.6221733  12.6051248  48.9394951
  14.6131954  13.5321439  49.5826197  16.5478096  21.4988340  49.0198231
  17.1015606  22.0650400  48.4822273  16.9946919  20.6523622  49.0150642
 107.6412843  12.0660318  48.4227085 107.3079418  12.8683008  48.8245440
 107.0535635  11.9058908  47.6843500  59.7865948  83.1117240  14.1713674
  60.5407986  83.2143966  14.7517641  59.0457424  83.4398071  14.6810110
  30.0717052  66.0853568  14.1398294  29.9591430  65.2705470  13.6502893
  29.3033251  66.1310378  14.7088010  68.5580334  47.8661624   4.2577417
  68.3121284  48.0318538   5.1678617  68.8003429  46.9403163   4.2398603
  22.6346836  44.7539152  57.2917700  23.3597527  45.1214612  57.7971458
  23.0001698  43.9682020  56.8851948  98.7001203  20.9667886  50.4707146
  98.4214615  20.6336320  49.6177292  97.8870796  21.0676015  50.9657240
  93.6814785  97.0064831  61.3095713  93.2266140  97.1880341  62.1319866
  93.6974621  96.0512352  61.2505198  22.9691776  54.7786704   1.7109258
  23.1092247  54.2769519   0.9078748  23.6357817  54.4533340   2.3159273
  98.5400890  39.0668214  57.2536755  98.2237505  39.3628038  56.4001179
  98.3587478  38.1270040  57.2635889   0.8177410  80.8459854  88.6949539
   1.3818585  81.0122108  89.4501781   1.3545262  81.0822201  87.9384518
  31.2792835  26.2069524  48.9127922  31.2309704  25.2532972  48.9794588
  30.4904327  26.4535631  48.4299517  98.9373493  78.6208725  55.0161886
  99.3526554  79.4731188  55.1481724  98.1182957  78.8211632  54.5631218
  99.1025518   0.7750810  13.4079468  99.1062616   0.6790174  14.3603075
  98.2517599   0.4310716  13.1358314  97.5611089   9.3342222  85.4168797
  97.6696037   9.0887369  86.3356876  97.5576805   8.5012926  84.9452305
  77.0635223  98.2666683  86.3053608  76.7014837  98.0060863  87.1522713
  77.7472353  98.9005756  86.5219784 103.1381798  72.7429724  46.8673754
 103.6031723  71.9174480  47.0034647 103.7555504  73.4157705  47.1544933
  73.0888542  42.6361362   4.5606287  73.5706600  42.4862281   3.7472303
  72.4025616  43.2589427   4.3211801  65.5084858  11.6939844  80.0487137
  65.8344898  12.5110353  79.6713734  64.5720539  11.6954339  79.8503923
  93.4328388   3.4060586  74.2008734  93.9819740   3.3467115  73.4191036
  93.5211443   4.3151678  74.4871473  11.9578896  38.8905157  28.5689902
  12.6931534  39.3436635  28.1563473  11.1986504  39.4404424  28.3756399
  76.0275173  81.3610649  34.3775773  75.6193542  82.2130394  34.2233968
  76.0732079  81.2863636  35.3307629  71.7095089  89.7781467  52.6670313
  71.2921810  89.2701054  51.9713545  72.4652290  90.1866913  52.2448826
  83.3724092   6.7475618  84.9555206  83.1400322   5.9128107  84.5487976
  83.0042433   7.4097265  84.3705177  72.7482128 101.8818474  69.4896078
  72.1275854 102.5665760  69.2402172  73.5987854 102.2129631  69.2013168
  86.4781450  15.1580823  83.4235287  86.4624428  14.8861421  84.3411446
  85.7623218  14.6698583  83.0167484 103.7063383  16.1334814  73.3931875
 103.8821768  16.8494047  72.7826309 103.7680506  15.3420080  72.8584003
  58.4902430  93.2392406  85.5660534  57.7707338  93.6295986  85.0699043
  59.0952349  92.9175472  84.8976803  53.0807098  72.8350631  19.7475774
  53.3836254  71.9770042  20.0445802  53.7694248  73.1411258  19.1574724
  28.2704910  75.5029003   6.3760145  27.4993118  75.6278221   5.8229215
  28.2027944  74.5979587   6.6805227  23.9280065  70.9514705  10.2578981
  23.6979898  71.3292877  11.1067636  23.5280832  70.0818626  10.2665002
  35.9636903  92.9405975  88.8219166  36.7395544  93.3857632  88.4811783
  36.1979294  92.0125198  88.8156128  96.8305016  59.7884083  71.6984320
  96.6143513  60.7147694  71.5918493  96.4512157  59.5497370  72.5442505
  70.2278280  96.1799240  85.6201172  70.6736326  96.8704414  85.1295376
  69.9243689  96.6113186  86.4188957  78.6751223  70.5815172  85.6966305
  78.5846186  71.4270163  86.1361408  78.5115528  69.9356174  86.3838673
  92.6484417   6.7699922  44.2450428  92.6328682   5.9353841  44.7134638
  92.9359316   6.5429891  43.3607054  34.5246277  34.0717805  71.0551834
  34.3785534  33.1849111  70.7260132  33.9623699  34.6243967  70.5123091
  17.0725880  35.1355375  66.2875938  16.9774399  34.3039049  65.8233023
  17.1163521  35.7935441  65.5937958  70.9702396  94.6813869  75.8762646
  71.3021994  94.4597149  76.7462635  70.9770298  93.8518047  75.3987837
  48.4552845  88.1732170   7.9900415  48.8539490  87.8651801   7.1761568
  49.0102371  88.9020149   8.2677229  96.7998574  76.1640350  17.0377214
  97.0339057  76.0929099  17.9631384  96.7330120  77.1056548  16.8792493
  88.7086080   9.0310873  34.1477752  88.0181144   8.5088552  34.5561028
  89.0956091   8.4478677  33.4948421  61.4946651  74.1322947  61.0494518
  60.8351183  73.9046049  60.3941774  60.9927511  74.5006180  61.7765331
   5.7385073  12.4105943  47.2731972   5.4312286  11.5346826  47.5068569
   5.0457916  12.7669729  46.7169952  87.0219517  97.3611641  72.3337650
  86.0947514  97.1431351  72.4286318  87.1120262  98.2143211  72.7583122
  93.3024788  70.2404308  26.8119836  94.2112923  70.0194216  26.6084123
  92.8079414  69.9501085  26.0455775 104.5112871  25.0775732  39.3037724
 105.0199054  25.8032907  38.9420104 104.9049734  24.2942346  38.9195609
  64.4017649 102.4546337  77.4065065  64.5698166 102.4716187  76.4643240
  65.2720737 102.4491119  77.8049660  89.7915004  18.2004751  50.4888439
  90.2506899  17.9721464  51.2970829  89.0901636  18.7882532  50.7696915
  86.3433431   8.7108339  86.2226200  85.8600401   9.3746675  85.7306957
  86.4689993   9.0987123  87.0886421 100.5428888  18.9935684  64.0444040
 100.5230589  18.4465158  63.2591820  99.7773118  19.5618665  63.9597797
  36.9247055  14.9155927  56.7356968  37.4179435  14.5449197  57.4675131
  37.2521973  14.4502556  55.9659958   0.7866503  82.4798070  59.8071146
   1.2974716  83.2615267  60.0173712   1.3804961  81.7505442  59.9853134
  34.6902704   1.5703622  62.8728294  34.6955919   2.0621790  63.6940002
  33.7641311   1.5012042  62.6410675  30.2335954  32.7524352  39.6592903
  30.7498026  33.4488845  39.2534328  30.7009196  32.5490260  40.4695129
  93.4849801  74.6998035  68.1021500  94.1328397  75.2667891  68.5205173
  93.9472642  74.3176924  67.3561478  17.5893033  10.1333499   7.5906599
  17.0663798   9.3606371   7.8044266  18.4950078   9.8543060   7.7250695
   6.1226845  66.5226364  51.9548416   6.5101349  65.7449865  51.5531301
   6.8205863  67.1773195  51.9313145  10.0810076  93.4685378  63.2129669
   9.6412207  94.2530881  63.5405397  10.5742861  93.1391530  63.9642429
  97.4330271  37.7797413  48.0487299  97.4432052  38.6430979  47.6355171
  97.5105942  37.1643496  47.3196840  31.2044835   0.0698474  38.8332343
  30.9401345   0.3479283  37.9562950  30.4575348   0.2903011  39.3897390
  84.6947982  70.5982482  61.7335939  83.7496736  70.6895863  61.6126442
  85.0525346  70.6144582  60.8458996  27.9161572  36.7110014  22.0958805
  28.1620073  37.4933124  22.5896192  28.6211371  36.5988684  21.4581800
  40.1403370  93.0563824  42.3619890  39.9554124  93.9932566  42.4275684
  40.6600037  92.9701935  41.5627670  86.3455070  36.3216877  16.3604391
  85.8680834  36.4311028  17.1828294  85.6833876  36.0230684  15.7370150
   8.0954427  11.7528760  76.0908699   8.9113766  12.1870041  76.3398981
   7.4767983  12.4692571  75.9483576  51.6865683   7.3470914  17.7663803
  51.8177080   7.5034732  18.7015700  51.0651827   8.0228579  17.4953663
  23.4204445  46.5227225   0.7173784  22.5012741  46.7307153   0.5497511
  23.3918247  45.7702139   1.3082559  26.9599056  43.3058596  50.0843334
  26.0188699  43.1962299  50.2209473  27.2186995  43.9707756  50.7224131
  94.1456571 101.8511246  47.9775333  93.6589184 101.0830345  47.6786089
  94.0874662 101.8149177  48.9322758 100.3523269  79.7501265  13.1285954
 100.2774968  79.2592465  12.3102617  99.7930684  80.5162894  13.0003047
   6.9418883  18.3685875  42.7965403   6.4982498  17.5355220  42.6371098
   7.1052969  18.3762801  43.7396574  31.3331676  57.3505592  69.4698858
  31.6230154  57.4717236  68.5657072  31.7048717  58.0954027  69.9424076
  80.1400163  80.3549277  53.2602310  80.6412824  80.9610640  52.7147388
  79.2824700  80.7698308  53.3535194 100.3537693  66.7093383  29.6366334
 100.1321282  66.5849673  28.7137914 100.9267583  65.9719550  29.8468232
  76.5330791  92.0927512  60.3430033  76.4449086  91.6985213  61.2107801
  76.1769258  92.9755055  60.4436588  52.8120327   1.1836230  29.7688174
  52.4096060   0.5474284  29.1775966  53.1257725   1.8807930  29.1928363
  41.0493469  56.2633991  72.0490503  41.4219761  56.7437649  71.3097095
  41.4684772  55.4036474  72.0117807   2.1731864  18.1809425  58.4352970
   2.8972197  17.8062248  58.9368916   1.8075451  17.4397969  57.9523468
  14.6193959  90.7736968  77.7332497  14.2071701  91.3358437  78.3892107
  15.5210568  91.0903906  77.6789761  74.2169142  13.7063718  61.1644268
  74.9750090  14.2907238  61.1567831  73.5184336  14.2254090  61.5631199
 106.7300715  94.6641820  78.9969635 106.2650337  95.2142619  78.3665800
 107.4353161  94.2622780  78.4896803  46.6849421  58.0399778   4.3741472
  47.6165150  57.8356895   4.4558103  46.5928410  58.9033183   4.7771318
  11.4214337  31.7974138  42.5444984  11.3800597  32.6672983  42.1472263
  11.3900137  31.1935067  41.8025160  21.6498637  50.3624392  48.1002092
  21.4090300  49.6791983  47.4745798  21.2038636  51.1470985  47.7814245
  88.6800828  98.4014942  52.2984123  88.8379648  99.0723418  51.6341305
  89.5433237  98.2286205  52.6741266  59.6774292  14.6722507  70.3288460
  59.4065952  14.6265757  71.2457895  58.8643026  14.5728469  69.8336935
  61.6778183  16.5430248  66.3424110  62.1463919  17.2190690  65.8528900
  62.3683882  15.9918523  66.7105818  85.3184464  96.6430502  65.6160450
  85.7561626  96.1103015  66.2799835  85.6571057  97.5271874  65.7569122
  92.8115394  84.8048209  45.0039244  92.4123766  85.6255900  45.2924395
  92.2474649  84.1229366  45.3687334  20.5376363  12.4578047  41.2193537
  21.0182905  13.0398965  41.8078899  21.2046981  12.1137393  40.6253195
  57.8906631  35.8249831  77.4260664  58.7100172  36.2286305  77.7123499
  57.6475954  35.2409267  78.1444168  66.5445461 100.9224521  71.3342333
  67.2158297 101.1620957  70.6953430  67.0163920 100.8576245  72.1645308
  63.9067030   9.5612812  55.8736086  64.6378469   9.0202600  55.5753565
  63.8324881  10.2493107  55.2122927  17.3228443  34.0043116  56.0586643
  17.4370587  34.8902702  55.7147646  16.9140244  34.1306067  56.9149065
  13.5250187  42.8686905  25.7905960  12.5891674  43.0697012  25.7878542
  13.9298594  43.6067533  25.3349733  10.2594078  32.6355147  81.5801430
  10.3317988  31.7896128  82.0222282  11.1085737  32.7572846  81.1555004
  94.0242591  80.2786171  62.2234964  93.6228266  80.6330549  63.0168772
  94.8775663  80.7094585  62.1738052  69.6575307 100.6015073  30.7441688
  70.4735903 100.1323490  30.5704761  69.6679127 100.7586831  31.6883183
  52.5626278  12.7035987  36.4581084  51.6950178  12.2992671  36.4569783
  52.4410200  13.5302532  36.9251037  64.7665215  49.8042345  17.8737164
  64.0676880  49.1655064  17.7326763  64.3081903  50.6208515  18.0719638
   8.3380592  40.5885077  20.0299072   7.6348162  40.9734774  19.5069528
   9.1425711  40.9129238  19.6252489  28.8851953  21.5451574  26.9993925
  29.0901494  22.4599409  26.8060064  29.6249843  21.2397957  27.5244665
  40.5335140   5.5736095  77.2175550  41.4625835   5.3455615  77.2501230
  40.0974512   4.8713380  77.7001476  93.0832376 101.5903621  87.4694920
  93.4855881 101.0731763  86.7717361  92.2822120 101.9386677  87.0779896
  85.2745225 102.4493623  28.1090331  86.0514500 102.8034370  28.5417533
  85.0493660 101.6717452  28.6197662  80.9084030  88.0887972  31.5403867
  80.2706792  88.6809277  31.1417365  81.5404710  87.9130827  30.8433580
  54.2349768  35.9239745  35.2881193  54.1255999  36.3898873  34.4591475
  54.9686384  36.3654423  35.7159996  93.2369221   6.6394550  57.2513247
  93.5774912   7.0110667  58.0650520  93.6806608   7.1303385  56.5596867
  19.6254015  32.6055384  57.2858095  19.2557144  33.2438827  56.6758251
  20.1481318  33.1293106  57.8929710  85.9034219  80.2782189  33.7255478
  86.4418414  81.0273658  33.9807248  86.0082545  80.2203261  32.7758694
  52.9233885   0.3104243  69.1084003  53.7177277   0.1690103  69.6234322
  53.1496096   0.0040332  68.2302332  43.1649065  17.4436808  47.6741266
  43.8767481  17.9767978  47.3201466  43.5036659  17.1139610  48.5064459
  29.9373890  71.2149083  45.0750113  29.0264632  70.9212815  45.0600433
  29.9624945  71.8828880  45.7601404  22.4942636   6.7663294  39.5663857
  23.4012032   6.4660561  39.5069575  21.9915700   5.9740484  39.7556472
 102.4476559  39.3927932  15.3031588 101.6784502  39.8710275  15.6127489
 102.5995625  38.7248921  15.9717846  91.5036478  95.0206654  75.1042223
  91.5167048  95.6111949  74.3510056  90.8022132  94.3992197  74.9092197
  16.4339101  19.3708837  25.4297161  16.1688066  19.2985117  26.3466215
  16.9776714  18.5982895  25.2759147   0.5456040  30.2514482  51.0529375
   0.3618903  29.3489838  50.7920885  -0.1538169  30.4698420  51.6688490
  39.0313911  28.3600950  13.3791327  38.4103751  27.6398444  13.4878182
  38.8014531  28.9809728  14.0704143  39.9687743   5.6809896  66.0762739
  39.4866848   6.1585033  65.4011393  39.2941976   5.3817230  66.6858768
   2.2329546  91.8965351  36.2886047   2.5800897  92.7454244  36.5626788
   2.1748973  91.9580387  35.3351498  18.0128479  30.3090668  57.3320007
  18.3832574  31.1910605  57.2985792  18.7741280  29.7315454  57.3881531
  44.1058731  29.9057579  27.4415159  43.6661720  30.3490376  26.7159820
  43.8286877  30.3883171  28.2203197 104.6719618   1.7425144  77.4902725
 104.6316142   2.6947945  77.4021435 105.2903257   1.5941755  78.2057095
  93.1568922  15.7785487  20.9580398  93.9098800  16.3394523  20.7719517
  93.3821000  14.9363530  20.5627918   5.4654217   0.0083342  43.6911392
   5.8140665   0.8152144  43.3121634   4.7160268  -0.2118701  43.1378317
   0.9733915  18.0256307  85.4649258   1.0851576  17.1154678  85.1904392
   0.8644427  17.9777098  86.4146996  76.9009977  91.2395417  35.2479386
  76.7476725  90.8358335  36.1021900  77.5319254  91.9378149  35.4227996
 104.5457997  99.9631338  88.7835121 104.9238529 100.7784610  88.4540462
 103.6041775 100.1319172  88.8165665  19.4891679  36.8525529  12.0659292
  19.5109367  37.6953316  12.5192308  18.5766304  36.7492557  11.7960465
  47.5771904  24.5872879  44.3825388  46.7889881  24.6920037  43.8496208
  48.2999611  24.7383428  43.7734222  97.2640099  88.5338162  37.1116209
  98.0116000  88.9422988  36.6751814  97.5636878  88.3817100  38.0078864
  21.0270929  59.2809963  63.8304424  21.0707116  58.9211798  64.7163677
  21.2895155  60.1960754  63.9303970   6.6233563   2.2560552  43.3448219
   7.5551194   2.3587184  43.1511450   6.3774270   3.0731517  43.7785292
  86.0005894  80.1299368  84.9323273  85.3131750  80.0768410  84.2683411
  86.3959505  79.2582213  84.9380016  74.9417292  84.0908872  40.2583933
  74.5338269  84.2920207  41.1006451  74.4466270  83.3425294  39.9251270
  89.5906546 101.6698759  71.0368395  89.0904810 102.4400728  71.3067532
  89.6842291 101.7651513  70.0889969  22.0626950  30.1416087  66.6118956
  22.1813703  30.7828236  67.3126030  22.7041125  29.4571328  66.8024397
  60.5114340  60.1408002   1.7220552  59.7595023  60.1389989   1.1297567
  60.6147765  61.0581347   1.9751413  24.0255380   1.9318131  84.8161507
  23.5580134   1.7919029  83.9927006  24.0496874   1.0679094  85.2276421
  23.2649112  33.2644725  61.9820166  22.8833055  32.6980400  61.3113737
  23.9390397  32.7253175  62.3956537  45.8965158  17.9302919  55.0899887
  46.7566490  18.3470058  55.0375032  46.0863781  17.0130777  55.2872276
  41.8909216  19.3220866  27.5247431  41.6720629  18.7074387  26.8243575
  41.5376186  18.9178634  28.3172178  21.7289758   5.1687545  65.5242968
  21.2759757   5.5095786  66.2955713  21.2053990   4.4148889  65.2526617
   8.5499293  18.1208563  71.9711781   8.0765992  17.3550344  71.6460466
   7.9383290  18.8478494  71.8543053  37.4399114   5.8360881  79.7221661
  36.7322397   5.2249861  79.5172501  38.1896472   5.2758008  79.9226761
  12.4046971  94.5781266  55.9566021  11.9034649  95.3172885  55.6121635
  12.0255972  94.4131874  56.8199205  73.9094283  96.9343047  62.2905111
  73.2582311  97.2336709  62.9249859  74.6704861  96.6991018  62.8212690
  31.3317251  44.5276737  60.3442144  32.1625781  44.7548151  60.7617331
  31.5766048  43.9471340  59.6236324  47.0575442  78.7472235  60.0487041
  46.3029900  79.3333518  59.9909782  47.1733799  78.4174406  59.1576052
 105.5131103  24.8249793  31.6845369 104.5746545  24.9939990  31.7679930
 105.5867721  24.2558122  30.9184718 104.6667423  86.2409281  53.8051414
 105.0962987  85.6831359  53.1566143 105.3826108  86.5742599  54.3461132
  31.3670802  11.3789034  79.8957109  30.5222130  11.6723156  79.5546198
  31.8387461  11.0608053  79.1259241   7.0756543  31.0696745  53.6396694
   6.1604261  31.2303376  53.8694000   7.1324849  30.1202369  53.5321188
  33.7906098  38.3012342  74.4945002  33.6606455  37.6534843  73.8018513
  33.6708164  37.8100681  75.3072977  25.9911013  10.3941357  44.9390697
  26.1429167   9.9505734  45.7735968  25.8766913   9.6838832  44.3076563
  10.6582820  61.9892693  62.1017504   9.7239518  61.8006516  62.1893930
  10.7068336  62.6379633  61.3995600  91.5206530  79.6578323  85.1684475
  91.8200293  78.7848507  85.4224396  91.7834701  80.2221357  85.8955765
  60.9021806  58.8596090  33.8467081  61.7225431  58.3931276  33.6866148
  61.0621499  59.7447517  33.5193498  64.4702291  25.4371023  38.7314510
  63.8080931  25.4124093  38.0406547  64.1284418  26.0644555  39.3685102
  16.2313664  20.9692812  75.4201221  15.8130658  21.6981125  75.8784485
  15.7990682  20.9434199  74.5664930  99.3470159  81.4780962  38.9134359
  99.1788306  81.9330822  39.7386241  99.1402855  80.5620085  39.0985751
  14.3219399  16.7148161  41.9000196  14.5389903  17.0465386  42.7712727
  13.5662603  16.1447537  42.0421839  23.4217430  77.4472724  20.7442069
  23.2750632  76.5187489  20.5637598  24.2022682  77.4632465  21.2980628
  96.7177954 101.2828893  55.6096506  96.0785570 101.0307292  56.2759972
  97.0668759 102.1194760  55.9170580  29.0640186  30.6532433   0.3377493
  28.9819978  31.5133324  -0.0742571  28.2104813  30.2411821   0.2039201
  16.4862978  16.7360139  82.6943207  17.3721647  16.4936638  82.9640198
  16.0085440  15.9069681  82.6685333  25.4128623   3.2157367  43.6523008
  25.2192140   2.7953181  42.8144550  24.6164083   3.0967373  44.1697264
  59.8933840   6.3478017  48.0757999  59.8193359   5.6715846  48.7492085
  59.0148544   6.4096481  47.7008438 100.3531415  25.4246759  63.4855700
  99.9198378  25.3903818  62.6327467 100.9427489  26.1762595  63.4246016
 106.9389614  16.6351795  10.8891642 107.3287479  15.7639825  10.9620667
 106.1966009  16.5166104  10.2966487  45.7311289  90.9293297   3.4136541
  46.5293144  90.8978274   2.8862627  45.9856455  90.5527547   4.2560632
  97.3895837   4.7011176  58.7226200  97.5551106   5.0230271  57.8364992
  97.4234356   3.7479699  58.6414099 100.4733999  56.2161636  38.6793542
 101.1972828  56.7841005  38.9433169 100.0774939  55.9338951  39.5038652
  38.3165050  25.5506945  56.3710165  37.6515388  25.2134490  55.7707548
  37.8466225  26.1770606  56.9215727  88.2527293  15.6044364  35.1212049
  87.6660169  16.0001898  34.4767046  88.7199629  16.3455987  35.5066943
  35.3061795  22.3297524  76.6052389  35.9971857  22.3869658  77.2651386
  34.7646999  21.5930796  76.8886900  28.8661218  10.5285454  67.4495935
  29.4366097  10.5603731  68.2175541  28.9099860   9.6184766  67.1561956
  77.2153585  90.4009270  75.3441811  76.9044068  91.0591435  75.9657049
  77.2754838  89.5956801  75.8581781  77.5997486  86.0074650  37.0124531
  76.9695463  86.4026820  37.6148486  78.3913060  85.8892571  37.5375199
   4.1762806  99.1643574  40.7961273   3.3058645  98.8599168  41.0528755
   4.4922138  98.4987794  40.1850414   4.1677159  21.2863708  71.7765713
   4.8586962  20.6490183  71.9570112   3.3593845  20.7739115  71.7913246
   1.0967947  77.7008211  19.9921679   1.0798908  78.5493361  19.5494866
   1.3851358  77.9009735  20.8826900  89.9103309  17.7572131  46.8388271
  89.5041217  18.5116374  46.4121294  89.2532588  17.0640016  46.7760086
  20.0328588  22.7897406  28.6867929  19.5688915  23.4490371  29.2028284
  19.6488762  21.9569874  28.9612198  42.0131016  40.5042315  26.2210178
  41.6171646  41.2436533  25.7598042  42.0751238  39.8149347  25.5597639
  86.4556935  96.8679469  45.4567814  86.4496996  96.9314366  46.4118528
  87.3830595  96.8923973  45.2209282  69.1535234  31.5310836  35.6480002
  68.6336756  32.3345685  35.6681466  69.2937899  31.3598514  34.7167444
  15.3943777  47.7660894  18.3831275  14.6357131  48.3237982  18.5552335
  15.8724296  48.2195759  17.6888311   2.8257290   3.2729250   9.7590381
   2.3028769   3.1474072  10.5509365   2.3953438   3.9940178   9.2996633
 100.6176486  95.8691912  72.7045679  99.8749556  96.4618545  72.5888491
 100.7104459  95.4332565  71.8574667  32.5959206  14.7994947  49.1654301
  32.6226640  14.7646439  50.1216221  31.6643286  14.7547650  48.9500904
  31.5218019  16.6497791  81.3006306  32.3658395  16.7436934  80.8590317
  30.9108639  17.1484900  80.7581615   1.4821509  22.7558279  70.1006985
   2.0023394  23.5043430  69.8085308   2.0075634  21.9917440  69.8633146
  67.7994965  63.0322519   9.7807653  67.5160550  63.9368811   9.9132021
  67.0427178  62.5044086  10.0355203  39.3041468  15.9044397  79.8302317
  40.0018883  16.0848153  79.2002678  39.2319489  16.7085624  80.3444386
 100.0212135  94.5625817  53.6017036  99.5896687  94.1489266  54.3492985
 100.3540769  93.8307404  53.0822420  19.6826112  16.4985430  51.3124800
  19.5338678  15.7134986  50.7854033  19.4153738  17.2219241  50.7454395
   9.5112532   4.7594237  53.0220795   9.6152830   5.6059152  52.5874949
  10.3495228   4.6100739  53.4593773 106.7996591  18.4209013  47.1640444
 107.6877443  18.0780923  47.0639515 106.8429415  19.3068504  46.8042469
  53.9242457  37.0271674  13.9866598  53.1024550  37.2637871  13.5566576
  53.6686038  36.4005115  14.6635492  35.9676027   6.7422104  31.7882490
  36.3747096   6.8163002  32.6513886  36.2912345   7.5022912  31.3047504
  18.1423628  38.9281106  71.8567181  17.2857928  38.5757017  72.0982313
  17.9828930  39.4102049  71.0453129  20.6931378  89.9938845  48.4632492
  19.7975279  89.8960935  48.1399059  21.2215496  89.4597351  47.8702068
 100.1663040  63.7329462   0.6033762 100.3894018  63.9847103  -0.2927630
 100.2259039  64.5473280   1.1028440  62.1243932 101.5604066  56.5831327
  61.9259539 102.2371501  55.9359312  61.3171937 101.0505491  56.6517305
 101.1926284 100.5549720  84.6348858 101.0646691  99.6082707  84.6950150
 100.8481803 100.8961148  85.4602432  20.8311510  19.6144462  53.5616493
  20.2342296  20.3626800  53.5695744  21.3226151  19.6914589  54.3794250
  29.9166036  14.1584623  49.1765976  29.5483017  13.8764429  48.3393097
  29.1559982  14.4114494  49.6997690  10.3606774  96.0343235  28.0147409
  10.6459738  95.5865376  27.2182965   9.8362137  96.7708670  27.7006173
  11.9268942  38.2084155  57.7718306  11.9097114  39.1285324  58.0351210
  11.0134411  37.9271913  57.8242588  30.0893211  12.2455728  74.8873425
  29.8653030  11.7583716  75.6802368  29.6845794  13.1040788  75.0113583
  43.7470007  26.9565606  56.7722464  44.0322638  26.9676185  57.6858807
  43.7439060  26.0296202  56.5334988  43.2109547  29.2961740  67.0474768
  42.4698925  28.8965249  66.5921354  42.8394938  29.6267438  67.8653812
  53.3063542  60.9692028  12.4838979  53.9391242  60.3553071  12.8566797
  53.5175000  60.9935543  11.5505941  23.8510656  28.6172915  10.4606402
  23.6047316  27.7265906  10.2112329  23.9620757  28.5779905  11.4105678
  98.1890621  94.3133556  26.7177224  98.2713284  93.3866434  26.4926243
  98.7787595  94.4322460  27.4622703  33.9532876  16.8613124  79.8775387
  34.1913056  16.3460290  79.1067839  34.6715522  17.4857903  79.9793053
  93.1014957  75.9316622  54.2739439  93.1265273  75.7351505  53.3374691
  93.9287963  75.5895030  54.6126699  79.1871866 101.1646294  58.2089138
  79.9894830 100.7240715  57.9288054  78.4816452 100.5946760  57.9029799
  37.9558253   5.0267535  69.5816565  37.8059864   5.3028685  70.4858351
  38.4588051   5.7423824  69.1929150  90.2643027  99.3858548  59.8286104
  89.9589410  98.9315178  59.0433931  91.2109830  99.4612124  59.7088242
  49.2856646  25.4846692  84.1610527  48.7645435  25.0371242  84.8276615
  50.0392103  24.9112153  84.0212059  30.1246954  92.2695159  71.8520975
  30.1562287  92.4096858  72.7984524  29.7022320  93.0562406  71.5073919
  17.0383787  18.7426364  78.6969662  17.1240556  18.7524557  77.7436590
  16.0945845  18.7056220  78.8522530  87.2354534  96.6956895  54.0830612
  86.9687071  96.0734289  53.4064007  87.7015712  97.3825782  53.6064577
 109.5457044  98.0889021  55.5219555 108.9000645  98.4814440  56.1095715
 109.0449824  97.4610912  55.0010300  20.4786183  71.8336259  65.6252337
  20.5489899  72.3349630  66.4376020  20.4310108  72.4975835  64.9373960
  17.4817610  21.9260740  59.6550512  17.1210659  22.2379947  58.8250923
  16.8625331  21.2581134  59.9493599   2.6894451  80.5914938  60.8877325
   3.1062843  79.7329818  60.9614611   2.1040512  80.6392156  61.6435575
   6.2818760  32.9762864  56.5170527   5.8114207  32.8888249  55.6880426
   6.8838340  32.2321796  56.5304995  98.0626526  87.7257322  88.7751865
  98.2379069  86.9765507  89.3446159  98.0905738  87.3647856  87.8890896
  14.7538878  92.3262667  65.2950525  15.6004978  91.9078754  65.1387310
  14.6859766  92.3806511  66.2482882   9.5871788  18.2258117  64.1852427
  10.5156946  18.0876803  63.9981318   9.1767621  18.2943988  63.3232164
  95.0327064  43.1501245  41.1764526  95.2302159  43.0266571  40.2480268
  95.0974334  42.2728395  41.5538263   1.3681147  13.5603285  63.5443926
   1.1024839  13.8427460  64.4195557   0.5656011  13.2205009  63.1485128
  89.1416194  87.6803934  54.2999649  88.6215868  88.4539341  54.5177555
  90.0306048  88.0149673  54.1816568   5.7157981  12.8069782  24.3719745
   4.8006296  12.7034128  24.6326900   6.1921972  12.8903449  25.1980042
  74.3606257  90.0921642  71.2081289  74.8001232  90.9284591  71.0542297
  75.0388419  89.5307099  71.5836573   7.8756946  30.8892369  56.4071560
   8.7904477  30.9032059  56.6886950   7.9085588  31.1056566  55.4753256
  16.5635192  43.4917545  65.9044456  17.1067739  44.0557766  65.3539991
  16.9337463  43.5852861  66.7821789  31.3461733  15.5596507  19.5615458
  31.8652630  14.7554266  19.5620561  31.3975859  15.8784783  20.4626226
  90.8770027  76.0520565  44.0097046  90.2805569  76.6732465  43.5918427
  90.4681935  75.1976215  43.8716841  14.5345891   9.8682982  27.6328874
  14.0871084  10.0399709  26.8043232  14.2362809  10.5668008  28.2154155
  52.1845388  31.5298986  56.2292671  51.4034414  31.9486761  56.5908480
  52.7474689  32.2584605  55.9674692 104.1073002  44.2056227  45.6039143
 104.8845364  44.6920347  45.8787537 103.5183645  44.8736334  45.2529860
  25.9672856  43.6895418  27.3958015  26.2971687  43.3166409  26.5782738
  25.0168848  43.7094450  27.2836542  16.1168885  24.2263341  31.0338759
  16.2404406  23.9755058  30.1184249  15.2117348  24.5345688  31.0776949
  40.9505224  26.3145566  87.4461937  41.6668701  26.6539383  87.9827595
  40.2747154  26.9907856  87.4934387  27.9892516  21.3345146  79.9945211
  27.1965909  21.7328787  79.6350384  27.8417563  21.3188624  80.9401608
 104.0261998  69.2136370  58.9238453 103.6192026  68.9746748  58.0910921
 103.3951678  69.8017155  59.3388081  43.5361004  60.1710081  86.4949703
  44.4745684  60.2675343  86.3331127  43.2700872  61.0106564  86.8697548
  50.3575550 102.1062067   4.0774019  50.4310130 102.3216846   5.0071294
  50.1865410 102.9453543   3.6498411  21.8133783   4.0389681  81.4808464
  21.2463450   4.7829717  81.6837406  21.6576886   3.8653347  80.5524921
  61.3464521  73.1669333   3.3927210  61.7789959  73.7253669   2.7467401
  60.5411457  72.8811839   2.9613741   4.2028162  31.8570518  70.3414154
   3.3683860  31.3948298  70.2619839   3.9690757  32.7838492  70.2899837
  22.7169967  16.2307644  71.5076971  22.4878073  15.6968725  72.2683954
  23.4313965  15.7530129  71.0862494  37.6843119  56.8775558  33.5344577
  37.5049710  56.5618277  32.6488042  37.6253295  57.8304482  33.4655643
   5.4689837  21.0409784  78.5306597   5.9535193  21.1962342  79.3414307
   5.4309511  21.8982100  78.1064653   5.0784719  25.3878593  22.5327349
   5.7282317  25.5417657  21.8469071   4.7793907  24.4910955  22.3824215
  20.1434541  26.9900894  52.9616499  20.4545903  26.9334841  53.8650990
  19.2309093  26.7042899  53.0042505  54.5427513  41.6287231  39.1892624
  54.5461607  41.3358974  40.1005650  55.3911161  42.0561886  39.0718722
 102.2962404  44.4739628  52.5609398 101.9089301  44.5522118  53.4327793
 103.0027963  45.1196861  52.5539064  39.1525149   3.2664466  26.1333656
  39.1702199   2.3647517  26.4540911  39.8778343   3.6961758  26.5866613
 100.0112052  33.6693501  61.5103722  99.9098749  33.8274884  60.5717802
 100.6389309  34.3320465  61.7985153  45.4840803  12.4694216  46.6794252
  44.8384476  12.1215773  46.0642910  46.3297462  12.2364235  46.2962866
 100.8558464  26.4400768  78.6779690 101.3530064  26.6198277  79.4759369
 100.0348663  26.9182491  78.7944508  70.6283236   1.1192844  55.2437210
  70.5999708   0.6358364  54.4180679  69.9818468   0.6832875  55.7988834
  58.7307882  32.5785112  44.7239971  59.3631792  32.3870039  44.0314388
  58.3986521  31.7207646  44.9889326  31.2169528  13.3996069  56.3757515
  30.9627080  14.2542660  56.7238188  31.9893789  13.5794163  55.8397865
  58.8741732   9.5162249  79.0124083  58.3929253   9.9019855  79.7444057
  59.5775223   9.0153903  79.4255638  36.9574523  14.4343472  34.3405175
  37.7448130  14.9542177  34.5018482  36.8805742  13.8708532  35.1104498
   3.8270134  16.9273174  62.4634457   4.0695038  17.8158998  62.7239275
   2.9095167  16.8435752  62.7230978   5.9579110  25.4779267  48.7480927
   5.9258866  24.9409771  47.9563284   5.0441599  25.7048368  48.9207268
 107.7891388 102.9760780  53.2774258 106.8602481 103.2015027  53.2266712
 107.7979484 102.0487054  53.5143518  41.3875961  23.1714463  61.0841417
  41.5445709  23.7831736  60.3648520  42.2537088  22.8231096  61.2956476
  58.0050373  12.6439118  49.2129326  58.7388849  13.2289505  49.4011545
  57.3719549  13.1944168  48.7520790  63.7852573  11.3580370  44.0168810
  64.3975496  10.6488752  44.2128897  63.7875366  11.9011426  44.8050833
   7.5688601  40.5193090  25.1120329   7.2345424  40.7605743  24.2481709
   7.4911755  41.3198185  25.6310558  53.3261919   5.5501521  64.1948175
  54.2618322   5.6369007  64.3772554  53.2860947   5.2483016  63.2873440
  14.2247820  28.0490112  42.6507187  14.2919910  27.8519273  43.5849953
  14.8063076  28.7982607  42.5215530  21.0574055   8.6911941  21.7331719
  20.3092003   9.2556363  21.9276643  21.7430425   8.9876354  22.3317170
   8.6830860  42.5606155  59.2758512   8.1137162  41.8491411  59.5688581
   8.3198380  42.8255272  58.4308052  46.7652845  16.5918744  48.7965870
  47.6691103  16.8919289  48.7001467  46.6466713  16.4885724  49.7407722
  81.7922308  88.0810045  79.1785717  82.4178930  87.8040575  78.5091829
  82.3061987  88.6228811  79.7772694  51.3714695   7.7400273  56.3088512
  51.1634445   6.9576895  56.8196392  50.7581806   8.4030873  56.6258049
   5.4855418  11.0799479   4.0373051   6.2454820  11.5067005   3.6415717
   5.8528548  10.3475678   4.5322120  29.2285180   4.2139509  43.6020470
  29.5171642   4.1914064  42.6896811  28.4290433   4.7401214  43.5873938
  61.9396117  92.1416997  84.8438835  61.2859704  92.2777533  84.1579723
  61.8795338  92.9250025  85.3907490  57.5592326  75.5953029   5.7283075
  57.3411559  76.5272739   5.7180174  57.2307895  75.2632287   4.8927934
  33.7600040  48.7338638  69.8987293  34.4485903  48.9570236  69.2724085
  33.5657787  49.5581341  70.3449249  38.2479692  49.5853090  16.3621271
  38.2530451  50.3586531  15.7980847  37.3479891  49.2623615  16.3177037
  45.8357382  38.1403279  62.4961805  45.7545757  38.9595366  62.9845905
  46.2049246  37.5214410  63.1261921  26.5166044  41.8088484  37.3857903
  27.2863245  41.6674423  36.8346405  25.9739661  41.0333776  37.2428846
  58.8473797  14.3828404  58.4497166  58.2719278  13.7912166  58.9345551
  58.4911394  15.2551138  58.6184311  45.5945015  40.6430101  63.9702034
  46.0712004  40.3742361  64.7555351  44.7980356  41.0564899  64.3032408
  12.3695374  40.0075483  71.8189240  13.2772458  39.7409225  71.9645596
  12.3938429  40.9640980  71.8444490  18.3673286  59.4577932  25.9180355
  18.6550021  60.0817919  25.2516246  18.1354749  58.6707592  25.4250312
  57.4265480  16.5151358  59.6586609  57.5196075  16.3195384  60.5910301
  57.3867798  17.4706089  59.6171856  29.2584038  20.3805947  43.2311583
  29.9122000  20.1323414  42.5775909  29.0462565  21.2907147  43.0240202
  59.7709417   6.9927907  63.9757967  60.6070423   6.7473221  63.5796690
  59.9185991   7.8734905  64.3204641  34.7268128  36.0637879  51.5424871
  35.6428123  36.2879348  51.3783693  34.4898129  36.5756941  52.3158026
  30.4780126  34.0208983  42.8362942  29.8041534  34.3044138  42.2184229
  30.2435899  33.1174183  43.0484343  26.9854116  17.4640822  37.0869851
  27.3478293  18.0982959  37.7055788  27.7239132  17.2281706  36.5255666
  45.9087305  97.3473528  30.1953466  45.9357976  96.3986519  30.3197248
  44.9948965  97.5348213  29.9808843   2.4172243  22.7552414  27.6379991
   2.6312503  21.9988775  27.0917940   3.2373732  23.2447100  27.7013040
  28.2186508  28.1318808  54.8505211  27.3992181  28.1396079  54.3558455
  28.0498409  27.5409675  55.5843830  29.4441748   2.4875838  59.2435789
  29.5987439   3.3199883  58.7969875  29.3567538   2.7238381  60.1670361
  42.0491982  33.4984374   4.8604921  41.1550999  33.2170033   5.0544357
  42.1332502  33.3929706   3.9128405  47.4832773  25.4607105  53.4685278
  46.5554237  25.2516627  53.3607483  47.9010963  25.1080179  52.6828671
  79.0742731  19.5734954  82.1983719  79.0907621  20.5180454  82.0441437
  78.8365555  19.4856441  83.1214142  56.5578890   9.7687554  43.7025690
  57.2736025   9.1745907  43.4768486  55.7674789   9.3116349  43.4153032
  38.7337422  27.4680734  60.2270699  38.4590268  26.7405462  60.7851601
  38.8789272  28.1939173  60.8339500  18.2294893  35.7019615  40.3292656
  17.7987814  36.1429834  39.5969915  18.9193881  36.3072491  40.6011057
  54.2451763  17.6955879  17.2638619  53.4088135  17.3761165  17.6024890
  54.6001387  16.9580007  16.7676806  62.3187187  98.1968387  57.8016472
  61.6086104  98.7356033  58.1505203  62.4742796  98.5448869  56.9236422
  19.3411720   6.7218423  70.9270239  18.6737680   7.3111272  71.2785149
  18.8690901   6.1701554  70.3033161  30.4983354  31.6424608  52.1976900
  30.5520320  32.5641370  52.4503946  31.3026071  31.4822102  51.7040348
   0.6378914  84.9445986  64.7587299  -0.2026390  84.6870553  65.1374245
   0.4448987  85.1068663  63.8353348  74.4875375  95.7302292  70.7362144
  74.8646656  96.2473067  70.0244288  73.7001196  96.2113532  70.9906201
  35.4720998  54.6300697  29.6239042  35.4758930  53.7112474  29.8922133
  34.5452380  54.8674488  29.5954561  30.1671672   2.5833848  30.6755829
  31.0670972   2.8979543  30.7616282  29.7484636   3.2129738  30.0886083
  69.0011119  77.3036197  13.1073721  69.5324634  77.4658111  13.8868578
  68.8887452  78.1672314  12.7101572  13.7597930  57.1413183  26.0807252
  13.7602079  57.0647383  25.1265931  12.9124689  56.7860413  26.3491535
  15.3752184  44.2323160  23.9999413  15.6046128  44.8816252  24.6647763
  16.2106025  43.8335609  23.7563062  54.7431040  16.4671922  58.6427784
  54.7515535  17.0490217  57.8827572  55.4630899  16.7789555  59.1911030
  39.1558743  57.5588608   1.4070785  39.9055409  57.1245670   1.0001144
  39.3959403  57.6358557   2.3304810  38.7820578  22.3885798  66.7265224
  38.5496593  21.5762925  67.1764231  37.9448986  22.8286028  66.5789557
  15.0625956  34.8095369  46.2224340  14.2391884  35.1753235  45.8992720
  15.3897357  34.2780185  45.4966927  47.4139261  20.4812455  31.7901921
  48.1337738  20.1193619  31.2733841  47.1067429  21.2311792  31.2808108
  61.1284590  22.5827241  56.0516453  61.5200472  21.7389059  56.2771749
  61.7992401  23.0271363  55.5331993  43.6043692  29.1563249  42.2471762
  44.4706106  29.1813374  42.6536655  43.5339403  28.2719946  41.8876839
  61.0082293   2.3505664  15.6917048  60.7104969   2.6180631  16.5612066
  60.2032280   2.2467732  15.1843226  39.6702576  19.1569579  71.3830185
  39.0498042  18.9519250  70.6835651  40.2913380  19.7647595  70.9816837
   4.7635975  25.6232476  56.3721085   4.1320091  26.1985588  56.8037844
   4.2292851  24.9332857  55.9787941   1.9327217  72.7920628  37.4726892
   2.7208459  72.5647879  36.9792962   1.3138381  72.0899057  37.2722125
  27.2807622  37.4705791  60.0498676  28.0022311  37.2851968  59.4487476
  27.0574784  38.3859229  59.8809862  13.4367120  20.3109813  44.8891354
  13.0630326  20.9918380  45.4486275  13.5184681  20.7250953  44.0300322
  48.7447786   6.8033105  47.1862698  48.4047699   7.6276827  47.5341702
  48.1961250   6.1294889  47.5877333  51.6091299  25.6889343  33.6438608
  51.0563469  25.1532197  34.2127848  51.9580126  25.0728178  32.9997206
  33.6264586  20.7610822  56.9582272  33.2136512  19.9056089  56.8399715
  33.5090089  21.2020636  56.1168146  90.7887115  82.2322499  20.1712155
  91.3228848  82.8818070  19.7140872  91.4030161  81.7822992  20.7512188
  73.4454298  22.4671006  77.5155354  72.6591444  22.8500819  77.1265411
  73.2300949  22.3683739  78.4429598  28.7442207   4.0016863  81.3241100
  29.3855500   3.4022760  81.7057323  29.2711926   4.6945566  80.9260464
 104.4723950  68.8947678  75.9801960 104.8982282  68.0491686  76.1211348
 104.5731730  69.3554735  76.8131542  35.9439635  18.3062828  61.2061644
  35.9531569  19.0888941  60.6551075  35.6467032  17.6069677  60.6240797
  34.3024325  38.9503598  52.5429487  35.0386286  39.5611978  52.5094175
  33.7201190  39.3134880  53.2102442  71.3796949  33.0686283  29.2158127
  71.8084478  33.9107418  29.0633416  70.9273386  33.1781363  30.0522423
  56.0001707  31.5253782  35.1841950  55.4777050  32.1616936  35.6724215
  55.3544521  30.9573102  34.7639847  87.8131450  52.1001196  61.1618423
  86.8794573  52.3035240  61.1062765  88.1072367  52.0742321  60.2513075
  28.2521486   0.6531797  30.6575990  27.5561118   0.7692231  31.3043571
  28.8032627   1.4294767  30.7569432  10.4633844  41.2452745  55.4423475
  10.9579337  41.1448193  56.2557125   9.7932518  41.8969536  55.6484222
  34.7455549  44.8575544  78.5297585  35.1568222  44.4619560  79.2982578
  34.9938083  45.7809496  78.5739183  62.5720500  46.5710985  12.0607813
  62.7935122  47.2565907  12.6910932  61.6304039  46.6700607  11.9202764
  33.9676738  41.0860682  71.6684675  33.7733030  41.4858532  72.5161839
  34.8637915  40.7613611  71.7566204  83.4341549  20.7238868   0.6605299
  83.6585878  21.5918043   0.3249986  82.8578352  20.3508881  -0.0065176
  60.2491903  29.6669769  68.9915323  59.6688747  30.1407337  68.3956957
  59.8767328  28.7864900  69.0389776  28.2332015  22.3960495  54.8522902
  27.8304410  21.8628073  54.1669655  27.4938416  22.7415943  55.3524685
  13.6780000  24.0047169  34.6941829  13.7076271  23.5339022  35.5270600
  12.9550564  23.5992670  34.2154384  21.3406277  26.8416357  67.6762009
  22.2960615  26.8971705  67.6934338  21.1300182  26.1441708  68.2970238
  41.0913992  20.8662248  46.7591143  42.0405436  20.9596229  46.8405676
  40.9516764  20.6316090  45.8416891  72.9230642  13.2919240  50.0738811
  72.6296616  13.9538705  50.6999636  73.3582401  12.6301229  50.6113529
  40.5215216  20.8152199  51.1076736  40.4561138  19.8610246  51.1459684
  40.5446291  21.0906792  52.0240927  41.2418318  60.9818363  59.0407181
  41.8397999  61.0776234  58.2994366  41.6257811  60.2822733  59.5693207
  29.4840431  42.6763868  19.3638003  30.3633118  42.9934359  19.1574121
  29.0662479  42.5567627  18.5109413  31.1290812  44.9945068  44.7120523
  31.9279599  45.4046535  45.0434208  30.7156444  44.6145248  45.4872417
   4.1849893  21.7900324  51.3875675   4.3368667  21.2137365  52.1365976
   5.0619948  22.0224595  51.0824919  48.0745697  40.6344748  22.3794413
  47.7968645  41.4399767  21.9432306  47.7361917  39.9323130  21.8238306
  15.2938759  20.6657791  33.2608247  15.7804239  21.3439631  33.7294102
  14.4328606  20.6565690  33.6789155  24.9081373  14.0004110  21.5651202
  24.9490952  14.2015004  20.6301785  24.0192866  13.6721265  21.7007875
  27.1770144  40.1633930  59.5468140  26.6365266  40.6784534  58.9478016
  27.7917361  40.7958746  59.9187231 108.9055696  41.1392021  40.2096748
 109.1992481  42.0466614  40.1290321 108.0088070  41.2059307  40.5376959
  24.1287422  44.2349577  16.1082566  23.3350945  44.0353775  16.6047704
  24.8438096  43.9312649  16.6674364  30.9226131  76.6450119  59.4831514
  29.9942946  76.6171741  59.2514563  31.2998199  75.8772993  59.0535402
  63.8616180   0.6028198  62.2794199  64.2396736   1.1730485  61.6099834
  64.6181822   0.2060182  62.7111530  14.4886291  64.6790075  78.4658098
  13.8789272  65.3978205  78.6325550  15.2737308  64.9109268  78.9618587
  90.6424738  35.5089903  49.1981697  90.3159476  34.6178865  49.0734911
  90.1098992  36.0437894  48.6094570 108.3806166  76.1558485  42.7062082
 109.1468203  76.1167002  42.1338177 107.6671393  76.4353323  42.1325588
  79.2257131   4.3865582  64.8106146  78.3977092   3.9549366  65.0212002
  79.4913710   4.0008074  63.9758396  40.5532837  35.6151700  78.7509155
  40.7677126  36.2154031  79.4650412  39.9282336  36.0989118  78.2109690
  18.0219138  16.0072422  56.4843464  17.8662014  15.6361544  57.3528385
  17.2726321  15.7192075  55.9629631 101.2833610 102.1893603  46.7493534
 101.4986124 103.0904970  46.5088320 101.6136255 102.0945173  47.6427555
  41.7596722  15.1549053  50.4474974  40.8390236  15.3227746  50.2463531
  42.1586466  14.9609554  49.5993042  38.5763359   9.9827731  19.5580578
  39.4614077   9.6462703  19.4179010  38.0627179   9.6120512  18.8404274
  81.6956520  19.7348964  56.3035393  81.2096977  19.9117577  55.4980612
  82.5730705  20.0779343  56.1341238  12.5149800 102.2562248  68.0403566
  13.2193066 101.7128127  68.3937168  12.1859766 101.7630232  67.2888660
  83.3006134  58.0282055  52.6998997  83.9684906  57.3920666  52.4439669
  83.3137300  58.6831605  52.0019817  29.9079251  56.9551039  31.3150001
  28.9851809  57.1622467  31.4628768  30.2353549  56.6927195  32.1753359
  15.1355684  30.1723504  51.9713640  15.8693874  30.7438278  51.7451954
  14.9745762  29.6634459  51.1768007  56.2006283  31.6919184  55.9458590
  55.9068108  32.3055673  56.6191578  56.4638615  32.2485065  55.2129507
  93.4771647  92.7760862  33.0332851  94.3699279  93.0772435  32.8644347
  93.1449070  93.3747952  33.7021542  14.1895986  17.7233279  44.5437574
  14.0038121  17.0371652  45.1847696  13.5618377  18.4168828  44.7465611
  58.4124947  12.9975903  44.6486616  57.5597858  12.5639224  44.6162701
  58.8317108  12.7638185  43.8205051  26.4790392  45.4329920  57.1699524
  25.8473754  45.3270292  57.8812933  26.6988158  46.3645458  57.1815872
 101.1590137 101.2504602  53.5373592 100.4878392 100.8083401  54.0572500
 100.9989180 100.9572457  52.6403475  40.6549215  10.9973633  40.0918055
  40.4329014  10.5740070  40.9210873  41.2167311  11.7313671  40.3404760
 101.5580788  66.3497292  74.2777443 100.6887522  66.2923419  74.6742392
 102.0829978  65.7091652  74.7577143  22.7505398  51.8920040  84.1520882
  22.3116994  51.0448885  84.2298317  22.7569366  52.0730734  83.2121944
  23.9204597  46.7331028  28.3329296  23.5837054  45.8462763  28.2049775
  24.8696303  46.6434956  28.2476330 106.9353611  16.8621087  37.9489851
 107.4538912  16.1392713  38.3023453 107.4938872  17.2508562  37.2758150
 105.7765284 100.9321318  39.5296454 105.1607289 101.6648706  39.5404267
 106.4498844 101.1757985  40.1648235  23.1117392  58.4250402  44.2434740
  22.9796267  58.7245131  43.3439779  23.6088252  57.6118755  44.1546154
  14.0352726  24.5851922  46.5652895  14.3151832  25.4802632  46.7569399
  13.4883595  24.3402696  47.3117018  17.3185946  88.7075912  76.1024761
  18.0898453  88.9906966  75.6113005  17.1479870  87.8192913  75.7893467
  22.6590490  15.8482218  37.7556682  22.8374434  15.0365937  37.2806239
  23.3874106  15.9304798  38.3712602  67.5499630   4.1668174  52.7117538
  67.8069162   4.5975477  53.5270357  66.5962934   4.2458281  52.6893759
  22.5842881  46.3507605  54.8935747  22.8421783  47.2515583  55.0892448
  22.8068471  45.8606100  55.6850576  22.4118352   8.1311387  50.8206224
  21.6036558   7.7437180  51.1567545  23.0420661   7.4106997  50.8234978
  35.4578543  22.7148604  47.3040295  34.8953629  23.0807662  47.9866362
  34.9379635  22.0102143  46.9174814  47.4791622  34.6840525  30.6263709
  48.4269285  34.8019743  30.5625916  47.1275330  35.5742002  30.6415296
  53.9455032  27.0968246  44.4768858  53.1555653  27.6315880  44.3977690
  54.6520853  27.7303457  44.6018648  14.1258776   5.2083212  59.7132730
  13.2125223   5.1508576  59.4327164  14.4206607   6.0619181  59.3959284
  87.0931219  94.9212959  26.5258939  87.8535007  94.4440487  26.8579919
  86.5897011  95.1444176  27.3088510  31.4187884  43.9158010  47.3441410
  30.5898976  43.6460876  47.7396488  31.6485596  44.7262430  47.7986956
  22.2512507  24.9392986  73.6844587  22.5007319  24.1318989  74.1340113
  22.3073626  25.6161451  74.3589687  23.8868713  22.4958658  54.6016741
  23.0216861  22.1403503  54.8048878  23.7083864  23.3492613  54.2065859
  47.5920582  36.6134715  28.0040956  47.1928692  35.8734322  27.5466895
  48.4898901  36.3311481  28.1785274   6.2768447  26.1177874  41.5435410
   6.5374303  25.5061793  40.8548737   6.3900101  25.6254053  42.3565531
  70.4896736  33.1011581  70.0639439  69.6706009  33.5669565  70.2324057
  71.1315393  33.7939692  69.9082184  41.7526960  45.2753210  35.2120161
  41.0858679  45.9499502  35.3402829  41.4188623  44.5149899  35.6881237
   4.0419031 102.8629035  42.9248714   3.5654522 102.3099720  43.5441399
   4.6504141 102.2657841  42.4896765  70.2929878  16.2873650  35.8300543
  70.2961063  16.5323281  34.9047351  69.5600510  16.7759168  36.2046862
  88.4420084  41.3808599   6.9041975  88.2858108  42.2640118   6.5697153
  89.1068767  41.0173538   6.3193567  28.7908292  18.9679837  45.5220509
  29.4809651  18.3047211  45.5167913  28.9540696  19.4897246  44.7363186
   8.9650255  15.5729997  56.6222239   9.1132319  15.8775878  57.5174856
   9.8381358  15.3558731  56.2954712  22.6558065  72.5460005  43.0672789
  22.3347449  73.2296467  43.6553001  23.5669708  72.4135065  43.3289289
  39.0314841  38.3134627  16.0428834  39.3675542  37.8020144  16.7788923
  38.5652137  37.6764035  15.5016077  35.6235909  40.0583649  68.5049343
  36.4373302  40.5477476  68.6256218  35.7224512  39.2876577  69.0639210
  52.4261618   4.5810419  48.6965990  51.6815996   4.7800317  48.1289196
  52.5919819   5.3968966  49.1689491  96.0969224  95.5366301  51.1028242
  96.9166865  95.9232705  51.4106035  95.5141010  95.5757581  51.8611288
  50.9594727  31.2352300  46.1687517  51.6797066  31.6620970  46.6327333
  50.1708984  31.6549349  46.5125990  36.4844227  26.8163633  72.6106167
  36.2043691  26.3917994  71.7997217  37.0125365  27.5604486  72.3213673
  48.4847879  26.6181350  46.1067677  49.0907526  26.9144106  45.4276085
  48.0499411  25.8561659  45.7239532  50.6088066  44.4856024  54.1832590
  51.5512609  44.3231153  54.2234325  50.2251339  43.6270237  54.0047264
 105.1772202  12.2921586  82.9215431 105.7268564  12.8230608  82.3451138
 105.5228351  11.4041424  82.8309441   2.6297880  97.9816686  62.5548649
   3.2617332  97.5588678  63.1363440   2.6670290  98.9078762  62.7935791
  29.4940710  40.0969028  47.5242186  29.9614596  40.1947212  48.3538055
  28.7646246  39.5115232  47.7278614  28.1912495  96.8586360  50.1692533
  27.7112700  97.3605310  49.5105076  28.3323313  96.0035019  49.7629642
  27.4918842  37.8614664  65.6302738  26.7242384  38.3777785  65.3845692
  28.1520414  38.5123444  65.8685684  34.7925758  13.5997796  58.2305908
  34.6736288  13.9121151  59.1275454  35.4945731  14.1464996  57.8777075
  29.1409159   1.0665794  70.3110933  28.4032035   0.5199900  70.0404406
  29.1609144   0.9868028  71.2647533 107.8884568  69.4109141  48.9024734
 108.8295164  69.4611537  49.0701485 107.5016680  70.0316059  49.5200253
  38.3385897  33.3741117  24.6816659  37.6597691  32.8176212  24.2998910
  38.1108332  34.2591786  24.3970346  62.1055555  37.4602246   6.7834830
  62.2616720  38.2552338   7.2932076  61.9303322  36.7856121   7.4395537
  33.0952406   6.8592316  49.2784166  32.2977734   6.5278971  49.6913290
  33.4146810   6.1263478  48.7520456  35.4992676  52.7250719  59.2143583
  35.8649087  51.9889259  59.7048903  34.6197391  52.8395081  59.5743132
  29.0260959  41.9028282  39.7934055  28.3544326  41.5509081  39.2092395
  29.8528242  41.7117739  39.3504071  38.4857774  18.8997841  54.0332842
  39.0797377  18.6773264  53.3163786  37.7311540  18.3247614  53.9062977
  28.5344744  54.1989613  52.8042793  29.4261765  54.0619993  53.1241941
  28.4271860  53.5500193  52.1088696  29.4240713  38.9008141  30.3103733
  28.8687396  38.1211782  30.3132439  30.2140832  38.6338830  30.7803297
   8.3617896  16.5174973  66.1596775   8.4615779  17.1118689  65.4160404
   8.3027995  15.6475663  65.7647419  57.4081039   7.3931944  62.2444057
  57.2225523   6.5349686  61.8632841  58.2495117   7.2818762  62.6869774
  47.9477262  21.3844538  75.4394913  47.0559263  21.0580111  75.3196478
  48.4956694  20.6000996  75.4115534  14.3889284  59.7062969  54.9318933
  14.1604173  59.0109205  54.3150711  14.4768453  60.4892635  54.3883228
  14.1360403  92.7161049  16.9351673  14.4319130  91.8762170  16.5840590
  13.2101609  92.7625584  16.6967857  31.0162687  12.9646063  27.1181369
  31.8348598  13.0029261  27.6127768  30.6848693  13.8624752  27.1335268
  82.6166114  89.4633781  50.7898235  81.6822621  89.4249784  50.5854988
  83.0390170  89.6345448  49.9480963  27.5732565  14.4214022  70.9929657
  27.9963517  13.9168310  70.2982521  27.3788261  15.2675867  70.5899763
  47.1393728  27.6793742  41.3497114  47.2063637  26.7729211  41.6498661
  46.7379045  28.1454611  42.0830727  68.4242487  13.3756673  56.6969347
  69.0420437  12.6798296  56.9213772  68.9451647  14.1780603  56.7292690
  43.3180571   6.4077187  54.1728544  42.6608181   7.1034521  54.1579342
  43.8562012   6.6030192  54.9399853  55.3625154  27.1689892  65.2822971
  55.0346470  26.2790680  65.1527739  55.4632187  27.5183773  64.3968487
  33.6316133  48.4538841  66.6914082  34.2660832  48.8247919  67.3046827
  33.2738805  49.2119312  66.2292099  44.4062853  87.4113369   1.3928854
  43.7632847  87.9940891   0.9889282  45.2526140  87.8059292   1.1825286
  29.5364475  51.1707020  44.2317533  28.7393498  50.9198141  44.6985769
  29.5551252  50.5982065  43.4648609  19.3163038  95.5528395  53.8505316
  19.3068768  94.8794829  53.1702900  19.0467669  95.0935613  54.6459246
  27.2414088  13.9791000  39.8435688  26.7891383  14.1970980  39.0286088
  26.6935921  14.3589091  40.5305004  20.2227426  37.9193902  58.7144279
  20.3052092  37.2183847  59.3609762  19.4785869  38.4391403  59.0182829
  79.2820120  15.8232605  80.6486416  79.2379236  15.6967342  81.5964222
  80.0127792  16.4282811  80.5215073  37.6312780  17.8729916  44.2775154
  38.5265422  18.0070686  44.5885754  37.1847773  18.6974585  44.4701910
  50.4360437  37.5719404  64.8256445  49.8226404  38.2680678  65.0609636
  51.2376928  38.0326819  64.5780516  50.2448416  41.4867735  52.8709507
  50.8452845  40.7989454  53.1583452  50.7408190  41.9800425  52.2175550
  54.0554714  37.1781492  64.2922688  53.2517719  37.6119089  64.0056515
  54.7528124  37.7953005  64.0707397  45.6217003  40.6326056  52.3466778
  45.6481409  41.2637091  51.6274834  46.3220978  40.9119177  52.9363012
   5.9951341   1.5492362  78.7891579   6.0000426   1.3427177  79.7238016
   6.6946477   2.1938789  78.6826324  36.1955023  24.2518997  59.7161722
  35.7641625  25.1004791  59.6157169  36.1123753  23.8377905  58.8571978
  44.5089293  38.7765312  56.2194920  44.5623446  37.8332043  56.0661459
  44.0579033  38.8574123  57.0598888  51.5772057  47.0935488  55.0474310
  52.4606848  46.7442989  54.9303055  51.0000134  46.3552141  54.8526430
  46.4401531  30.0451779  59.9170685  46.0802698  30.3076720  60.7643080
  47.0347071  29.3237090  60.1225519  52.3375416  36.1394334  54.5303297
  51.7243052  36.7323804  54.9645901  52.7725124  36.6834831  53.8737917
  47.0121717  46.1794901  53.2822943  46.4261770  46.7031097  53.8287973
  47.5937796  46.8199873  52.8727484  71.9892073  10.9182715  43.5000753
  71.4025688  11.6170228  43.7896204  72.6527834  10.8623576  44.1876602
  43.3528423  44.9556494  73.5333109  43.8911533  45.7392120  73.4215641
  42.9265070  44.8349571  72.6848412  65.9068727  11.6892588  87.4026775
  66.0988522  11.1047173  88.1359482  66.4309359  11.3458276  86.6790390
  32.2917390  41.1713982  31.0278440  32.6968122  41.8930674  31.5088272
  31.3712859  41.4222670  30.9499788  17.9841375  33.9006758  80.9840584
  18.7674844  34.4346905  80.8520603  17.6376510  34.1884065  81.8286896
  15.0736547  56.6360474  52.0899582  14.3169153  57.2051620  51.9496441
  14.7055817  55.7532883  52.1284819  52.3724651  45.3435755  45.3065395
  52.1873617  46.1835814  45.7264996  53.3108044  45.3709602  45.1194477
  17.7577245  33.2607818  88.6337376  17.1160734  33.2259607  87.9242992
  18.4622788  32.6791358  88.3482170  17.3417807  28.5418940  47.7955818
  18.2391083  28.2684326  47.6051807  17.4110925  29.0410924  48.6093569
  62.4742794  29.8947620  21.0072231  62.2266197  30.0771856  21.9136524
  62.6225567  28.9493752  20.9850717  38.2179976  70.5603838  43.4394598
  37.9507637  71.4080429  43.0840921  37.6588273  70.4350758  44.2061806
  32.1437788  49.1534472  27.4579477  31.3203454  48.7480927  27.1861458
  32.7688026  48.4291077  27.4881530  40.6626129  16.0147834  18.8731444
  40.7929039  15.6581867  19.7518337  40.4419756  15.2537692  18.3361077
  63.8863968  93.2567957   8.4370287  64.0325950  92.3863104   8.0667455
  64.7215651  93.4873512   8.8439233  31.7525673  15.5142772  15.3427148
  32.3887968  14.8721504  15.6575429  31.5266752  15.2155948  14.4618094
  58.3318758  26.2432456  49.3561172  58.2581043  26.2188959  50.3101635
  58.0774546  25.3647518  49.0737200  41.5834188  28.9110756  57.1827316
  41.2522697  28.2831478  57.8248215  42.2651148  28.4334111  56.7101240
  23.6091757  43.4565878  46.9144726  24.1385078  42.7218056  46.6044188
  22.8124547  43.4179211  46.3853455  19.5214343  56.5987825  80.4901886
  19.7325194  57.3462486  79.9307537  19.0848875  55.9784174  79.9064016
  43.5565329  27.2760010  26.2305808  44.0190268  27.9353619  26.7478561
  44.0471363  26.4676261  26.3791442  34.3153524  51.5145350  30.3520226
  35.1740980  51.3742590  29.9531364  33.7206221  51.6197205  29.6094179
  90.9997811  71.6291343  62.1390295  90.0433435  71.6640984  62.1236658
  91.2068012  70.6983410  62.0553732  47.5870037  41.4453125  54.3259382
  47.9583693  41.2102222  55.1762629  48.3481073  41.6156912  53.7710285
  27.2419262  19.8040473  73.6479044  27.7063441  18.9891541  73.8389444
  27.1688628  20.2424860  74.4956446  14.5335388  54.0726423  51.9969988
  14.7182047  53.3602524  51.3849258  13.7411511  53.7944365  52.4562979
  43.1013680  50.0487661  73.7003136  42.4196529  49.6029758  74.2030716
  43.8925219  49.5345163  73.8610935  39.1652918  23.2745004  57.8151369
  38.7695456  24.0639544  57.4458408  39.4905162  22.7916861  57.0553017
  37.1863461  24.9200797  47.4531698  37.4660325  25.0911808  46.5538740
  36.4812350  24.2785335  47.3667479  61.8635273  14.7049463  44.7879839
  62.7899790  14.4839597  44.6926737  61.8638897  15.5500853  45.2373934
  69.5395422  27.4655914  36.1986828  70.3125143  27.5593352  35.6419444
  68.8173866  27.7941394  35.6631637  40.9918833  59.9255419  29.3415213
  40.7520103  60.8511305  29.3860388  41.4122629  59.8278856  28.4871364
  70.0513363  30.6563377  33.0989122  70.9634304  30.4597068  33.3125687
  70.0568008  31.5817046  32.8541708  45.6129456  49.4312525  28.1476378
  44.7778511  49.1907644  28.5489035  45.5990505  49.0038967  27.2912478
  51.3656616  29.1019011  42.2987938  51.7675686  28.8763309  43.1377363
  51.7538643  29.9453998  42.0663404  48.3169174  22.5496602  46.6944504
  48.4810019  23.2723570  46.0886288  47.8312206  21.9081235  46.1760330
  58.4834385  22.6379633  67.5054169  58.2420158  21.8990445  66.9468975
  59.4400549  22.6566768  67.4776363  18.2085121  28.1742620  16.4300811
  18.0447435  28.1131101  15.4889786  18.7157488  28.9794517  16.5331018
  44.8597145  63.9920568  65.2280664  45.0326490  63.1669426  65.6814051
  45.2631521  63.8814402  64.3671179  16.1122227   6.6082746  44.8757267
  16.2488461   5.6648761  44.9627018  15.9278429   6.9066954  45.7663345
  55.2448988  44.7473478  44.1124249  56.1602879  44.9382162  44.3170309
  55.0473928  45.3022623  43.3579111  22.7532101  55.0191879  80.6445408
  22.1103144  55.1333189  81.3444614  23.5615826  54.7808409  81.0983658
  24.7274971  21.9328880  44.5137644  25.0493312  22.8330278  44.4647455
  25.3864098  21.4708304  45.0320053  58.1695175  25.6299806  14.2604434
  57.3383427  26.0397029  14.5002592  57.9181480  24.8164916  13.8230860
  38.8657761  43.4975815  51.5274668  39.0356827  42.6314354  51.1571217
  38.5828829  43.3229733  52.4250841  36.3495231  30.6315017  75.5381203
  35.4169178  30.4622555  75.4045820  36.6265965  31.0867190  74.7429848
  34.1301584  43.3922577  65.5745983  33.9382815  43.1743717  64.6624899
  35.0824308  43.3227348  65.6422329  49.9732494  45.8095121  51.1710787
  50.6272459  45.1384735  51.3666058  49.2998981  45.6900549  51.8408251
 101.3412689  90.1392272   2.8574808 101.2495397  91.0422876   2.5536688
 100.4882549  89.7406748   2.6849897  25.4822683  56.0458755  33.5448241
  24.6014404  56.2328863  33.8694739  25.6243682  55.1230812  33.7557483
  19.2008591  40.7287931  41.1701345  19.3708849  41.5560961  41.6205692
  18.2491028  40.6312180  41.1996317  12.6943314  53.2135391  65.3142929
  12.9766667  52.9607344  64.4353104  12.0586145  53.9143181  65.1693678
  16.0618140  99.7533908  44.7512102  16.2455012  98.8739186  44.4210291
  16.2247683 100.3287198  44.0037632   8.9331979  28.7503862  50.1561880
   8.2414317  29.4113564  50.1846600   8.5821825  28.0145550  50.6577587
  48.5669613  40.7897615  41.0279799  49.2887831  40.6001997  40.4285908
  48.0177593  41.4127493  40.5520678  19.7744501  50.8055449  71.7885971
  19.2133510  50.7413864  72.5614405  19.9969471  49.8986483  71.5782022
  46.8358326  16.5030503  45.7504797  46.0250044  16.1990023  45.3426313
  46.5652943  16.8252146  46.6102791  43.5181952  19.0328074  44.2832899
  43.4781981  19.3303335  43.3743858  43.3774996  18.0873811  44.2322397
  55.6922388  25.8865619  32.6463437  55.7539749  25.3419995  31.8615675
  56.0916328  25.3576064  33.3369422   0.3821193  58.6388731  30.3516078
   0.6858608  57.7338505  30.2815557   0.9979971  59.0520525  30.9567618
  61.5983486  20.2973008  40.0891352  61.5544319  19.3595779  39.9021053
  61.1151600  20.7074809  39.3718410  32.8743720  30.8296323  51.1244869
  33.4285235  30.4822659  51.8234015  32.9834104  30.2107787  50.4024315
  32.8158474  36.6914916  49.8008442  32.5990152  35.7914329  49.5577145
  33.4968901  36.6020656  50.4674864  36.5148401  39.0897274  57.1522617
  36.5591884  38.1482816  56.9850922  36.3392901  39.1583347  58.0907249
  62.5371790  15.1044250  28.7558174  63.0041838  15.6081057  29.4224834
  63.1288910  14.3828726  28.5425758  32.0268512  37.3548603  46.5702343
  32.5834775  36.6811919  46.1796331  31.1784220  36.9270635  46.6859484
  49.8066330  23.2931399  57.7755260  49.1167641  23.9141393  57.5416994
  50.4247379  23.8064957  58.2957554  58.9871883  55.5744982  51.7113590
  59.3981934  55.9163046  50.9173346  59.6099043  55.7769108  52.4095583
  37.2094917  38.5982656  79.2385721  37.7885723  39.3598199  79.2080307
  37.5170183  38.0935717  79.9915266  35.8006668  59.4348669  60.5073929
  35.8883882  59.7263098  61.4149141  35.6944060  60.2429914  60.0055170
  38.0232310  61.9098234   8.6860150  37.1268320  61.8685436   9.0191805
  38.4581089  61.1504221   9.0738577  41.6031742  56.1916351  55.8207941
  40.9924793  56.7182589  55.3050900  41.7914104  55.4332209  55.2679729
  67.9628897  91.4435959  59.8233747  67.0841885  91.7357445  59.5809841
  68.1005669  91.8008423  60.7006741  48.4369421  51.7811441  55.8991146
  48.7871122  52.6041079  56.2402058  47.4888611  51.8632078  56.0023022
  23.3001280  64.8316717  47.2934628  22.8298926  64.0288973  47.0683670
  23.6158085  65.1675701  46.4545679  57.6018143  52.7219486  57.9365826
  58.5132170  53.0078363  57.8746223  57.0926762  53.4822464  57.6555824
  59.2164612  52.8682709  52.1760511  58.5364914  52.6158524  52.8006744
  59.1460466  53.8210726  52.1173954  38.1218672  74.1106749  68.6844015
  38.7011218  73.4757519  68.2630157  37.3834252  74.1980934  68.0816603
  76.3431215  64.8036814  61.8969345  75.8716726  64.4921875  62.6695538
  77.2424364  64.5031166  62.0277834  77.3886442  69.7820282  61.2185431
  77.2357607  70.6702662  61.5408707  78.2945442  69.5914984  61.4619970
   1.0017881  11.6993726  27.8876376   1.0174666  12.6168455  27.6151872
   0.1533375  11.3745035  27.5862670  45.3391790  85.3836441  59.6155310
  44.6240091  84.8489285  59.2707968  44.9441004  85.8776569  60.3339291
  31.8565917  75.1798344  38.9088678  32.5978494  75.0508690  38.3171415
  31.2918019  75.8037424  38.4528136  40.8780766  85.1773453  57.2247744
  40.3112698  85.7501698  56.7082119  41.7617273  85.3672981  56.9096327
  51.9685221  84.8929596  68.2250643  52.7422571  84.9011135  67.6615858
  51.5765953  85.7581234  68.1062841  97.9672527  55.6197739  37.3041201
  98.4457493  54.9451160  36.8223405  98.6192131  56.0029125  37.8909707
  33.0003008  42.9384033   8.4799345  32.7387031  43.6199848   7.8608568
  33.9520344  42.8870860   8.3915956  89.2293549  56.4183283  30.4197001
  88.6690426  55.7599926  30.8306456  90.0529480  55.9605265  30.2513671
  70.6867933  65.6779337  63.5167789  70.4474878  65.0678062  64.2144251
  71.2221432  66.3414001  63.9520264  74.9369001  60.1959801  41.4769030
  75.8396339  60.4891348  41.6008663  74.8471165  60.0909424  40.5297279
  72.2804451  62.3284483  88.9736938  72.5423145  62.2421551  88.0570698
  71.3470030  62.1165323  88.9770889  87.7739811  67.0640516  63.3261967
  87.5318909  66.1458302  63.2058430  88.6093044  67.0323706  63.7925386
   0.1365315  72.6622295  48.4970427   0.5902230  73.3245468  49.0183306
   0.7117592  72.5125933  47.7467346 106.8332863  70.9630537  81.0117054
 107.1679306  71.7276192  80.5430031 106.2071514  71.3225222  81.6401768
  55.2268171  54.8683119  79.3225861  55.9214735  54.5084429  78.7710619
  54.5044470  54.2465448  79.2341375  61.9539261  66.5280485  44.3350983
  62.7659512  66.4992189  44.8410797  62.2404099  66.6392326  43.4285688
  53.3311319  65.5577850  56.2208462  53.3151817  66.1706781  56.9559240
  53.3722878  64.6936035  56.6303873  56.0493803  99.7188473  49.7098207
  56.3663387  99.3284035  50.5242634  55.1475573  99.9755192  49.9023390
  83.5929775  56.7714357  37.3498583  84.4929028  56.6070223  37.6315355
  83.6616421  57.5143576  36.7502022  47.0997238  85.3100491  76.8863583
  47.8623438  84.8647022  77.2555637  46.5004921  84.6022415  76.6493797
  72.4238634  72.4835634  77.2614956  72.9010677  72.7277756  78.0545092
  71.7228460  71.9099092  77.5709009 104.0416908  57.9732847  49.6604967
 104.1572475  57.0246506  49.7150469 104.6066761  58.3233929  50.3492975
  32.2637868  93.6235905  78.4183264  32.1252084  92.6897240  78.5761547
  32.9522777  93.6546612  77.7540636  65.0474119  97.6241016  83.4618950
  64.3299675  97.0164204  83.6414337  65.6103849  97.5647449  84.2337608
  68.8188362  59.0781355   3.9501506  68.0410004  59.5063877   3.5926542
  69.2032337  58.6180735   3.2039541  54.3710184  84.6907330  54.4391489
  53.5819340  84.2276287  54.1578865  54.2333460  85.5938721  54.1534758
  13.7241516   3.7107385  45.5746746  13.2734642   4.5327486  45.3812361
  14.6511231   3.9087022  45.4413652  63.5528851 100.8529186  35.8006620
  63.2648182 100.0889206  35.3011060  62.7702427 101.3988400  35.8759904
 101.7490005  27.2575593  27.5037622 102.2164249  27.7467012  26.8266463
 101.9136238  26.3386655  27.2921872  70.0236750  70.4415512  51.7314053
  69.1449881  70.7066870  52.0031500  69.8775864  69.7214127  51.1179829
  74.7349261  12.4674524  87.5521660  74.9852251  11.8077386  86.9053555
  73.9176654  12.8349031  87.2155857  46.4370966  65.1521587  58.7515354
  47.1229172  65.3191376  58.1050062  46.5566778  64.2344522  58.9959764
  80.7114528   4.2038454  34.6141005  80.8462690   3.3522333  34.1983962
  81.5612339   4.4202436  34.9978662  62.8332710  88.3660698  68.3914852
  62.5279093  88.4838867  69.2909861  62.2231436  88.8797188  67.8622007
 109.0627788   0.6620611  65.4701471 109.7374462   0.5930723  64.7946501
 108.3551239   0.0967611  65.1604843  73.9997435  93.7315369  31.7221284
  73.9164782  93.1040096  32.4401164  73.1088495  93.8311100  31.3865304
  58.8734484  65.2660847  60.9108877  59.1447210  66.0723352  61.3497543
  59.0663385  65.4202318  59.9860811  60.0202179  49.5808220  86.5573788
  59.6806049  49.0031576  85.8738613  60.3196383  50.3586388  86.0866642
  59.9862432  91.9185925  49.2476845  59.1504622  91.6009903  48.9058828
  59.7436380  92.5502205  49.9247503  78.8009548 102.5771046  65.0272989
  79.5987129 103.0783653  64.8582983  78.6101580 102.7351189  65.9518862
  74.9754143  78.1432533  37.2130871  75.2285194  77.2936869  37.5742102
  75.1190662  78.0553818  36.2708163  40.7179022  69.0471935  59.4084692
  39.9492598  68.8315916  59.9366140  41.0310173  69.8768759  59.7687769
  83.4495258  52.6311684  52.5386715  83.4017467  53.0582523  53.3939791
  84.3617916  52.3519087  52.4610329  59.8510122  95.1498985  49.6961546
  59.5379257  95.1914501  48.7925577  59.0653086  94.9747276  50.2140522
  68.6303568  65.5401182  49.3649387  69.5785904  65.6645870  49.4049311
  68.2748175  66.2247276  49.9316263  16.1301816  76.3868427  53.9378738
  15.5835366  75.6090832  54.0496826  15.7240856  77.0476770  54.4987822
  96.6679668  62.5164700  85.0380707  96.4454556  62.0148373  85.8223438
  96.1422825  62.1202421  84.3431664  81.7405583  96.1878132  47.6997137
  80.8024861  96.3672709  47.7634621  82.1594120  97.0137631  47.9417801
  42.4652481 100.3810024  56.8272114  42.9515791 100.5729294  56.0254145
  41.5783691 100.6946564  56.6502905  76.1552000  65.8948946  45.3472376
  75.4064798  65.7062387  45.9129810  75.8935976  66.6732502  44.8553419
  70.9156418  53.2541370  56.3713026  71.0117197  54.0100098  55.7919407
  70.0996876  53.4172010  56.8444443  47.8174257  73.3759832  71.4549828
  48.5404587  72.9580927  71.9227743  47.7835083  72.9228497  70.6125164
  78.7067318  95.2478886  56.6311979  78.3720732  94.6108341  56.0000038
  79.6472454  95.2859306  56.4573622  81.9624996  69.7559023  73.4918118
  82.1460152  70.2595425  72.6987791  82.7023888  69.9415493  74.0700245
  65.4674673  74.3519020  58.7109423  64.8143959  74.0428686  59.3388128
  66.2323475  74.5641756  59.2458582  33.4232783  48.6712074  51.8045187
  34.1053939  48.2529211  51.2791777  32.7390695  48.0063009  51.8819380
  68.1842804  66.8448973  47.0024395  68.3309460  66.1951685  47.6898766
  67.6442099  66.3912010  46.3553572  21.1003780  61.1944914  48.0481768
  21.5890360  61.0561228  47.2368193  20.2737880  61.5861797  47.7661085
  31.4312395   8.8480083  17.4210985  31.6043314   9.1315881  18.3187921
  31.4973768   9.6482984  16.9001444 101.9164562  49.7906828  27.3891759
 102.1873856  50.3822231  28.0912495 102.7369308  49.4480371  27.0347047
  87.0267105  58.7658691  64.0027237  86.1923981  58.3423901  64.2047596
  86.7919827  59.6700191  63.7938070  88.5005188  48.4838772  73.1200027
  89.3375492  48.6483383  73.5542583  88.7359428  48.2840061  72.2139883
  67.1498203  68.3863640  58.9572763  66.3377762  68.6810112  58.5449648
  67.1606207  68.8270235  59.8069429  95.7222939  66.4900398  79.8467970
  95.4537392  66.9914103  79.0769005  95.0818825  65.7811213  79.9063015
 104.7020626  62.7069712  37.6832747 105.6478310  62.8123188  37.5800419
 104.3930531  63.5712051  37.9550219  76.3208151  89.4238091  59.5052052
  76.4643335  90.3595066  59.6469736  75.3726959  89.3133831  59.5766926
  18.0093155   4.0283693  52.5919533  17.7810154   4.1901220  53.5073471
  18.4647331   3.1865324  52.6038361  50.4497051  66.4602518  58.2525730
  50.6759930  65.6052399  58.6186028  51.2619257  66.9643593  58.3016491
  51.3706636 102.6812744  75.6215191  51.2738323 101.7748928  75.9136248
  50.5026770 102.9227543  75.2982235  58.4506321  79.6207047  57.1305752
  57.8219175  79.3978691  57.8170824  58.5123825  78.8289690  56.5961838
  41.8924570  77.4725676  75.7341814  42.5201750  76.7813683  75.9450054
  41.7579222  77.3940039  74.7897434  67.6846790  44.2653942  26.6680193
  66.8428230  44.4182825  26.2389088  67.8074980  43.3171558  26.6234899
  90.7274151  60.5766821  48.1554890  91.4303398  60.4279089  47.5230408
  90.5176449  59.7046947  48.4899521  43.7525543  26.3854305   8.0737360
  43.4801611  26.2854997   7.1615656  44.7064194  26.3096801   8.0485208
  83.7543678  92.2034168  89.2471123  84.6101665  92.5357819  89.5179939
  83.9434242  91.6358948  88.4998322  36.3984752  87.3084068  40.8605146
  35.5165792  86.9373989  40.8313799  36.9575691  86.6266155  40.4879427
  56.0825157  71.2528515  47.3297787  55.3933239  71.8230534  46.9890118
  55.8473110  71.1148357  48.2473087  91.9766808  55.5579901  30.3499770
  92.5090790  55.0234222  30.9390521  92.1926212  55.2370834  29.4744086
  51.2768698  75.4589224  55.5622768  52.1041536  75.1117182  55.2286863
  50.9709072  74.7957468  56.1809921  85.0303555  76.1804199  34.6750689
  85.7516098  75.6535244  35.0191951  85.2985859  77.0856476  34.8326874
  72.7443552  48.7708521  58.5565758  72.6733112  47.9364395  58.0929613
  72.2412682  49.3853426  58.0222225  41.7724943  96.4424896  60.0496292
  41.3085604  95.9495544  60.7263947  42.3165369  97.0624256  60.5353594
  61.9091320  53.3120823  53.0681229  62.3778152  53.4715986  52.2489023
  60.9839487  53.3415842  52.8244162  42.9460049  86.4656734  73.7087250
  42.0762920  86.2222004  74.0258312  43.2744551  87.0840645  74.3613672
 104.1869615  20.1415266  73.7320375 104.6371721  19.4400991  74.2027187
 104.6686767  20.2253736  72.9091454  86.3157057  21.1010469  66.4828205
  87.2386717  20.8638586  66.5728951  86.2642215  21.9953645  66.8201208
  16.1510432  65.7572031  50.8572817  16.5425456  65.3360033  51.6224957
  16.8374681  65.7286453  50.1907682  63.8265800  73.4146023  79.0981436
  64.7376728  73.3403397  79.3821049  63.8273048  74.1449881  78.4794617
 105.1767254  80.5406666  51.6579103 105.9141731  80.8895016  51.1571932
 105.5800915  80.1231766  52.4189854  51.2329865  81.8924713  50.5437708
  51.6266060  82.4517536  51.2134647  51.3370419  81.0033798  50.8827829
  56.0111523  97.5960445  77.4397135  56.5982580  98.0794334  78.0209827
  55.4563665  98.2692909  77.0457792  42.9604530  77.1264935  43.8763523
  42.6418447  76.3259983  43.4593058  43.1325960  77.7236605  43.1483459
  87.7950668  84.5326328  65.7591200  88.1367970  84.2494774  66.6072226
  87.4483109  83.7338066  65.3618097  64.9328184  55.4272413  10.2822685
  65.2136421  54.6385098   9.8182982  65.3222656  55.3445196  11.1527395
  80.4317856  72.0577431  30.1098895  79.8187876  72.2987700  29.4153571
  79.9100065  72.0900679  30.9117222  63.2867908  71.6316414  53.0018520
  62.8032064  72.1201038  52.3356867  62.6358128  71.0468435  53.3897591
   7.7282009  12.9425539  49.5308876   7.6040707  13.8883413  49.4514704
   7.0776997  12.5650609  48.9387894  80.6402588  42.1425915   4.3701443
  80.1621056  41.7607021   5.1061916  80.0280285  42.0943546   3.6359242
  65.8703804  73.1346083  65.8994198  65.6986952  73.2439137  66.8347359
  66.1261129  72.2166920  65.8085203  64.9802685  97.0023251  58.2188177
  64.3098545  97.6823997  58.1534719  65.0241041  96.7981911  59.1529703
  23.2697640   6.3283838  56.2016296  22.5911388   6.6765607  55.6232929
  23.2404194   6.8942274  56.9731236  69.2646503  60.5507708  21.5703464
  68.7765074  61.2562275  21.9949412  68.6062193  60.0748014  21.0642314
   5.3731451   6.8196977  35.9030485   5.2943430   5.8761896  35.7622409
   6.2239418   6.9281972  36.3280201  81.7493057  80.9979439  41.2680769
  82.3159504  81.3130188  40.5638885  81.1517906  80.3855896  40.8388519
  55.8648396  63.1898022  55.9935617  55.2794123  63.1002855  56.7455530
  56.3275766  64.0135527  56.1469841  25.2591000  10.2414335  71.5776730
  25.8321343   9.7450651  72.1620464  25.5831966  11.1405004  71.6312218
  14.5029389  60.9209633  50.8750391  14.6007954  61.4280558  51.6809654
  15.2992855  61.1062384  50.3773069  59.3937302  81.1863995  32.6837015
  60.2147007  80.7654572  32.4286604  59.4890118  81.3481903  33.6223054
  74.2200422  69.5517874  70.9122419  73.6284256  70.2256775  70.5774403
  73.7141228  69.1044521  71.5906000  63.3942223  52.0049477  87.6432514
  64.0767956  52.2422409  88.2709599  62.8874159  51.3244820  88.0863571
  52.1684822  28.2842676  16.0331781  52.2771057  27.3628990  16.2688120
  51.5487560  28.6250011  16.6782148  76.0229540  69.2535019  68.5935307
  76.8610573  68.9535761  68.9454651  75.4372549  69.2694092  69.3504524
  82.6036167  92.5382710  51.4633608  81.8037891  92.1411896  51.1186409
  82.9565144  93.0416965  50.7297039  54.2569447  89.8526096  73.3362007
  54.8485994  89.2663765  72.8644896  53.5100889  89.9633503  72.7478361
  97.8021812  48.3062983  45.1032305  96.9419193  48.6618567  45.3262901
  97.7370834  47.3740482  45.3103733  73.7040949  81.2707329  53.9297533
  73.5813808  82.0840645  53.4401941  72.9073334  81.1836052  54.4530153
  75.8122301  89.4802284  81.9362736  75.1851034  89.0738010  82.5343990
  75.6394243  89.0664291  81.0906124  74.2109108  73.1761503  57.5688219
  74.6093369  72.4058056  57.1637821  74.9023247  73.8379860  57.5562143
  80.4374313  54.2788649  55.6163406  80.4117393  54.6578932  56.4949226
  80.0863647  53.3951855  55.7263565  68.7477636  58.5294151  55.9153223
  69.2426634  57.7126503  55.8504725  68.7465954  58.8801193  55.0246859
 106.9179630  84.1391754  65.5332947 107.2715759  83.4616756  66.1096573
 107.2373867  84.9610806  65.9056664  53.5581589  83.5988235  86.1696243
  54.2347193  82.9462528  86.3503170  53.3586645  83.4859753  85.2402687
  65.9935570  75.6591654  64.5358276  65.7703733  74.8634672  65.0188208
  66.9498062  75.6940317  64.5604706  77.4458551  78.6452198  45.2258730
  76.7775679  78.1107664  44.7969341  77.8072929  79.1859007  44.5235491
  61.1193466  56.4687252  45.9766626  61.6868162  56.2938690  45.2259064
  60.8510733  57.3809719  45.8667946  39.5762229  67.0037174  63.6272335
  39.7730207  66.2102270  63.1293583  38.7669635  66.7982292  64.0953207
  27.8352952  88.1081390  70.8695745  28.7524581  88.0737686  71.1413574
  27.6288152  89.0423679  70.8409739  98.7786674  37.6088476  67.2654390
  98.0886459  36.9531274  67.3661184  99.5310688  37.2374415  67.7260685
  43.3939219  61.2202454  63.2542658  43.7556028  61.3788128  62.3823309
  42.5543356  60.7905817  63.0907965  63.6646271  55.1364470  54.2830420
  62.8190804  54.7405577  54.0719700  64.3019485  54.4410086  54.1205025
  92.0610809  38.7985682  83.1602764  91.1901093  38.4219313  83.2859421
  92.1710682  38.8359189  82.2101498  95.7467365  42.6954222  61.0881901
  95.6288433  43.3163214  60.3692865  95.8042336  43.2433748  61.8709230
  41.2660360  71.1829996  66.0705233  41.5188503  70.3347063  65.7062244
  41.0775232  71.7258358  65.3050041  14.4633973  76.6990280  34.2333579
  14.9246931  75.8603859  34.2441106  14.3766165  76.9365025  35.1565623
  86.6987991 102.8226948  42.1569872  86.6458988 102.9050922  43.1091642
  87.6113033 102.5887394  41.9871521  48.6826372  64.9083614  56.8025923
  49.3969679  65.0191259  57.4300432  48.9333105  64.1417265  56.2871599
  69.0473160  29.3917076   4.2828233  69.4837936  29.0421287   5.0596864
  68.1676945  29.0153972   4.3125970  51.5927219  86.7587471  43.1612158
  51.0718155  85.9687710  43.0169106  50.9491444  87.4662209  43.2001352
  77.7114248  81.0060406  50.9509420  77.0126152  81.2942886  51.5381527
  78.0353260  81.8126392  50.5500460  23.1008873   6.4226926  47.5094128
  22.5554810   5.7774366  47.9593134  23.9891968   6.0719694  47.5736904
  57.6284456  98.9101219  41.4913225  57.7832079  98.9708614  42.4339724
  56.6760397  98.8640785  41.4074421  65.1047707 100.1816845  53.7169123
  65.7768488 100.0205421  53.0546618  64.3407059  99.6962452  53.4058142
  71.7973328  84.9276161  24.2793870  71.0816479  84.5862865  23.7431788
  72.3739529  85.3694439  23.6560702  58.1551266  66.0743999  77.4464083
  57.3524475  65.5531073  77.4327183  58.3711767  66.1571264  78.3752298
  60.2995777  82.3791695  59.6354294  60.4923248  83.1206989  60.2092028
  59.8018599  82.7594376  58.9116144  27.2432971  80.7503700  46.7088509
  27.0341778  81.5499401  46.2259531  26.8742108  80.8934593  47.5803614
  47.0661116  81.0379791  75.8771324  46.6385746  80.2068901  75.6704140
  47.7411747  81.1336708  75.2052975  57.3011160  76.5692854  65.6698418
  56.4621449  77.0219135  65.5833197  57.8260326  77.1425200  66.2284994
  83.6400795  92.3226929  54.0604210  82.7597237  92.1219635  54.3780994
  83.5603046  92.3053360  53.1067085  53.2847166  93.2158566  49.7384596
  52.4769258  93.2067394  49.2250204  53.0010414  93.4288406  50.6275034
  55.6137133  82.2960377  54.5352888  55.2641249  83.1861401  54.5768881
  55.9634590  82.2173023  53.6477613  39.5827794  79.5762682  57.1642303
  40.0809765  78.7840128  57.3651409  40.1055384  80.0260353  56.5004063
  62.7231455  76.8057728  59.6159363  63.2745838  77.5675964  59.4376612
  63.3424425  76.1007547  59.8047590   9.5291649  63.4268236  49.5290518
  10.4418694  63.1447840  49.4686317   9.0358387  62.6162672  49.6550131
  98.4288979  86.7112827  74.3827629  98.4692383  86.1610603  75.1649809
  98.4572029  87.6072502  74.7184420  11.3956032   0.0390638  52.1237898
  11.9563351  -0.7279288  52.2401285  11.9871674   0.7852376  52.2212982
  91.8465589   7.6050294  75.9954834  91.4637874   8.0549921  75.2423239
  91.1738895   6.9814790  76.2692118  56.9885206  90.0115299  71.5041304
  56.9534683  89.6649742  72.3957062  56.8778753  89.2432499  70.9440136
  88.5066605  94.1541290  43.1922817  88.8739014  93.6926270  42.4383640
  88.1981373  94.9872971  42.8360748  72.6608229  87.8218842  80.6606579
  73.0421257  87.0760536  80.1974392  73.2726669  88.5406876  80.5018902
 102.8725815  59.8448706  74.0399218 103.6218357  59.8383522  74.6355867
 102.5444889  60.7432985  74.0775490  88.9033413  78.7269640  80.0155640
  89.6533680  78.1324387  80.0306225  88.6887074  78.8182974  79.0872192
  61.5311623  93.5297203  81.7478275  61.3940001  93.1114578  80.8978462
  60.9508896  94.2908955  81.7366314  92.8986143   2.7027048  67.2334957
  92.2806667   3.2786096  67.6837111  92.4027895   2.3503793  66.4944029
  83.7780094  98.3853912  61.2486601  82.9245472  97.9529381  61.2772083
  84.2391872  97.9577446  60.5270910  54.5393801  70.5363226  79.1671705
  55.4748964  70.6945276  79.0406418  54.2273521  70.2466536  78.3098698
  95.3291798  66.6791248  74.5863819  94.4285297  66.5022612  74.8579931
  95.7089806  65.8131504  74.4378090  29.7977101  71.8387604  21.0168409
  29.0395199  72.4066877  21.1540842  29.5207917  71.2311125  20.3310466
  52.4008322  99.5947075  75.4131508  52.3303652  99.5003223  74.4632244
  53.3357906  99.4991016  75.5946445  39.6754885  98.8028908  68.6073208
  39.8160505  97.9876518  69.0888357  40.5481482  99.0575218  68.3075571
  68.0359602  68.5448599  54.3498611  68.3250093  69.2407703  53.7596130
  67.9967499  68.9617682  55.2106094  81.2945366  56.5666008  50.8432293
  81.8805885  56.8515491  50.1421022  81.8687725  56.4389420  51.5983295
  72.4030781  96.1917782  68.0845356  72.9753017  95.4385662  67.9380655
  71.7071676  96.0938454  67.4346542  69.9972725  89.6508312  27.3514438
  70.8124924  90.1466942  27.2755289  69.8930979  89.2291641  26.4984632
   4.1884003   9.2985929  52.6414299   4.2419539  10.1871694  52.9932833
   4.8277721   9.2840684  51.9292307   8.8858090  20.4781259  86.9803333
   8.9164124  20.1943029  86.0666943   8.3784351  19.7992147  87.4251747
  60.6779289 100.2871895  53.6451340  60.8237267 100.4388237  54.5789289
  61.5363073 100.0320435  53.3070230  87.8498363  88.2537365  39.5878601
  87.9126930  88.4751415  38.6587429  88.7545013  88.2717228  39.9000931
  82.6541233  81.4823151  46.3006973  83.5622501  81.7228317  46.4842558
  82.1559048  81.8552017  47.0279980  50.6049109  92.8115177  68.7639093
  50.6273460  93.6235619  69.2701864  51.3901854  92.3372078  69.0370417
 108.5485363  79.3012571  59.3642378 108.2178020  79.6139336  60.2063084
 109.4275379  78.9756918  59.5581055   5.5005013  68.1246519  70.9435225
   5.8541237  68.6396265  71.6687727   4.9384629  67.4736500  71.3636971
  70.5518627  99.4749641  16.5657663  70.8241463 100.1635742  15.9592068
  70.6309032  98.6657810  16.0605800  65.4554129  98.5380173  62.7057981
  64.7566748  98.9255428  63.2328939  65.1434088  98.6107063  61.8038034
  57.6619244  70.8306217  88.7937737  57.4503565  71.6327190  89.2713833
  57.8773689  70.1951456  89.4764137  81.6817379  59.6930695  46.8163729
  81.5996552  59.4821596  47.7464342  80.8195210  60.0276566  46.5696573
  21.2831831  91.3336945  39.6634364  20.5007648  91.5987492  39.1799092
  21.5036631  92.0960045  40.1986933  53.6695528  74.8782396  54.5745039
  54.4974375  75.3564978  54.6203756  53.8740349  74.0112972  54.9249697
   5.6335173  23.6870492  44.0631104   5.3888664  23.8020624  44.9813414
   4.8296890  23.3903516  43.6364222  81.1256790  95.4307938  76.7742395
  80.4667187  94.7813225  77.0195532  81.2848091  95.2709675  75.8439875
  61.8735600  80.0168228  32.7154350  62.2521067  79.7116184  31.8909431
  62.5570345  80.5616570  33.1056213  98.1069444   3.6581338  47.9323292
  97.7457069   3.0608381  47.2773647  97.4819969   4.3823637  47.9665852
  64.4903803  98.9560318  70.3312206  63.8648272  98.5493183  70.9308004
  65.0137758  99.5336819  70.8867550  68.2986879  84.6546173  78.2824373
  68.1841135  83.7343502  78.0453300  67.4744368  84.8977375  78.7040234
  78.6066055  85.2929401  49.3069553  79.1202116  85.7044506  48.6119080
  79.2530155  85.0462627  49.9684238  76.6233158  67.3340988  60.6764555
  76.5798664  66.6053343  61.2955236  76.8539715  68.0916834  61.2141323
  49.3667984  75.8098459  59.5509863  50.0136185  76.5106344  59.6331644
  48.9358807  75.7802629  60.4051924  75.7557774  95.2907085  39.8837233
  75.8723164  94.4470406  39.4468260  74.8552847  95.5434895  39.6801424
 100.0926803  13.1933988  50.6496620 100.9286665  13.6441244  50.5304527
  99.6730350  13.6551012  51.3755846  54.8299122  67.0349932  52.0968103
  55.4509163  67.0901155  51.3704872  55.3625298  67.1798325  52.8788376
  90.3314877  68.7693787  72.2668791  90.7552052  69.6193218  72.1473598
  90.5648518  68.2729912  71.4824200  55.8939266  92.7709007  84.1124153
  54.9941063  92.9272079  83.8258362  56.4340830  93.0813980  83.3857441
  72.0420551  82.1144009  80.2666950  72.0565557  82.4912071  79.3869066
  72.8296614  81.5719891  80.3079510  90.8423328  94.7380352  67.9903555
  89.9742985  94.8408508  68.3804512  90.8359432  95.3244686  67.2338581
  68.5553932  92.1731663  24.8966527  68.8449144  93.0709743  24.7343040
  69.3638229  91.6857529  25.0550890  56.0206938  68.4777403  58.5355330
  55.7579327  68.9579868  59.3207407  56.8621635  68.8622618  58.2899714
   0.9011875  65.0101852  46.4350176   1.5141999  64.4025993  46.0211420
   1.4595543  65.6503153  46.8762541  55.7232237 103.0170918  20.3693557
  56.2033224 103.0422211  21.1970687  55.9244490 102.1564960  20.0017858
  53.5369110  50.6887007  24.4195914  53.6074066  49.7426128  24.2924118
  52.6372957  50.8977890  24.1681767  18.4494244  42.3592234  50.3011703
  18.3923661  43.2758904  50.5707884  19.3133103  42.2819948  49.8962402
  80.7191944  87.6498318  49.3809891  80.8208656  88.3813667  48.7721014
  80.1501369  87.9901314  50.0713491  77.6541758  65.5235291  29.6326375
  77.2151232  66.3241339  29.9198627  78.4237862  65.4564619  30.1978183
  56.7832279  65.8508921  57.4749088  56.6907835  66.5643501  58.1063032
  57.6663494  65.5127478  57.6232052  49.2484331  94.7536755  54.6386576
  49.6748114  95.5518818  54.9505901  49.3447828  94.7869301  53.6869001
  92.8491901  20.7754911  40.4396629  92.9288648  20.0698102  39.7978687
  93.4642051  20.5385126  41.1337996  76.6037607  89.1028023  69.3293190
  76.9865131  89.0692806  70.2060223  77.3572016  89.1042328  68.7389326
  84.1763948  17.4026502  79.2477560  84.4485401  17.0050348  78.4206724
  83.8597606  16.6683115  79.7737980  20.4572424  56.2037841  17.9726942
  19.8115047  56.9033519  18.0719717  21.0639700  56.3326446  18.7017400
   6.7261063  78.1096935  41.3777018   7.5431000  78.4461117  41.0094881
   6.0786949  78.7872934  41.1829233  78.1169987  63.3052206  46.7490578
  78.0606318  63.3877277  45.7970858  77.3885059  63.8314390  47.0786285
  67.6833344  71.0801601  52.7709818  67.0441723  71.2301350  52.0744133
  67.2357035  71.3570690  53.5704708  13.0531750   0.4308332  39.6084952
  12.1092472   0.3341020  39.4824719  13.2052860   0.1436151  40.5088282
  88.1317711  77.4570847  12.8435171  87.3739529  77.2854328  12.2845125
  88.2761288  78.4003401  12.7683020  55.6966305  66.7948818  55.1536989
  56.0911560  66.4516783  55.9554434  54.8495054  66.3530540  55.0954723
 102.2450352  55.2372694  42.2715998 102.4479771  55.3683662  43.1978083
 101.8685436  54.3581581  42.2309971  67.7470303  70.8892870  11.4359713
  68.2799864  71.1710501  12.1794760  66.9002867  71.3139105  11.5736592
  63.6234999  58.9222336  45.5055952  63.3414316  59.7915840  45.2211618
  63.3256006  58.3346605  44.8111534   6.7604100 100.5078220  59.9715376
   6.7017208  99.8291779  60.6440163   5.8501946 100.7083321  59.7535276
   9.9967823   4.7301782  85.6874657   9.0916023   4.8750604  85.4119778
  10.2193127   5.5087293  86.1979198  17.2822247   0.5645002  84.0610790
  17.5817928   1.4468206  84.2801571  16.3384113   0.5858530  84.2191696
  30.4615650   1.1763586  36.5177774  30.3237782   0.5517210  35.8056855
  30.7385597   1.9812883  36.0800600  58.2272768  66.0431147  53.0976868
  57.6352882  65.5278444  53.6456680  58.9285421  66.3129902  53.6906672
  76.1060476  82.6824188  37.2899222  75.4244804  83.1900120  36.8494129
  76.6871691  83.3411121  37.6702476  93.1306934  99.1385555  75.7202005
  92.2429657  99.4161987  75.9462214  93.3299446  98.4412861  76.3449717
  83.6187363  67.5141811  60.4168463  84.3513012  67.9149103  59.9488735
  82.8515530  67.7214289  59.8832655  36.5346989  44.2518894  19.4156225
  37.2839674  44.5716850  18.9130838  36.6825470  43.3092967  19.4924314
  12.4740181   0.2779497  71.9052076  11.7206249   0.4987443  71.3576031
  12.3167667   0.7421792  72.7273941  67.1998295  66.8254463   8.3215196
  67.4185261  66.5747348   7.4239977  66.4944061  67.4653999   8.2263048
   8.9649162  19.4606698  46.6210365   8.9444695  20.4013837  46.7967367
   9.8071823  19.3157686  46.1899710   3.3599030  82.1157074  73.6304426
   2.8517567  82.4324322  72.8836536   2.7761875  82.2252846  74.3811035
  79.8967266  57.1027517  79.8665810  80.1758957  58.0174303  79.9073172
  79.4144201  57.0360136  79.0424728  76.3304949  94.5462799  66.7044020
  76.9340992  95.1311207  67.1625042  75.5549335  94.5159245  67.2645950
  92.3522758  66.3159800  31.4416409  91.6995430  66.3981199  30.7463598
  92.2430038  65.4229689  31.7684674  97.3286152  77.5544310  85.1621819
  98.1377983  77.9939222  84.9008369  96.6392040  78.1922293  84.9773598
  29.2608414   3.9305604  40.4930162  29.1797695   3.4084810  39.6948385
  28.6001930   4.6167482  40.3985214  83.6943436  91.4872646  80.0516415
  84.5697212  91.6573048  80.3995419  83.4139156  90.6842709  80.4907131
  74.8459578  68.8031387  51.1349010  75.3772402  68.7588263  50.3399134
  75.4824066  68.7849331  51.8496275  78.1484985  81.7174244  58.3070517
  78.2104158  82.4415779  58.9299440  77.4684381  81.1486053  58.6678743
  65.8827591  79.9383116  24.3651271  66.3901329  79.4687986  23.7030387
  66.3516617  80.7641315  24.4851065  75.3682995  38.2880378  73.5936594
  74.4515944  38.5635209  73.5930920  75.6455278  38.3764696  72.6817656
  80.6510353  93.6064911  40.2243423  80.3533077  93.8092136  41.1111879
  81.6038799  93.6868668  40.2673340 106.7285990  25.3945650  73.5917330
 107.5252842  25.3300298  73.0650806 106.0434936  25.6212915  72.9628754
  12.0131241  86.5811539  85.6156826  11.7120396  86.2302113  84.7775745
  11.2433373  87.0144844  85.9843159 107.4043941  80.0887966  19.5304787
 106.9769096  80.9375381  19.4158208 108.3120537  80.2402401  19.2669678
  91.1980915 101.5954399  32.0729947  90.5527782 101.3671398  31.4038992
  92.0407581 101.5375614  31.6226697  81.4744568 101.5628719  39.8628283
  81.2547398 101.6867542  40.7861996  82.0914268 102.2679615  39.6667576
  88.2223225  88.6961079  36.5274382  88.6776733  88.1372929  35.8976650
  88.4865189  89.5857716  36.2930751  88.2948183  10.0773061  53.4682465
  88.0148052   9.3823064  54.0638971  88.7185501   9.6160902  52.7443981
  66.4229822  99.1438770  81.3911057  66.1628246  98.4237099  81.9654751
  67.3727703  99.0556049  81.3114643 108.5309792  80.2110100  79.6270895
 108.5013103  80.2136803  78.6703539 108.8063717  81.0974884  79.8606443
  89.1943359  66.4604902  68.1522751  89.8523140  67.0483828  68.5233259
  88.8732624  65.9574986  68.9007044 108.4622955  58.1411409   0.9585395
 108.3329105  58.8953781   0.3835457 107.8201103  57.4980211   0.6581636
 100.6946300  12.4042619  32.6829672 100.3066658  13.0054010  32.0470786
 100.6835531  12.8888525  33.5083652  24.2346058  15.9869302  85.8248806
  23.9379177  15.2732004  85.2602577  25.1750050  16.0495389  85.6576347
  89.7015285  55.5047369  85.7845497  90.4387474  56.0967779  85.9336472
  90.1074791  54.6543550  85.6163692  28.6383877  28.9670766  27.2131753
  29.5704136  29.1794790  27.2625637  28.3894501  28.7700857  28.1162024
  67.8878568  12.6311029  83.5381699  67.4724482  13.4665407  83.3243752
  68.8112234  12.7603830  83.3215809  65.0320578  85.3129101  61.6412830
  65.2455330  86.0858440  61.1185694  64.6149397  84.7132015  61.0227394
  69.9645901  77.4803638  70.8237839  69.1335630  77.4246788  70.3520584
  70.5962467  77.0496082  70.2478552  70.3580332  83.2413006  64.9979544
  69.8814392  84.0309715  65.2539253  69.7295952  82.7401733  64.4781780
  67.9620171 103.1268978  51.2991524  68.5363293 103.2347775  50.5410194
  68.0745029 102.2118473  51.5565586  83.8366127  81.5769768  75.0013494
  84.1010475  80.6897831  74.7580433  83.2043934  81.4528179  75.7092428
  88.6746620  11.9181646  63.5938120  89.0436386  12.4349798  64.3100500
  88.4663938  11.0725988  63.9911461  85.4636383  99.3104172  44.4092369
  85.8471012  98.4646320  44.6412659  86.1525059  99.9465656  44.6016026
  65.0868893  69.3020487  51.2477779  64.9982929  69.1624880  52.1905947
  64.7211981  70.1740980  51.0993338 106.2563515 100.8010197  51.6559792
 105.4450989 100.3239346  51.8305874 106.0528278 101.7093182  51.8791676
  74.9086428  62.6496744  38.0450559  74.2314816  62.5767899  38.7176418
  74.4846344  63.1218481  37.3284650  74.9179459  93.9690495  64.3354464
  74.0429115  93.7669563  64.6666622  75.3628445  94.3862343  65.0731850
  15.6129488  69.8643390  15.5711038  15.1850447  69.0469829  15.8261640
  16.5120920  69.7724525  15.8862646  61.7559910  88.9008427  59.3629742
  62.0116282  89.5650959  58.7229347  61.5789652  88.1193352  58.8393927
  90.6533527  85.9872818  75.3111172  89.9576950  85.8437252  75.9527397
  90.5261707  86.8895054  75.0177765  94.5764446  85.7237339  86.8168449
  94.1630268  85.0141811  86.3250732  94.0875816  85.7619286  87.6389027
  76.7578840  66.8399096  57.2173691  76.9811821  66.2685633  56.4825678
  75.9083223  67.2125101  56.9814825  77.1295046  14.5464147  54.0752745
  77.4629377  13.7345041  53.6933565  77.9059528  14.9826253  54.4261026
  65.0123835  94.4459057  61.3023901  65.8737183  94.8175907  61.4926100
  65.1259756  93.9936733  60.4664421  53.2862854  90.0025845  42.8787899
  53.2873011  90.4853439  43.7053299  52.9015493  90.6101322  42.2470427
  31.7403160  99.9704456  29.3165898  31.7205941  99.2020798  28.7460995
  30.8630978 100.3462696  29.2426062 100.4214191  71.0826349  46.1764383
 101.0685825  71.2671757  46.8571424 100.3035831  71.9184637  45.7250690
  -0.0074829  75.8328056  47.2444439   0.2851521  75.6806707  46.3458586
   0.7359062  75.5684948  47.7864218  68.9997958   3.1338991  58.5898256
  68.7369512   2.6805032  59.3908119  68.2448958   3.6771024  58.3633566
  62.1094608  87.4340439  37.6634622  62.3343277  86.6825581  38.2120466
  62.8847933  87.5743580  37.1199489   5.6139122  30.2590084  84.2391014
   5.9776245  31.0900116  83.9335251   4.8711621  30.0945783  83.6581516
   0.1781975  94.8655033  87.7174091  -0.6947864  94.4783592  87.7826214
   0.7650029  94.1166878  87.6117897  95.9126759  49.7835016  50.0956154
  95.5250359  49.6657324  50.9628487  95.8963680  48.9096451  49.7053003
 101.7058586   7.1281064  52.7527475 102.1932815   7.5050653  52.0202494
 102.3535322   6.6091360  53.2296324   5.4486809  22.4927534  68.2330751
   6.0522804  22.7203763  67.5259113   4.8673306  23.2498086  68.3047390
  72.4132586  92.9725170  55.7998466  72.6755810  93.6749172  56.3948679
  71.5997601  92.6335144  56.1733818  71.5108633  98.5250950  87.5395393
  72.4376011  98.6638165  87.3442268  71.4719534  98.4772205  88.4947491
   5.6397543   2.1562112  53.7876129   5.8819065   1.5393842  53.0968714
   6.3455067   2.8028501  53.7894964  35.7254849   2.9510225   1.9935508
  35.0180683   2.3582185   2.2472861  36.3462601   2.3952878   1.5223601
  10.5627117   5.0528444  20.8823204  11.3859806   4.5677675  20.9385872
  10.5723343   5.4402841  20.0070930  41.8505001  82.8831100  55.0748110
  41.1959457  83.4949780  54.7380543  41.4261341  82.0266151  55.0242329
  79.8555326  78.6188316  56.1186314  79.0404034  78.4649086  56.5962315
  79.7850227  79.5219278  55.8093119  44.1135486  36.6978923   1.1445291
  43.3172783  36.1711971   1.0754068  44.3044266  36.9626800   0.2447088
  42.0257902  88.4381294  34.4615626  42.4119997  89.0684986  33.8535309
  42.1078444  88.8526154  35.3204560  65.6991291  72.0813560  62.9597425
  66.4974451  71.9419098  63.4691334  65.8384466  72.9206467  62.5210905
 100.1857399  14.9956048  62.3780012  99.7370838  14.3840803  61.7940712
  99.6496080  15.7881654  62.3525286  23.6085758  33.3697713  55.1947165
  23.4504948  34.1853918  55.6701136  24.5455990  33.3839429  54.9997330
  66.2222576  80.5781841  45.0936127  66.8411779  81.1737156  44.6711063
  65.6038189  81.1544991  45.5426359  98.3650303  84.0266609  24.3129873
  98.6319733  84.9457264  24.2959690  98.2270908  83.8344574  25.2404881
  62.2769737  68.9094019  58.7882471  62.1731567  68.3361292  59.5477295
  61.8516302  68.4376621  58.0721617  79.1221189  68.1852484  57.8426313
  78.2502222  67.7912521  57.8144407  79.0733767  68.9188480  57.2296953
   6.3288723  85.2238369  15.9469950   6.5242516  84.7675133  15.1285636
   5.9182106  86.0435772  15.6720293  53.9864492  82.2123814  56.7485571
  54.4788647  82.2492313  55.9285593  53.3115721  82.8844357  56.6530848
 101.7375660  89.2660999  81.6410732 102.5237274  89.3080044  81.0966206
 101.0200500  89.4721985  81.0419655  79.3769503  95.0942516  82.9750633
  79.8795748  95.8407211  82.6488876  78.5313559  95.4661083  83.2259178
  70.8040142  96.7045116  46.9698429  70.3998947  96.0256577  47.5102806
  71.0630798  97.3837376  47.5925541 106.7287636  87.6729584  55.3018093
 107.6098728  87.3497868  55.4900789 106.2353706  87.5048923  56.1046457
  54.6520090  86.7467213  34.2787576  54.3493938  86.9018364  35.1735187
  55.4434490  87.2789955  34.1979265  59.4259437  35.5169956   5.4267366
  59.0991958  36.3877002   5.6533106  59.9254211  35.2411357   6.1952741
  80.4495335 101.1179256  53.5371065  79.6585369 101.5841579  53.2665825
  81.0600376 101.8097591  53.7918234  94.1570663  91.0554790  71.1983442
  94.2370701  91.7855930  71.8121433  94.9546432  90.5429935  71.3304710
  31.2918171  36.4197532   5.6638868  30.5870041  35.9706394   6.1305483
  31.8327888  36.8002502   6.3558443  94.9062252 101.0788441  53.8763237
  95.7760334 101.2760162  54.2238855  94.3463326 101.7729568  54.2241192
  75.9399033  59.3044758  58.9102840  75.4944038  60.1268625  59.1138554
  76.3885260  59.4737959  58.0818510  71.4134264  76.0654879  60.5071640
  71.8410301  75.2900600  60.1437092  71.7572498  76.1332464  61.3979053
  92.1781610   0.3443826   5.2991927  91.7014860   0.9918798   5.8185750
  93.0964350   0.4779066   5.5340892  40.8713341  82.3245811  58.0586052
  40.8101177  83.0112362  57.3945427  39.9622250  82.0905972  58.2457018
  65.1965570  79.0941191  16.1205900  65.3770971  79.2390013  15.1918018
  64.2541838  78.9307117  16.1587572  64.7503948  27.8989935  30.0626993
  64.6690893  27.8061795  29.1134858  64.1149044  28.5769629  30.2923656
  36.0199022  61.6183758  45.4443550  36.6964364  62.1835852  45.8172750
  35.6029463  62.1560478  44.7710896  61.3566589  69.9176216  54.8606110
  60.5389071  70.4025030  54.7492313  61.2974310  69.2000389  54.2299032
   8.5614452   8.6489023  57.6503563   7.7504501   9.1423429  57.5277519
   8.7702522   8.3110727  56.7794371  53.2862139  89.4857121  64.1891479
  52.8362942  88.8185406  63.6708021  52.5873184  90.0655365  64.4917727
  58.4091949  79.2359734  69.4216442  58.7268972  78.3469772  69.2635775
  57.6708889  79.3368340  68.8208437  70.5922699  71.3351107  73.1540585
  71.4550972  71.0130835  72.8931761  69.9818707  70.8840847  72.5707722
  44.1955328  96.0710526  52.9402637  45.1270533  96.0667515  52.7200794
  44.0901756  95.3407669  53.5500240  73.4820865  13.5262216  43.2175159
  72.5564431  13.5167898  42.9739475  73.9490889  13.5604585  42.3826694
  82.9459953  89.2388153  81.2578011  82.2231388  89.6236420  81.7533970
  83.0402851  88.3568382  81.6175938  11.1537396  88.0845737  56.6106224
  11.8838536  87.4906540  56.4362144  10.9426628  87.9402447  57.5330353
 102.8570271  84.2165565  36.2221503 102.8213120  84.6485233  35.3687143
 103.7386227  84.4000340  36.5467525  75.7694197  61.4957094  48.4507895
  75.6139278  61.2613153  47.5358486  75.5086851  60.7184076  48.9448071
  75.8464146  51.4998579  32.9543495  76.8000603  51.4192963  32.9719043
  75.5326509  50.6042194  32.8293729  18.5101185  16.2874616  18.0008769
  19.1768990  16.8877614  17.6672864  17.6878891  16.6175664  17.6386690
  20.9633694  36.3754571  25.6562662  21.2960396  36.0103906  24.8363328
  20.6510601  37.2489465  25.4202533  75.3650141  60.5168438  27.6503277
  74.8444176  61.0578346  27.0565772  74.9009085  60.5638075  28.4861684
  88.9658356  70.2052402  46.2144375  88.5566616  69.5215130  46.7448330
  89.5643044  69.7332239  45.6354141  64.1975784  86.8511963  63.9215279
  65.0511265  86.7802620  64.3489075  64.2589998  86.2673092  63.1655264
  69.5269918  57.7490234  30.0790644  69.6142006  56.8145227  30.2670431
  70.4279661  58.0629969  30.0023055  76.4824533  76.7417526  12.2950184
  76.6984701  76.8339634  11.3670826  77.3005772  76.4603758  12.7045727
  75.7029104  86.6802979  56.4556313  75.0049829  86.8391991  57.0911503
  76.1552620  85.9040165  56.7857599  41.4829016  75.4810476  63.9391899
  40.7306814  75.2707338  64.4925117  42.2379351  75.4058838  64.5227146
  93.9187336  76.6797256  78.8007116  94.2994118  75.8238268  78.9975834
  94.5298672  77.0766401  78.1800652  99.0281868  89.9905682  79.8720980
  99.1868973  90.5642223  79.1224575  98.3243465  90.4204941  80.3579044
  71.2973928  84.2964268  61.5339565  72.1021843  84.3577480  61.0193825
  71.2390566  85.1368618  61.9883919 107.2613621  85.0118637  42.5678635
 106.9407940  85.4363346  43.3636570 107.1146011  85.6572914  41.8763971
  88.1764221  91.4464569  40.1650810  87.8553391  90.5651855  39.9740267
  87.3844624  91.9623184  40.3164673  47.2894081  37.2212020   7.3133714
  46.5043625  37.1283046   7.8530939  47.2174724  38.0973998   6.9347818
   5.4562149  27.3392213  44.9579144   6.3207445  27.7395643  45.0503683
   5.2241573  27.4796689  44.0399504  20.3637276   0.0326265  54.6006393
  19.5400677  -0.3301322  54.2747307  20.2054844   0.9750951  54.6549797
  65.4756626  61.8692676   1.2845190  65.0310215  62.0564071   2.1112592
  66.2601074  62.4174110   1.3050230  84.1133308  81.6129112  71.2460661
  83.7374783  81.9493961  70.4325867  83.4356594  81.0392666  71.6037178
  96.6453457  82.3631573  85.4902172  96.2393761  81.8600082  86.1960983
  97.4369240  81.8718719  85.2705002  89.7956085  96.4249802  64.8898745
  89.3663692  97.2642612  64.7237492  90.6785870  96.5334797  64.5366049
  85.5521584  84.4519424  62.5402641  85.2153778  83.7617016  63.1115675
  85.1760769  85.2587891  62.8921032  89.6217045  37.9016582   1.2769182
  90.1507362  38.3807842   1.9147260  89.4439873  38.5395137   0.5857046
  24.4584926  26.6257469   5.1505239  23.8713583  26.1768762   4.5422323
  24.5709404  27.4988309   4.7746046  95.4598808  83.6608219  58.3799076
  94.9058914  83.2704258  59.0558720  95.1281834  83.2972336  57.5589228
 103.4216665   4.8898328  48.6857796 103.3422922   3.9622034  48.9081383
 102.5582956   5.2565492  48.8764095  82.2276783  71.6459322  60.9177113
  81.5135193  71.9562531  60.3610134  82.2642803  72.2784853  61.6351891
  71.6033888 103.2326412  24.8470902  70.9590483 102.6591778  25.2620578
  71.6992426 102.8835201  23.9609957  54.9611187  91.1363506  78.6453915
  54.8940229  90.4745293  79.3336678  54.4815445  90.7625484  77.9061222
  49.3080139  79.5118141  20.3228331  49.9876785  79.0941715  19.7938180
  49.0305185  80.2666569  19.8037529  76.7695951  80.8387089  68.1601477
  76.9146824  80.9798145  67.2245884  75.9574032  81.3082981  68.3500671
  12.5010452  11.9017900  65.8027315  12.6889954  12.0389188  66.7312288
  12.0206986  12.6860155  65.5372286  10.5633793  31.1209215  45.0499630
  10.9092388  31.1416448  44.1576719   9.7001324  31.5288366  44.9817705
  63.9451790  82.0687103  82.3684406  64.6380568  82.1504784  81.7131138
  63.6910295  81.1464882  82.3344994  95.2978039  94.5132732  69.5187283
  96.0298634  93.9665985  69.8041725  94.9225998  94.8541546  70.3306723
  70.8781433  93.9141846  63.6768913  70.5208921  93.4594917  62.9140997
  70.4222965  94.7557831  63.6892700  17.2326981  91.2244797  77.3596859
  18.1463467  91.4777660  77.4913168  17.2258889  90.2762127  77.4899530
  11.2800846  44.8071493  47.5808477  11.7122517  45.6572832  47.6628733
  11.1231003  44.5301736  48.4835482 104.6476841  88.4471321  64.1345119
 105.1149559  87.6323128  63.9501810 104.4692707  88.8213539  63.2717514
  78.1126690  92.8640366  48.5909939  77.7484512  92.0050144  48.3773041
  78.8459587  92.6744175  49.1762877  98.6608671   4.9593938  61.2064648
  98.5239815   4.4704736  60.3950119  98.3717941   5.8486856  61.0019445
  11.1272965  31.1240018  70.1991224  11.6201553  31.7491353  70.7306528
  11.7564068  30.8159078  69.5467997   2.3347769   4.4183839  57.4168491
   2.7939758   4.3961156  56.5772820   2.6374683   3.6350931  57.8762579
  75.3876257  98.3994293  80.6382275  75.1927423  99.3350506  80.6917667
  74.6046257  98.0137920  80.2452564   7.4642334  13.1489480  43.0380440
   7.7478752  12.7367414  43.8540459   8.0816994  12.8285039  42.3805714
  89.7707748  81.3626575  38.0743909  88.8769913  81.6980839  38.0044913
  90.2403164  81.7797852  37.3520613  90.8992752  70.2954761  13.8780458
  90.1533398  69.7458831  13.6377294  90.9930214  70.1723567  14.8226507
  98.5053444  79.0294027  34.9575901  98.4054756  79.9730539  34.8319483
  99.2681980  78.9433050  35.5293179  99.1837597  91.8227673  38.7858939
  98.2724667  91.5854740  38.6142087  99.2463207  91.8580437  39.7403955
  48.3980465  72.6821804  62.7287865  47.8593206  72.8619385  61.9582701
  49.2850780  72.9241371  62.4625826   1.7293011  89.3905926  60.4844761
   1.2008225  90.1852512  60.4106283   1.1152779  88.6774635  60.3094006
  18.2025299   2.8655160  31.5670872  17.5626144   2.1582712  31.4861250
  17.8601418   3.5634054  31.0085607   4.5283661  17.7310098  70.7646418
   5.3284702  17.2688783  71.0146427   4.8276720  18.4321989  70.1858664
  96.8650723  80.8420181  56.2301493  97.0390320  80.3038216  57.0023632
  97.3773003  81.6379833  56.3726234  20.2080761  92.9903984  11.7271602
  19.3141972  93.2074928  11.9918883  20.2085148  93.0962276  10.7758296
  75.5304480  91.1808777  67.8920984  75.9261274  90.3845406  68.2463932
  75.2299690  90.9307480  67.0183849 107.1628189 102.1848965  70.6144524
 106.7285538 103.0361748  70.6689644 107.9775238 102.3613167  70.1439524
  31.1247788  48.2595361  50.4716444  31.2692032  49.0985979  50.0342226
  31.0104427  47.6333154  49.7567940  61.6919231  83.2813835  50.2922678
  62.0553112  82.5742435  49.7592258  62.2699022  83.3285522  51.0538101
  88.1072506  27.0206777   5.0972040  87.3979744  27.1491758   5.7270010
  87.9668030  27.6990119   4.4366224  95.9896374 100.2975273  31.8715572
  95.9133720 101.2309170  32.0695114  96.2112808  99.8922157  32.7099109
  26.8152485   9.1622079  47.2975588  27.6706944   9.3197645  47.6970720
  26.9170342   8.3312429  46.8334675  85.6662655  96.0724831  89.3691540
  85.0677967  95.3861618  89.0741539  85.2470684  96.8889332  89.0972710
  78.7311252  30.3020946  21.8094213  77.8059086  30.2284614  22.0434816
  79.1716560  29.6639148  22.3705633  85.7043098  10.9004796  51.1598015
  85.5404352  10.7409872  50.2303171  86.2873005  11.6595376  51.1734152
  88.1116390  69.5192766  84.4555759  87.8837013  69.6444082  83.5343742
  87.4993896  70.0799179  84.9320889   5.2926407   7.9540361  77.7143764
   5.4991493   8.7655080  78.1781721   4.5531044   8.1817544  77.1509361
  84.5433617  98.2647610  56.8937969  84.4825745  97.3982906  56.4915848
  84.6393204  98.0881882  57.8296661  89.8278141  93.5712433  78.1722116
  88.9817142  93.9082146  77.8775978  89.6113205  92.9714394  78.8860750
  59.8876047 102.5497627  50.8811092  59.9948740 103.1221676  51.6407681
  60.7742786 102.2509003  50.6793070  20.5970726   0.8573450  68.1969357
  19.7355805   0.9443010  68.6049891  21.1960754   0.7154764  68.9299488
  27.9718170   8.5993780  78.4463167  28.4215126   8.1351961  79.1523933
  27.0459805   8.5615171  78.6863852   0.5802285  73.8631201  23.2550526
   0.7827603  74.3253660  22.4417019   0.9779106  74.3995762  23.9408302
  73.0247450 101.3892174  53.6206007  72.4660778 101.3748360  54.3977165
  73.8874626 101.6405296  53.9504433  74.6103525  90.0366592  20.7461357
  74.4557285  89.5424461  19.9411023  73.7723303  90.4603004  20.9318066
  97.6589108  90.0342178  51.0325193  98.4710121  89.7156525  51.4265347
  97.8803444  90.9026909  50.6964302  11.0483776  89.3157673  52.3089027
  10.3678452  89.8470688  51.8955946  10.6183373  88.9252567  53.0696917
  31.6240177  19.1169847  78.9254570  31.0088596  18.5031045  78.5242653
  31.4483414  19.0529741  79.8642206  91.4012884  26.3627065  85.3598976
  90.5701517  26.1313261  84.9452782  92.0354484  25.7537282  84.9814701
   1.0842667  26.9976438  47.7631712   0.5122624  27.6600946  47.3756027
   1.9646463  27.2476781  47.4827385  28.8471851  13.3865751  20.1738310
  29.1702995  13.3519948  21.0741806  28.4431515  14.2509569  20.0973916
  88.8567162  78.5738182  69.9267244  89.4230461  78.0101299  70.4537439
  88.0620575  78.0572033  69.7930956  12.6483593  23.7919916  44.2102957
  13.0408344  23.8074888  45.0831938  12.1655903  24.6163286  44.1500759
  53.1796598  87.3335934  53.2121801  52.8328800  87.6665592  54.0398932
  53.5179138  88.1093121  52.7648687   9.0913162  12.8488935  65.6687927
   9.2778740  13.1809915  66.5469313   9.7446976  13.2694734  65.1098442
  63.0206728  83.4551239  65.6710148  63.9255905  83.3535480  65.3759909
  62.5123692  82.8992271  65.0803804   4.0844666  97.4674129  78.2471561
   5.0337826  97.5717068  78.3115768   3.9514481  96.9833088  77.4321842
  78.6321424   1.7631544  74.5374012  78.8252233   2.6043237  74.1234112
  79.3203281   1.6557897  75.1939869  61.7060852  85.8998203  52.1955013
  61.8026066  84.9476624  52.1775913  61.2448740  86.1091232  51.3832760
  88.5813879  16.5834344  77.3324919  89.4819092  16.2750448  77.4334669
  88.2550787  16.6673578  78.2284307  89.9149895  96.2192631  60.8667612
  90.4746246  95.9366512  60.1434565  90.1490402  97.1368694  61.0062790
  75.3815174  90.2136040  62.1545458  74.9437141  89.5084763  61.6777277
  76.2772846  89.8994160  62.2775126  68.0482912  82.2736835  82.7654171
  67.7244520  82.4095917  81.8749714  68.2569742  81.3403225  82.8045273
  44.6075615  16.5674678   1.3506181  43.8026604  16.2421647   1.7538030
  44.5176872  16.3458625   0.4237707  88.8657570  92.6477146  47.1273279
  89.5753956  92.9014492  46.5371895  88.0668640  92.8175926  46.6281843
  65.2106094  55.6109810  40.1533937  64.3511724  55.2554560  40.3796625
  65.8291054  55.0800896  40.6552362  61.4942417   0.9251035  58.9473486
  62.3251972   1.3192667  58.6820412  61.1779461   0.4807867  58.1607294
   5.3227816   7.9715932  60.6771040   5.1289091   7.4498380  59.8983765
   6.2154589   8.2876218  60.5375242   8.2101688   3.3079351  88.4749317
   9.0243588   3.4770883  88.9489841   7.8635845   2.5087751  88.8717365
  91.2418842  79.2140865  72.9039478  90.9353352  78.9953423  72.0239401
  91.2439919  80.1710320  72.9258633  77.4801207  86.6669369  62.4757242
  77.7549744  86.7626667  61.5638447  76.5239763  86.6967678  62.4420786
  86.7758560  91.3580513  73.6968613  87.4464226  91.4969921  73.0280828
  85.9467602  91.4467144  73.2267761  75.6203318  94.4728184  42.4496126
  74.9232721  94.9740601  42.8728199  75.7101393  94.8712540  41.5839243
  98.1294512   2.1740259  31.5284371  98.1086658   2.8152002  32.2388577
  99.0396427   2.1742357  31.2321663 104.9076176  79.7701073  62.2693682
 104.5822811  80.4011440  61.6273594 105.8578205  79.8850822  62.2579718
  44.8276600  56.2060157   4.3841608  44.1679462  56.5749923   3.7969167
  45.4015716  56.9430820   4.5929392   9.6696053   7.5377096  40.8514309
  10.0063095   8.2848752  40.3568506  10.4328785   7.1944059  41.3159657
  68.6407137  97.3752213  87.5892830  68.5705423  96.5589333  88.0842304
  68.7694168  98.0495071  88.2563686  86.6360188  87.4133015  33.1237841
  87.1856213  87.0191860  33.8011646  86.2878132  86.6680717  32.6342678
 108.8722061   8.5379327  32.9576206 107.9190611   8.4500326  32.9533291
 109.1740917   7.8439916  33.5437441  88.5435104  81.7591000  47.7402163
  88.3440495  80.9003258  47.3674536  87.6946163  82.1019459  48.0196190
  84.4407772  10.5504049  39.4042468  84.0273498  10.8174528  38.5832763
  85.3655456  10.4416288  39.1824245  62.8678179  82.8278923  68.6676264
  62.8703976  82.8089237  67.7106190  62.0746613  83.3129025  68.8954401
  23.9193592  15.1829256  49.5806789  23.3108196  14.4681848  49.3934631
  24.3239842  15.3804315  48.7359905  94.6564173  21.6715539   4.7132006
  94.9848388  20.8696950   5.1198936  93.7926124  21.4330400   4.3767709
  22.8216587 101.2766933  55.4581976  22.0729195 100.7236385  55.6812286
  22.8257881 101.2997437  54.5012808  75.9375238  88.2551765  54.3369532
  75.8823872  88.0733776  55.2751112  76.0792923  87.3981857  53.9348364
  51.5503010  44.7829143   6.3657243  51.9810757  44.5001880   5.5590494
  52.2607788  44.8591129   7.0026262   3.1074343  14.7055162  66.2976503
   3.1958780  15.6400503  66.4848852   2.2269259  14.4829477  66.5999794
  93.8549900  95.4074669  82.3748970  94.2159462  94.5438862  82.5753212
  93.2817841  95.6052589  83.1155300  46.9505940  21.1078275  48.9885473
  47.5075684  21.5647043  48.3582544  47.5589905  20.5855573  49.5113468
  12.7720391 102.4472904  49.6665764  13.3676850 102.4163628  50.4152298
  12.8603398 103.3378124  49.3268681  88.5580826  98.0585003  57.8107119
  88.0570889  98.5333824  57.1475840  87.9438305  97.4111462  58.1569195
  10.9310494  24.1523660  57.7188540  10.4813252  24.8917116  57.3097658
  11.2472782  24.4967760  58.5540819  28.4021696  61.5571300  11.5040262
  29.1451200  61.8750850  12.0170076  27.9305013  62.3499767  11.2487848
   5.7067213  19.6761049  85.8834648   4.8053560  19.3548025  85.8603191
   6.0238991  19.4370855  86.7543888  25.2990398  39.3508161  64.8154068
  24.4362507  39.0146745  65.0579643  25.2783356  39.3962301  63.8595057
 102.2617601   4.2355741  83.0618095 103.2141374   4.2582048  83.1550789
 102.0668434   4.9247564  82.4267864  16.9547020  28.2057309  39.0374804
  16.0019051  28.1635952  39.1190124  17.2055088  27.3419070  38.7101674
  31.9913158  12.1746934  60.3785563  32.2121010  13.0793584  60.1570797
  31.4150963  12.2481454  61.1393499  78.1384277  94.3843937  59.4352674
  77.2374392  94.6874237  59.3229198  78.5699558  94.6048260  58.6097860
  13.5182724  27.9218305  56.6511393  13.2300911  28.5018934  57.3559141
  14.2909489  28.3534349  56.2865591  32.7834282  27.8039659  55.1322889
  33.2545624  28.1815256  55.8750629  32.1946869  28.5009588  54.8427868
 102.1846651  15.8168233  53.5416412 102.7777504  15.2254213  53.0782557
 102.2751688  15.5733884  54.4629288  91.9768261  11.0346616  66.7076206
  91.0788225  10.8577550  66.9878387  92.3432087  11.5770734  67.4060297
  86.8761921  84.4854259  78.5183001  86.8240643  84.9564362  79.3499613
  86.8556881  83.5608006  78.7650156  74.7906017 101.0266304  80.7339191
  74.4860268 101.4380264  79.9250793  74.1795921 101.3337803  81.4036655
  66.1587954 101.1965561  36.5180135  66.1095190 101.2236214  37.4735594
  65.2472973 101.1324406  36.2328982  65.3227568  65.7072210  28.3281350
  65.9516668  66.4287710  28.3364320  65.8201933  64.9597263  27.9964089
  80.9392548  73.6988831  55.3885746  80.7434654  72.8296232  55.0388765
  81.5264416  73.5336113  56.1262274  50.1729736  29.0545667  36.4283895
  50.6816731  28.9865697  37.2363734  49.6295605  29.8327554  36.5522599
  45.8964062 102.2118759  49.5879841  45.3179026 102.6419544  48.9582253
  46.2857199 102.9309940  50.0855112   9.0075550  14.4218362  52.7322960
   8.5801849  13.7255491  52.2335339   8.7473927  14.2610658  53.6393213
  95.0767517  95.0267410  44.5315313  94.4709778  94.9125004  43.7992668
  95.8119106  95.5145836  44.1603327  73.0387878  76.8119097  74.5362234
  73.0477333  77.7644062  74.6305561  72.7525902  76.6631603  73.6350060
  64.9591398 101.0731792  39.1272712  64.3999290 101.8127060  39.3652010
  64.3484688 100.3555775  38.9588499   5.5265961  10.9017480  63.7967539
   4.9410687  11.3063920  64.4367933   4.9583111  10.6792177  63.0593538
  16.9403111  92.0599747  44.7642517  16.7807614  91.4459419  45.4810143
  16.0690914  92.3673344  44.5137835  70.6730938  73.1169128  31.7237377
  70.6126738  72.2447109  32.1134043  70.8871984  73.6928368  32.4577022
 103.1249832   2.5520242  67.3151731 102.4066423   2.3516668  67.9152393
 103.5146164   1.7008508  67.1153498 102.4012756  93.0059147  62.9046583
 101.8923855  93.5427094  63.5122061 102.9180908  93.6364460  62.4030924
  77.8645420  86.1685848  66.0062790  77.7802849  86.9922829  66.4865398
  77.9448843  86.4328384  65.0897932  87.6333879   5.8190168  61.6344929
  87.1512817   5.6795515  60.8194113  88.4378837   5.3116716  61.5267324
 104.2522144  95.2908993  55.4035044 105.0299454  95.7582760  55.7083416
 103.8089180  95.0148201  56.2056923  62.1875238  57.1032763  19.3709385
  63.0424929  57.2112322  18.9542794  62.3353195  56.4506102  20.0553465
  29.8990974  10.9615243  43.0456686  30.0858650  10.7388032  43.9576674
  29.0159855  10.6252969  42.8930283  87.4143982  97.4895668  19.3767226
  88.2028008  97.8980255  19.0192235  87.4017239  97.7570724  20.2956963
  37.2893391  13.0090154  24.4747424  37.1675930  12.4632562  25.2516294
  37.5670872  13.8577283  24.8193860  97.8823471  82.0989323  41.9355726
  97.7111149  82.0137405  42.8734732  97.2460651  81.5155697  41.5219784
  71.5265710   1.8943696   1.9842489  70.7350786   1.7144685   1.4768846
  71.4551027   1.3241963   2.7497728   6.7137060  22.1377290  55.3265047
   7.3539219  22.3820222  55.9948444   5.9237347  22.6240552  55.5624294
   0.4746281  63.7409496  59.1693306  -0.0299133  63.4762239  58.4001827
  -0.0351394  63.4187746  59.9126816   2.1032273  78.4215355  64.1271448
   1.4412819  77.7346659  64.0479326   1.7098843  79.1834497  63.7017059
 101.3542436  36.7862619  74.1977215 100.5532049  37.2886003  74.0486288
 101.4823412  36.8155397  75.1458549  95.8198833  79.5615244  50.3245878
  96.4607143  79.1365004  50.8946133  95.4952049  78.8578653  49.7627354
  71.2628269  87.3960876  70.2313137  71.0941553  86.4775848  70.0212145
  71.1329794  87.8588772  69.4035530 100.1835750  30.1988805  59.6578217
 100.8118271  30.2944196  58.9419985  99.6486496  30.9914697  59.6143961
  72.2556305  84.0610409  87.6996803  71.7508030  83.9848804  86.8900013
  73.0740309  83.5998440  87.5159359   2.6452551   3.2061494  46.8685627
   2.7056036   4.0136732  46.3581705   2.7448711   2.5066484  46.2228012
  78.2859278  88.6286736  23.8835526  79.0251589  88.3477497  23.3442521
  77.9422617  89.4013405  23.4350991 105.6235298  36.6546909   6.0404070
 106.1443600  36.8595687   5.2638776 105.3535637  35.7450191   5.9145696
  75.7071232   6.7547811  21.2457609  75.4735588   5.8748735  20.9500694
  75.8044575   7.2606100  20.4389811  51.3740444  81.0614109  76.9475460
  51.9343662  80.9064198  76.1871147  50.9442472  80.2205086  77.1037245
 105.1651096  91.6045094  47.2927475 105.9351730  92.0526218  47.6426363
 105.3488827  91.5065670  46.3584757  84.4212532  78.7326670  64.2824364
  83.7111378  79.2168713  63.8611031  84.5738220  79.1983986  65.1046610
  17.9206142  27.4920000  51.0946655  17.0324955  27.2017396  51.3025522
  18.2119522  26.8961442  50.4045200  58.0221828  74.3786041   0.6990488
  58.0380234  73.7383644   1.4104326  58.3404335  75.1882354   1.0983522
   0.5945240  88.7724400  67.5562000   0.3710018  89.7014046  67.6136684
   1.0260044  88.6820412  66.7065620  98.7355995  64.6077394  34.5431185
  98.2812881  64.6671200  33.7027001  99.0960693  63.7211418  34.5584059
  68.4130430  99.3817329  43.8377333  69.2940807  99.6184921  43.5479736
  67.9410553  99.1807652  43.0296040  16.3984070  35.4085172  58.3504820
  15.5982933  34.9978460  58.0227709  16.2386189  36.3481821  58.2626343
  82.5521469 103.0329800  54.2595243  83.1935310 103.1611538  53.5606432
  83.0105495 102.5020885  54.9108791  74.0123653 102.9655743  63.1994057
  73.4375906 102.8456879  62.4434328  74.4078541 102.1050549  63.3384418
  17.0634899   9.3157590  44.1293812  16.8958912   9.4062913  45.0674391
  16.6349659   8.4946741  43.8876677  34.7320137   1.3481725  39.6646619
  35.6813393   1.3148035  39.7826219  34.3782482   0.9311117  40.4502439
  24.9226341   3.2223905  68.0056477  24.6697388   3.9425004  67.4279594
  24.4571838   3.3967985  68.8236761 102.6647257   5.0625337  46.0249662
 101.8595623   5.4779161  46.3338518 103.0824922   4.7297109  46.8192816
  45.8097839  98.3953953   9.2432112  45.9253693  99.1879559   9.7673440
  46.4865017  97.7974796   9.5606905  92.7961540  95.4361534  84.9704456
  93.1969070  94.8339844  85.5973625  91.8601322  95.2410889  85.0157356
  68.8997793  85.5178547  58.9994478  69.1682959  84.6229744  59.2075825
  68.9258575  85.5595303  58.0435085  34.0151477  99.5208645  65.0193405
  33.0846977  99.7167587  65.1294374  34.3800783 100.3094864  64.6179199
   2.8726587  15.8025087  23.3008790   3.3095512  15.0361455  22.9293442
   3.3389387  15.9704698  24.1197848  26.2444553  17.1295751  45.4585266
  27.1484146  16.8157686  45.4834890  26.1197243  17.4292100  44.5580339
  24.1078243  28.1144060  65.0757885  24.7494278  27.4883378  64.7402191
  23.9522133  28.7127889  64.3450689  69.1683722  87.1828938  61.2210846
  68.4439898  87.7996826  61.3262987  68.9377689  86.6728115  60.4446411
 108.8653969  18.7791360  24.6939659 108.4491752  17.9817213  24.3666768
 108.1695198  19.2358888  25.1665807   2.7325188  64.4797421  41.7286491
   2.7502476  65.4306889  41.8364334   3.6339699  64.2031765  41.8933582
  35.4490719   1.7932237  81.6748333  36.3690815   2.0574106  81.6787148
  35.3903923   1.1198152  82.3525620  98.3255171   2.9583372  86.6078472
  98.6797594   3.7845624  86.9366264  97.5581430   3.2136358  86.0957909
  92.0413303  96.8813038  21.0866594  92.3143864  97.6234722  21.6259670
  92.1775532  96.1161995  21.6454864 103.0867481  71.8614817  79.6592903
 103.7805939  72.4998569  79.4941044 103.1970119  71.2046146  78.9718294
  16.9500672  62.5454187  50.6346416  17.1927201  63.0924511  51.3817024
  17.7813469  62.1957874  50.3137589  37.2535000  23.4162057  87.4542236
  37.6198158  24.2929471  87.3386002  37.0427857  23.1257165  86.5668488
  84.6769142  85.1155376  34.8860693  84.1713524  84.5502472  35.4700875
  84.6697330  85.9710407  35.3153682  97.4642563  86.8626785  70.6684637
  96.9402122  86.4048004  71.3256979  98.3480740  86.8789196  71.0356522
  57.9712486  78.7594080  78.1719303  58.1427479  78.7077665  79.1122246
  58.2460594  77.9081488  77.8312349 108.5338377   5.6973184  66.1679125
 109.0690063   4.9068368  66.0974407 109.1635822   6.3989461  66.3333654
  63.0044651  67.5920677  81.4418411  62.9160023  68.4922075  81.7551327
  63.4671164  67.1377707  82.1459770 104.7337412  32.0746149  29.9826956
 103.9643406  32.6174654  30.1546335 104.5472311  31.2473405  30.4266047
  97.8545069  11.9452299  71.5157413  98.7310575  12.3195661  71.4275932
  97.2683357  12.7017988  71.5005636  94.7328377  59.6495247  59.3887472
  94.9385452  59.1897774  60.2027178  93.8459587  59.3636560  59.1697598
  43.8310608  79.4043247   6.6751249  44.4303593  79.5049659   7.4146803
  42.9883751  79.7155658   7.0056398  13.1252886 102.0133257  35.7646942
  13.4152533 101.1914008  36.1604142  13.5550238 102.6935194  36.2832475
 102.1386256  75.8267485  44.0218210 101.8828978  76.7409717  44.1444302
 101.6277566  75.3457605  44.6728897  37.8444505  35.1516461  48.6341476
  38.4283137  35.1824951  47.8762674  37.5491834  34.2419171  48.6721468
  29.8523022  80.0764476  46.0329008  29.0556885  80.1215135  46.5616751
  29.5411612  80.1051652  45.1281404  17.0405197  31.5538001  46.1669111
  17.7455389  31.0820293  45.7235003  17.2535014  32.4782062  46.0390615
  29.6199250  19.8016608  34.4596577  28.7595940  20.2198434  34.4252682
  29.4473624  18.8818741  34.2585444 106.1801424  92.5822889  50.1184559
 107.0787396  92.7386629  50.4088020 105.8879318  91.8326246  50.6369591
   3.7208262   3.5211855  64.3606043   3.9331564   4.0570250  63.5963917
   2.7900490   3.3209723  64.2616129   1.6926725  21.2238526  82.0921326
   0.8505629  21.1373734  81.6453552   1.9900170  22.1071267  81.8738556
  97.8176608  81.9533144  44.7483969  97.0493927  81.8469607  45.3093624
  97.8984585  82.8996955  44.6297884  98.9167466  75.9611355  54.4038439
  99.7888699  75.7520663  54.7383928  98.7998047  76.8898808  54.6038103
  68.1640726  83.5130548  20.8327460  67.9873120  83.3004903  19.9163365
  67.3229327  83.3919429  21.2732530  48.7062931  48.5427856  16.1671662
  47.9983711  49.1140413  15.8692634  49.5069647  48.9955330  15.9022474
  31.3463570  87.3816060  45.7017326  31.9713856  88.0489265  45.4184294
  31.3496090  87.4405991  46.6571045  69.4440650  99.7715261  68.4438467
  68.9848768  99.0994327  68.9475060  69.0505674 100.5958729  68.7299299
  39.2357421   2.7435288  45.0992107  39.7033858   2.1504511  44.5111609
  38.3739686   2.3416483  45.2090740   2.7209651  12.5524414  35.1161766
   3.2420275  11.7508709  35.1631784   3.3618331  13.2458317  34.9589181
  98.8843265  89.3546044  66.3656759  98.3509054  88.6169933  66.0696602
  99.7836175  89.0959310  66.1641884  18.8260090  20.2686930  47.0259428
  18.6003530  21.1583686  47.2975826  17.9886234  19.8718369  46.7861080
   6.4589430  95.9362512  73.0442476   6.2426687  96.5739798  73.7245131
   7.3149420  96.2144833  72.7185392  12.9177332  33.1654239  65.7517290
  13.4270048  33.3629823  64.9656963  12.6091385  32.2692251  65.6182098
  63.1799521  86.2238943  81.7846012  63.3396997  87.0614027  81.3495255
  63.6382642  86.2976002  82.6217079  26.9426751  11.4413929  20.2376032
  27.3460126  10.9784210  20.9719110  27.5710154  12.1276450  20.0129294
 107.2999444 101.3871754  73.3254814 107.4483480 101.5768239  72.3990679
 108.1782069 101.3272365  73.7013721 108.6676588  87.1523594  48.7420607
 108.4631529  86.2275778  48.8805819 109.4277277  87.1450435  48.1602812
  51.6702557  17.0563018  75.9870386  51.9491243  17.9690135  76.0606623
  52.3376560  16.6455305  75.4374313  82.0508226  94.6717822  14.0530097
  82.5512948  94.8895525  14.8393536  82.3716500  93.8071333  13.7967217
  99.0397992  96.8424194  52.2784090  98.4766641  97.2972619  52.9046965
  99.3047109  96.0421025  52.7317810  24.5500183   8.2570553  20.0749111
  24.5139098   8.2936358  21.0307312  25.3904176   7.8410912  19.8827231
  39.3106581  82.9847895   8.2730818  38.5100771  82.4666845   8.3559483
  39.1135765  83.6220156   7.5865442  47.5816250   5.4028058  37.0727849
  47.0502758   6.1135751  36.7140269  48.0469513   5.7997584  37.8090835
  45.5251503  32.7684808  44.9990892  46.2748766  33.3041739  45.2582741
  45.8374786  31.8668318  45.0746536  79.3894672  10.5718863  32.6204395
  79.5696783  10.4016590  31.6958976  79.2956638   9.7026664  33.0101681
  15.9916961   1.4153960  49.2208290  15.4525983   0.9494539  48.5816860
  15.6143665   1.1809577  50.0687027  12.2668099  31.6026783  24.3260789
  12.0812583  32.0283341  23.4890485  13.2147253  31.6840911  24.4312453
  17.0430304  89.8252522  40.1771736  17.4888493  89.1033935  40.6203413
  16.4294649  89.3972909  39.5800018  36.1151576  29.5818996  45.5608320
  35.7767224  29.6927977  46.4493132  36.6845584  30.3392673  45.4251528
   5.8278102  20.0810933  65.6709814   5.6550878  19.3736315  66.2921858
   6.7641175  20.0125957  65.4842472  49.3298817  22.5800753  11.6235864
  49.8059797  22.6959085  10.8013082  49.5786524  21.7056966  11.9232643
  89.4187679  94.6177506  14.8049760  90.2086713  94.1702341  15.1083136
  88.8696327  94.6899437  15.5856609  47.3539925   0.6161848  37.9049516
  47.5935221   0.1560650  38.7094069  48.1666660   0.6559931  37.4007607
  14.0694308  23.4903216  52.4758577  13.2204235  23.9198422  52.3713064
  14.1009557  22.8466058  51.7681360  84.2269149  72.8455841  81.2658215
  84.6662285  73.3021580  80.5483341  83.5072150  72.3750602  80.8452606
  17.0382953  16.7285681  20.5408120  17.7048266  17.3423266  20.2321529
  16.5484953  16.4909995  19.7534811  57.8223276  17.3646581  50.2590799
  57.0412731  17.3781621  50.8122492  57.7500534  18.1545603  49.7232962
  37.4385977  22.3307538  42.4169731  36.6241264  22.4358320  42.9087305
  37.1628857  21.9852781  41.5679359 107.5581477  19.4568598  40.5951691
 107.6594133  19.8705363  41.4524031 107.8339348  20.1282573  39.9711514
  39.1725326  10.7045484  59.9904776  38.4699893  11.2666905  60.3170729
  39.9177146  10.8974516  60.5594492  20.0618529  11.0460615  56.0913849
  20.5721354  11.7947030  56.4002180  20.4727793  10.2881670  56.5072727
  40.3595257  17.8990841  52.0698547  41.1492014  17.7233851  52.5814962
  40.2172565  17.0976710  51.5661383 100.9230537  14.0056467  45.4048777
 100.4012020  14.0954196  46.2022734 100.8595349  13.0773330  45.1803064
  44.7410154  12.5733578  84.8857212  45.2703714  12.3073196  84.1339016
  44.3330717  13.3950913  84.6126556 108.3008016   0.8608951  42.9829741
 107.4218817   0.7505690  42.6202631 108.1655205   1.3516405  43.7935877
  83.9384260  82.9577457  60.8027077  84.1116061  83.6340200  61.4576054
  84.7257044  82.9442131  60.2584267  41.5775490   0.4846257  14.8282290
  40.7527590   0.8437936  15.1552725  41.3137960  -0.2125327  14.2276967
  36.3864803  14.3681622  18.1202769  36.7190146  15.1018047  18.6374044
  36.9617271  13.6367488  18.3446801   1.9029928  97.3276543  47.6860952
   2.5694348  97.6960408  47.1061134   2.4009396  96.8587767  48.3557463
  98.0452933  68.6708604  26.8781614  98.7220945  69.2436968  27.2387600
  98.5094681  67.8650939  26.6511917  50.5515862  24.2904639  35.9330034
  50.4796648  23.3408809  35.8362961  50.5649662  24.4345212  36.8792057
  44.8579884  21.7205215  29.5981216  45.6051350  22.2377968  29.8988366
  44.1083813  22.3093438  29.6853304 108.9634314  72.8773271  64.5588970
 108.6533108  73.2293021  63.7245274 108.1721821  72.5591146  64.9935246
  38.5057521  17.4362862  62.1528006  37.7142882  17.8741884  61.8396664
  38.9041924  17.0687401  61.3638878  95.0871363  86.3889348  52.5823116
  95.7587662  85.7492279  52.8187943  94.4254579  85.8796202  52.1143246
  10.1719689  14.1251850  35.5006099  10.8569801  14.7722435  35.6688595
   9.3915039  14.4882488  35.9192848  36.3960886  38.6911440  14.2566562
  35.6058335  38.5903549  13.7260222  37.1167564  38.5681486  13.6388028
  57.3738050  20.5360770  33.4625149  58.0537415  20.3677750  32.8101397
  57.2278547  19.6875370  33.8807344  43.3479834  31.3580537  35.5830264
  43.9279795  32.0589852  35.2854800  43.3201742  30.7428980  34.8501968
  17.2850716   5.5178070  12.0786691  17.7109087   4.6803305  12.2617757
  17.2158098   5.9432077  12.9333436 108.3242717  90.2619599  64.5893192
 108.4030833  89.3081247  64.5745134 109.0753236  90.5722248  64.0834665
  31.4071298   2.2991164   9.6645260  31.0178328   3.1536359   9.4788522
  32.3244429   2.3929201   9.4076747  11.9496323 102.6299067  40.2444601
  12.7908446 103.0858970  40.2185726  12.0238758 102.0324140  40.9885836
  40.1705885  26.9369221  51.2709713  40.9304380  27.4450493  50.9869576
  40.4552841  26.0251665  51.2086582  21.8590904  77.0471179  55.8109188
  21.0779692  76.5224301  55.9863663  22.5871826  76.4963042  56.0985327
  40.1523876  34.1711521  53.0968523  40.7242155  33.6829162  53.6891937
  40.2377033  33.7210059  52.2564220  11.2154652  97.9679500   9.4240141
  11.4699150  98.8799446   9.2834693  10.5702187  98.0053978  10.1300502
  37.7453303  10.9043539  53.4557486  38.0155158  11.5188336  54.1381311
  36.8266368  10.7190359  53.6504078  50.3385210   2.5915623  44.0522957
  50.2655840   1.9387543  44.7485352  49.6903849   2.3213862  43.4017897
   6.7476141  11.5607333  58.5762882   6.0452580  10.9426665  58.3739996
   7.1007866  11.8098629  57.7222204   5.1760429  39.0094590  28.6476111
   4.4814715  38.4309864  28.3326960   4.7840875  39.4737649  29.3872213
  95.8684864  70.6691515  31.2139702  96.6891661  70.6587349  30.7214165
  95.2442231  71.1001050  30.6301832  49.2489052  35.7126260  56.3248587
  49.4524860  36.6102338  56.0620117  48.9570427  35.7894087  57.2332335
  89.8328938  96.0009771  45.8606100  89.4773295  95.9900742  46.7492485
  90.5151668  95.3296422  45.8673716  49.0200868  86.1953472  25.1909137
  48.4594812  85.6048810  25.6942081  49.9080291  85.8739113  25.3473377
  34.0001678  19.5995712  25.6618261  34.5657778  19.2803550  24.9586773
  34.4547176  20.3693032  26.0040689  17.4797988  25.5284595  48.1516933
  16.7641985  26.0989285  47.8711319  18.2743001  26.0131216  47.9278564
   8.0317951  61.1454712  62.3145962   7.6656748  60.3124320  62.6116323
   7.6984335  61.2494074  61.4233589  98.8902965  90.1180350  35.5614924
  98.9829745  89.7280919  34.6922493  98.4322681  90.9440052  35.4058766
  38.2546759  22.3825717  63.3063173  38.9929032  21.9452190  63.7305498
  38.4346390  22.3019767  62.3696518   2.5228144 101.5814311  44.8240566
   2.1597196 101.8766229  45.6590748   3.2933093 101.0676648  45.0661612
 100.9119583  34.8886442  53.9539242 101.1276401  35.6726456  54.4589520
 100.0080777  35.0271368  53.6709929   6.7672306  16.8688905  54.8140383
   6.5574396  17.7459884  54.4932270   7.3228329  17.0200789  55.5786848
  47.0558357   2.5169614  47.5443554  46.9821453   3.3353478  47.0533943
  46.5133095   1.8961962  47.0579958  56.9997501  16.8897724  25.0619388
  56.0679150  16.8847156  24.8431039  57.1581936  17.7653897  25.4146767
  25.9011126   2.1759805  19.5350063  25.7454586   1.2417333  19.3964934
  25.8684969   2.5569147  18.6574781  18.6469495   1.5279442  36.3484740
  17.7628338   1.7211109  36.6603374  18.8901842   0.7211962  36.8025947
  79.1694244  70.5175554  56.4550209  79.4360646  71.1585747  57.1139860
  79.8607376  70.5520116  55.7938623   3.2650095  25.8957362  38.0066800
   3.5184327  26.4311147  37.2547650   3.9001846  25.1797056  38.0158329
  25.4964495  12.8753984  58.9419222  25.3857851  12.3741484  59.7498417
  26.3299799  12.5707018  58.5832882  92.3488023  81.6399180  78.1600380
  92.6464178  82.5496422  78.1523800  92.6040187  81.2972032  77.3035097
   3.2907392  86.0933827  19.9383008   3.1826259  85.7543825  19.0496945
   4.2356516  86.2103950  20.0366974  79.0091636  98.1746151  37.9392385
  79.3716743  98.9003750  37.4312115  79.4385656  98.2412519  38.7921190
  35.4566407  -0.0703310  33.1047821  35.6750417   0.5626568  32.4207807
  34.6238542   0.2394807  33.4607553  33.5912752   4.8564556   9.8693907
  33.1479788   4.4023353  10.5859768  34.1133261   5.5327696  10.3010082
  31.4591455  11.5263307  16.2391305  30.6937814  11.7982996  15.7326865
  32.1607780  12.1061134  15.9428287  10.3427231  36.6196680  54.2208767
  10.1900911  35.6916237  54.0429211  10.6608331  36.9736362  53.3903694
  59.9022102  18.0930674  46.9215679  59.7195864  19.0323925  46.9450045
  60.3693295  17.9194200  47.7388048  59.1662216   9.7771329  67.3716545
  58.3693933   9.4006926  66.9980431  59.2200041   9.4005495  68.2500172
   0.5082155  63.1350290  50.6151772   1.0477592  63.6081802  49.9817371
   1.0067011  63.1747495  51.4313698  65.0358772   1.8756683  40.5104160
  65.6831551   2.5279278  40.2424097  65.1861668   1.1341331  39.9240947
  68.3296871  20.7913208  73.6440134  69.1367722  20.7788610  73.1295300
  67.6479244  20.5264831  73.0265284  26.0536242  15.3338051  41.9661713
  25.7360935  15.0228298  42.8139353  26.2877655  16.2492192  42.1192312
  46.0952234   4.5761406  45.7079315  45.2538919   4.1299626  45.6113863
  46.1511898   5.1498002  44.9437237  99.3883362 101.7538605  20.5818295
  98.7916222 101.9953348  19.8734128 100.2400317 101.6584226  20.1555228
 107.4039307  89.4800781  29.1609597 108.1573238  89.9527799  28.8071442
 107.7146592  88.5812770  29.2697620   1.3076926  67.1223532  44.6237135
   0.9457947  66.2381255  44.6820593   1.9198109  67.1795141  45.3573847
  86.2678959  99.4051140  66.2444592  85.9212496  99.5262649  67.1284199
  85.9845617 100.1849212  65.7671165  20.2033879  84.9827348  42.4867630
  20.4811789  85.8971249  42.4324322  20.4375387  84.6103620  41.6366196
 105.9984794  69.7577940  28.5069680 106.6671100  70.3734123  28.2066727
 105.6650939  70.1428186  29.3174267  31.4294529  26.9578743  39.4916916
  32.1166754  27.1005893  38.8408542  30.6129789  27.1032143  39.0136981
  19.5761801  80.6518017  40.3977776  20.3630711  80.1068412  40.4046726
  19.0556170  80.3301417  41.1338377  22.7587652  29.7080493  27.2342873
  22.1007276  30.0654984  26.6380906  22.8653288  30.3822064  27.9053974
   9.6118551   1.5962823  27.3431349  10.4273021   1.3805425  27.7956128
   9.8266339   2.3661637  26.8164611  56.9370413  32.2082686  53.0318213
  57.0979309  31.3353467  53.3900833  57.6962471  32.3825264  52.4755192
  38.1716108   6.1445636  11.1587751  37.7694869   6.6168165  10.4297304
  37.6361966   5.3574288  11.2586808  57.5241089  16.5100276  62.3689318
  57.4586296  17.3086512  62.8925180  57.0375061  15.8550000  62.8693199
  18.7152554  98.4571897  63.3665419  18.0942847  98.5518079  64.0888119
  18.1667162  98.2986485  62.5982952  86.3698723  82.6742589  74.1584253
  86.6370907  83.4613799  74.6330500  85.4421356  82.5703942  74.3699694
   2.9296066  98.4596856  43.3311844   3.4393955  98.9370339  43.9857721
   3.5705115  97.9052537  42.8861237 103.0791678  82.7245437  55.9509039
 103.6511245  82.1464955  55.4459667 102.9968061  83.5109221  55.4114056
  21.4940071  10.2205265  53.8539410  20.9198570  10.0782919  53.1013775
  20.9927630  10.7953548  54.4323540   7.0576359  99.2294606  25.0851703
   6.5408446  99.7116773  24.4397044   6.4375759  98.6148777  25.4776597
   2.9050900  78.9276611  29.9516582   3.3354403  78.7057768  30.7773685
   2.4152089  78.1393634  29.7174931  11.4891173 102.5528231  13.2686746
  10.5552794 102.5118720  13.4748483  11.6379906 103.4628010  13.0117548
  20.6406021  17.7537584  59.1821861  20.2289224  18.5065687  59.6064854
  20.1009655  17.5900471  58.4087372 108.5954084  89.0864920  57.6687765
 108.8655462  89.5629715  56.8837786 107.8588619  89.5912134  58.0137253
  85.9018435  98.8865661  85.8442402  85.6459644  97.9648220  85.8780861
  86.8201091  98.8704713  85.5744934  46.0265350   7.3944640  52.3654604
  45.6931114   8.2905585  52.4110031  46.0873461   7.1148211  53.2788801
  79.4147857  98.5849880  45.3455782  78.6735179  98.9893188  45.7964325
  79.1054114  97.7093427  45.1137114  11.4166285  90.3797554  28.5580373
  12.1487499  90.5200552  29.1584873  11.1613919  91.2599598  28.2817626
  79.0868231  91.2262522  45.2884483  79.6764978  91.6356598  45.9216166
  78.7445917  91.9565295  44.7728825   4.1340519  73.9682519  29.7088099
   4.5245148  74.6767723  29.1971731   4.7430350  73.2366096  29.6084738
  61.4637796  86.7154964  84.9924965  62.0397059  86.0030802  84.7150017
  60.6347910  86.2854060  85.2023293  82.9425766  70.1566350  86.0371304
  83.5496023  70.0508248  86.7696285  82.8423669  71.1040126  85.9440422
  17.0337367  27.6678443  53.7929916  17.3148274  27.8926277  52.9060364
  16.7013574  26.7732263  53.7194109  35.0418019   7.4983841  54.0309572
  35.5674911   7.9632998  54.6819067  35.4267550   6.6228151  53.9932299
  47.8764009  37.8889656  35.9840918  47.5372982  37.7498031  35.0998521
  48.8023186  38.0950356  35.8558488  26.6302872  36.4506602  76.7217588
  26.3265753  37.3061442  76.4182138  25.8894944  35.8646512  76.5666866
  39.8692694  74.8556839  66.0744476  40.3174248  74.3277203  66.7352343
  39.5683064  75.6298553  66.5501690  38.9232159  44.8892069  73.8056326
  39.0150166  44.0468454  73.3603954  38.2914710  45.3735018  73.2740402
  40.1749611  32.5954294  69.4731236  40.4076910  33.0822515  68.6825085
  39.2516494  32.3727512  69.3541956   6.3077570  97.7063417  75.2518606
   6.1292864  97.0560299  75.9311819   6.5960528  98.4821262  75.7327747
  50.5235147  46.3645649  31.4215469  50.7615662  47.0121288  32.0850372
  51.2486172  45.7397127  31.4257097  94.4451777  65.9503969  85.6828289
  94.4173542  66.2042805  86.6053261  93.5382382  65.7337626  85.4665743
   2.5529672 102.1533756  61.3753605   1.6185237 102.2321113  61.5673208
   2.9765297 102.7394666  62.0025158  97.8910556  90.6587338  54.8502922
  97.7308049  89.9658822  54.2095804  97.4051299  91.4121496  54.5149231
   2.1281697  98.2096653  16.6126919   3.0749370  98.2882803  16.7296624
   1.8903805  97.4241649  17.1053147 103.7773671  80.7400309  54.1415930
 103.3726039  80.4138886  53.3378315 103.2941999  80.3074991  54.8456526
  80.6032753  22.9900098  47.4629593  79.8981476  23.3573437  47.9959583
  80.1588631  22.6185131  46.7009163  69.4561568  37.4268409  87.3517819
  70.1693479  37.2596415  86.7356350  69.4896642  38.3708628  87.5064814
  85.9269168  76.7250239  28.1274343  86.7899373  76.8574177  28.5197330
  85.7891765  77.5009905  27.5841713   8.9607216  76.7035543  44.2165709
   8.2076288  76.6328465  44.8031521   9.6913029  76.9321000  44.7912407
  89.7241417  55.7052486  60.2528255  89.4633261  56.0160341  61.1197846
  89.1538397  56.1786380  59.6471135  13.9409304  25.1980257  21.6778994
  13.5719144  24.4458699  22.1408439  13.2198715  25.8255291  21.6274333
  12.2117401  90.3565811  49.7978497  12.0201660  91.2747978  49.9886656
  11.8275906  89.8745667  50.5301952  29.5661783  46.7004585  57.5442791
  30.4814172  46.4256763  57.5996161  29.1110158  46.1464453  58.1784153
  31.0302806  69.7108412  14.9955606  30.6589222  68.9895582  15.5035686
  30.8922124  69.4570541  14.0830028  56.7585897  15.4814744  73.4425926
  55.9351873  15.5735552  73.9219189  56.5445042  15.7414341  72.5465870
  40.9129047  25.0625801  21.6687393  40.9075022  24.2090774  22.1020246
  41.4628458  25.6114960  22.2277451   1.3247375  19.4411469  63.8571739
   2.2447070  19.5546007  63.6183929   0.8608142  20.1030016  63.3443832
  32.7867627  20.0532103  43.0706215  33.1436443  19.2151356  43.3647251
  32.2996187  19.8400164  42.2747135  28.8750578  82.5932776  12.0668590
  29.1645313  83.4780466  12.2896147  28.7510611  82.1618783  12.9122877
  93.4682655  26.9038010  10.8133006  93.7782097  27.4547768  11.5320444
  94.0003395  27.1676397  10.0626242  15.8305562  11.8856621  20.5133414
  15.9962046  10.9838033  20.7880116  16.6319072  12.1493137  20.0610638
  14.4747139  86.6190921  21.7776799  13.6330963  86.1632751  21.7655468
  14.8781801  86.3994514  20.9379148   8.0267645  65.2019083  39.3248487
   8.6304976  65.9303748  39.1796589   7.7501274  64.9413620  38.4463191
   8.9318062  94.3256336  53.9495325   9.7566820  94.8014527  53.8525248
   8.2629944  95.0096857  53.9810705  88.6168709  73.0406677   1.1892487
  88.2417610  73.9046942   1.3594970  88.9444711  73.0944549   0.2914644
  33.9884686  11.7035806  49.0448141  33.0368662  11.6011715  49.0307856
  34.2708778  11.4379430  48.1696510  13.4930670   7.0021868  46.7399931
  12.6836395   6.8323964  47.2218990  13.3757615   6.5462404  45.9065771
  38.5491873  83.6012625  73.8735485  38.5698200  84.3334590  73.2573557
  38.9891173  82.8873407  73.4120131   2.7698733  81.6356980  38.3438015
   2.5416828  82.1006238  39.1487885   2.9834820  82.3288666  37.7192068
  20.0631046  47.7796745  42.5048065  19.9038684  46.9277334  42.0985174
  21.0087872  47.9075718  42.4302673  34.3966256  67.3801663   2.0918520
  33.4481679  67.3007253   1.9901235  34.7492050  66.5964654   1.6702707
  59.3481159  11.5769720  33.9044380  59.7957850  10.7874405  33.6003566
  58.4653091  11.2811935  34.1266942 107.6210942  57.9118430  77.2968626
 108.2121243  58.2193266  76.6095686 107.4313345  58.6928784  77.8166771
  47.0563602  31.6296363  57.7714539  47.5320339  32.3080277  58.2507753
  46.6982937  31.0610747  58.4531832  15.3059459  22.6218319  40.9961462
  14.9803603  23.2498193  40.3512764  14.5235991  22.3346305  41.4669752
  28.6752344  91.9660770  50.1648474  28.5696245  92.4531161  50.9820843
  28.1016089  92.4140929  49.5431852  83.8016571  29.5863175  28.3827543
  84.6358265  29.9534440  28.6753488  84.0470041  28.8892579  27.7743602
  24.0118767   3.8486597  61.6341584  24.9657322   3.9116022  61.6834442
  23.8390471   2.9140207  61.5209596  45.5016756  14.8373210  42.9775572
  44.9138594  15.4723704  43.3867264  45.8432102  14.3217266  43.7081385
 106.0361042  90.7257198  77.5648499 105.6983700  90.0638114  76.9614887
 106.5704122  90.2322303  78.1871128  37.2103955 102.7792693  57.3180866
  37.2040678 103.4422710  58.0084610  36.5120293 102.1720833  57.5627136
  96.1533394  87.0094716  17.2747600  95.6676283  87.3536741  18.0243194
  95.4900374  86.5749406  16.7386210  45.6768942  37.8430438  40.5640697
  46.3360071  38.2649112  40.0128651  44.8550034  38.2716250  40.3252172
  51.1595154  50.6805849  32.1561193  50.2830219  50.8922768  32.4773240
  51.6954994  50.6172895  32.9466534  27.5652122  47.9703808  46.3748789
  28.5017061  47.8356028  46.5199614  27.2732353  47.1709919  45.9367466
  40.6216574  18.5462058  48.3488560  41.1031532  17.8235638  47.9461384
  41.0184526  19.3344533  47.9781151  51.6496229  25.0470376  29.5443153
  52.2033310  24.5198822  30.1202917  50.8043385  24.5979095  29.5478177
  27.5246263  61.0727310  58.2650900  26.6726279  60.6538725  58.1430721
  27.3498273  62.0074701  58.1558371  42.5666046  34.8052478  76.8339252
  41.9393063  35.1379323  77.4758339  42.0296717  34.5533848  76.0825920
  54.1400162  77.3872646  80.9622304  53.8528625  77.9642662  80.2545278
  54.7939674  76.8179616  80.5566757  73.3801603  35.5417371  31.8880653
  74.1250134  35.9062529  32.3661327  72.9896688  36.2940288  31.4433074
   0.4975153  85.0726687   6.1839128   0.7706834  85.8006941   5.6257105
  -0.2054166  85.4350041   6.7232013  61.5443373  39.1578484  32.0985913
  62.4894428  39.0062737  32.0925283  61.4499903  40.0712633  32.3687863
  32.5019646  16.4338756  10.0856698  31.8572545  16.5353775   9.3854713
  32.5748873  17.3064160  10.4724348  51.2442684   1.6348065  18.1959140
  51.9720745   1.6282061  18.8175952  50.6535769   0.9508640  18.5114050
  28.1172800  55.1991796  49.3586540  27.6326060  54.8758554  48.5991907
  28.1637168  54.4483519  49.9505424  95.5164623   4.8535413   5.2429014
  95.5945206   4.1465467   4.6023574  95.9446430   4.5133391   6.0284942
 107.3606052 103.2691913  14.6775246 107.0245209 102.4582624  15.0591969
 107.3847666 103.0987230  13.7359357  10.1218677  13.6940467  39.6803403
  10.1257336  14.5650542  39.2833996  10.9555268  13.6400759  40.1476002
  64.2492008  16.5795195  35.8742833  63.3455896  16.6730106  36.1759019
  64.7810316  16.8191123  36.6332197  50.8656359   3.7002113  24.3850255
  51.3906002   3.8739765  23.6037111  51.3242102   4.1593480  25.0886822
  82.5729465   7.7149731  51.6641045  83.3166027   7.9756343  52.2074842
  82.0491314   7.1486139  52.2307491  50.5230427  41.5959978  73.6412859
  50.4742384  40.7323647  74.0511465  50.0016737  41.5120411  72.8429413
   8.3708597  69.0289961  23.8107014   9.0782143  69.6597158  23.9451313
   8.6750246  68.4781086  23.0894279  29.3181586  36.2122536  46.6202354
  28.5707378  36.7661262  46.8456602  29.5477462  35.7745290  47.4399424
  23.4555435  41.9126987  29.1600299  24.0781140  41.4699411  28.5833144
  22.6226330  41.4694452  28.9987254 107.5453319  93.3269971  47.1059752
 107.7722969  94.1948997  47.4398375 106.8937769  93.4951066  46.4252043
  26.6405034  31.0635662  52.0981598  26.1573243  31.2882638  51.3030005
  27.4430132  30.6488085  51.7816305  28.8932657  18.5741019  26.6600537
  29.3474126  19.0202343  27.3748589  29.5556283  18.4835792  25.9749913
  42.0340014  16.9718993  82.3592472  42.8917456  16.8543184  81.9509792
  41.7091942  17.7977741  82.0005512  56.2128448   5.8868802  65.1927376
  56.4660311   5.2796435  65.8880043  56.5150213   5.4678124  64.3869448
  40.6807137   9.9900794  72.1243620  40.7510662  10.2204776  73.0507517
  41.4832401   9.5031542  71.9370365  28.9904952  17.1708775  41.0039759
  29.4329691  16.8124437  41.7733717  29.1691828  16.5380263  40.3084183
  90.5092194  96.1003398  26.3070989  90.0627770  95.3246515  26.6465545
  91.4161494  96.0005682  26.5965033  38.9272118  19.7436059  75.7359409
  39.1299772  19.7351444  74.8005009  38.1630826  20.3152919  75.8102179
  65.1013279   5.5712581  54.9523544  65.8432627   5.1549894  55.3910875
  65.4056263   6.4572775  54.7558689   4.2382982   9.6003896  16.8552983
   4.5885617   8.7928021  17.2312629   4.7582683   9.7414678  16.0641217
  44.8714590  42.5908518  35.0955486  45.3168058  42.0729256  35.7661104
  45.2418947  43.4688473  35.1857781  56.2112331  28.4592700  44.5183229
  56.6634035  28.4990215  45.3610516  56.4258575  29.2889690  44.0919828
   7.5640703  74.8399388  53.8933754   7.7428414  75.7298743  54.1971636
   8.4006048  74.5338904  53.5429764  75.7203102  32.0619202  79.4678783
  76.4662647  31.4684153  79.5546579  75.4406214  31.9635987  78.5577440
  72.4112415  29.3939781  64.4990635  71.8294191  29.4455385  65.2573872
  72.1981287  30.1697874  63.9804745  29.7813177  40.9184647  61.3522625
  30.4245543  40.6429338  62.0053816  29.1443825  41.4346695  61.8463039
  35.2785301  35.3048348  22.1687031  36.1289740  34.8675108  22.2102404
  34.8745418  35.1240706  23.0174375   6.3663555 102.8803392  27.4270344
   6.5522648 101.9924383  27.7324891   7.2229077 103.3062570  27.3932242
  66.6793489  18.9982820  47.0718575  67.2371435  18.6893761  47.7857685
  65.8027554  18.6907184  47.3025465  56.0082626  33.6392522  57.7558231
  56.4842081  34.3124843  58.2421017  55.2468872  34.0956450  57.3977041
  60.0442839  41.4082527  18.1256354  59.4859505  41.1611509  18.8628149
  60.8832169  40.9850454  18.3081853  20.0618839  24.5212698  34.6170330
  19.4729602  25.2756023  34.6365404  19.6001327  23.8440585  35.1114035
  38.9190483   6.9918936  63.8416815  38.1860113   6.3894123  63.9677906
  38.5179305   7.8609908  63.8442087  53.1259394   5.2752835  40.5852175
  53.4275055   5.3509289  41.4905167  52.6982355   6.1123294  40.4045057
  42.0195055  13.9348030  61.0197353  42.1742725  13.0159473  61.2387848
  42.7093601  14.1509378  60.3923464  14.5108439  89.8793685  44.4499397
  14.1836096  90.0000536  45.3413343  15.0197054  89.0695845  44.4891882
  38.7254597  87.8235792  26.0701466  38.0375458  88.4250974  26.3550711
  38.8638664  88.0377518  25.1475382  25.4418492  36.1400104  39.3742228
  24.8987412  35.4219747  39.6993208  26.1168838  35.7107329  38.8485980
  41.9534397  13.0788600  41.0385227  42.2777128  13.9116728  40.6957388
  42.7098036  12.4934483  41.0005713  28.7584281  23.4214735  30.9355187
  27.9289937  23.7417316  30.5809689  28.5548711  22.5476480  31.2690306
  61.2001228  22.4058294  67.8381824  61.6224241  21.6497922  68.2459831
  61.7730761  23.1429768  68.0492926  19.1364622  56.1543989  28.9374280
  19.4905508  56.7419195  28.2698393  18.8038278  55.4044104  28.4443784
   4.3554351  22.9377818  34.3519735   4.3560237  22.3434830  35.1023340
   3.7553650  22.5325274  33.7259412  71.0776997  27.7388811  42.3427057
  70.6904888  26.9279909  42.6724815  70.9704971  27.6865554  41.3929653
  33.2244040  83.9297055  45.5464983  33.4614016  84.7185611  45.0588799
  34.0281416  83.4102654  45.5669641  26.4252567  21.1442757  82.2562981
  26.4426827  20.5190921  82.9809189  25.7296109  20.8252430  81.6813850
 105.4881420 101.2828878  35.3900599 104.6492662 101.0888731  35.8082414
 106.1395826 101.1161775  36.0712814  32.2831821  17.3576522  48.2839584
  33.1900811  17.6545453  48.2089758  32.3460150  16.4033020  48.3226871
  40.4072666  26.7066121  58.3636570  39.8394084  26.2027311  57.7806711
  39.8864102  26.8305564  59.1571188  27.4823166  74.7985851  68.2868290
  27.8028513  75.5938422  67.8613281  27.1457793  75.0978672  69.1314650
  34.3571806  42.6497984  35.5450797  34.3460631  42.4125767  36.4723539
  35.2814937  42.8010941  35.3476286   5.0430495  26.3104892  34.4741869
   5.6217790  25.9419298  33.8067532   5.5505806  26.2623811  35.2843285
  87.9270664  60.9698298  87.4731222  87.9484907  61.6387471  86.7887809
  87.0593373  61.0582574  87.8674005  14.1272736  37.2285414  63.9869022
  15.0605583  37.0187426  63.9523125  13.7752974  36.8913746  63.1630898
  59.1487122  37.5660038   9.0265876  59.7176838  37.2483492   9.7277290
  58.4984255  38.1082964   9.4729954  56.6435957  29.6116018  27.6138496
  56.6684437  29.0854239  26.8146324  55.7143688  29.7966170  27.7500081
  60.1368904  14.8167801  27.4368310  60.4420233  14.3971515  26.6324449
  60.9195471  15.2271199  27.8046679  96.2472525  78.5805117  41.8429422
  95.7058515  78.8994109  42.5650358  95.9189858  77.6983630  41.6689110
  59.8277235  17.6071739  19.2045045  60.3090191  18.3354783  18.8118720
  58.9923429  17.5926459  18.7374330  27.5250053  11.8784857  12.1630943
  27.0229530  11.0754395  12.3019969  28.2582140  11.6098297  11.6095054
  58.1254625  22.7761555  62.2991276  57.4025059  23.2856560  61.9330978
  57.6996803  22.0547080  62.7622175  39.0516639  21.2877297  48.6418533
  39.4005775  20.8108401  49.3948889  39.7305775  21.2072968  47.9718971
  43.1398106  36.6889882  30.2680087  43.1031561  36.6335583  31.2229013
  42.2274446  36.7963290  29.9991274  72.5319386  10.4096913  13.7836623
  71.9820595  10.0556147  13.0847383  72.1681881  10.0368667  14.5867324
  50.3093100  25.4840112  74.5148945  50.0364113  26.4004850  74.4720602
  49.6404552  25.0115252  74.0192938  19.4602919   6.7244095  37.9435539
  19.3272281   7.6648653  37.8249407  18.8093209   6.3165081  37.3725152
  43.1955051  20.3784657  41.6005087  42.2784472  20.6510854  41.5702391
  43.6208296  20.8919954  40.9137630 103.4121671  96.3692724  24.2402005
 103.8867774  96.9645350  23.6599946 103.0699840  95.6902372  23.6587763
  59.6161032  21.1585927  37.5021362  59.8634529  22.0681095  37.6689529
  60.3344154  20.8077312  36.9756794  20.3202820  30.5549121  38.1528521
  19.8255098  29.7414732  38.2515907  21.2259889  30.2708697  38.0293703
  58.1123161   8.2387483  12.7815270  58.3307838   8.2207108  13.7132871
  57.1555710   8.2591563  12.7601945  80.5669308  29.1637087  40.0020599
  80.2606010  29.8099303  40.6382942  81.3856602  28.8331151  40.3716946
  21.8559694  52.6355839  72.2134495  21.3686943  51.8124628  72.2489977
  21.1817074  53.3144426  72.2408152  47.6940346  24.9167347  21.6587424
  47.5661039  24.8620224  20.7117081  47.8493261  25.8463001  21.8261433
  99.7733822  86.5098154  51.3816547 100.2850237  87.1485948  50.8852482
 100.4127564  85.8529269  51.6572046  51.3896513  51.0650349  76.1478376
  50.6044102  51.0482121  75.6007147  52.1138573  51.1312103  75.5254364
  77.0426595  78.1799566  56.2971163  76.4290407  78.5933768  56.9043970
  76.6368108  78.2867371  55.4368162  32.6456428  22.4671817  59.3654633
  33.2020998  22.0187044  58.7287092  33.2250786  22.6456928  60.1061487
  38.8575912  42.8275108  14.1666114  39.5712662  42.3529673  13.7403369
  39.1850591  43.7224579  14.2564023 105.4521241  91.5232979  16.7256534
 105.5995312  91.8152248  15.8260536 104.6566429  91.9804572  16.9985056
  16.2024319  25.3202033  34.1343594  16.0561430  25.7166004  33.2754636
  15.3467989  24.9733090  34.3869185  22.2177196   8.3640844  85.7135963
  22.8182817   8.8254017  85.1281548  22.2911000   7.4450421  85.4562855
  67.7231693  14.7950065  33.4936714  68.6701155  14.9347126  33.4971404
  67.6019716  13.9640784  33.9531302  17.0512081  98.0140122  61.0373878
  16.3417603  98.6340915  60.8688068  17.2975661  97.6905601  60.1708317
  58.1431246  24.5271897  39.0830874  57.6588058  24.4726014  38.2592630
  57.5542450  24.9931026  39.6767020  33.2802820  32.0452189  37.8481078
  33.9162874  32.5548077  38.3501530  33.2246900  31.2090302  38.3106327
  91.9870343 100.6494947  17.2800624  91.2521818 101.2592371  17.3466825
  92.7462437 101.2070728  17.1099448  38.1665207 102.3349106  30.5956626
  37.8112341 103.0953752  31.0557675  38.8644243 102.6918513  30.0463438
  20.1801658  23.7342834   8.0535018  19.3585932  23.6088276   7.5786227
  20.8221388  23.9352393   7.3725325  34.6349573  57.1944761  27.0557737
  33.9884043  56.4972448  27.1656322  34.7967458  57.5131750  27.9437423
  54.3307686  10.6227350   2.4888311  54.2359352   9.6716142   2.4377730
  54.9108315  10.7657957   3.2366902  74.1911936  30.1642585  45.4088640
  73.3862257  30.3097725  45.9059429  74.1725016  30.8308983  44.7222233
  43.4914875   5.7214111  56.8582678  42.7188683   6.1138260  57.2648478
  43.1458569   4.9969018  56.3368702  53.0465603   4.2363301  61.7417145
  52.6742744   4.9044341  61.1661482  52.3082113   3.6659124  61.9554853
  25.2170181   3.5255754  31.4639354  25.7795334   3.8711056  30.7708120
  25.5018878   3.9840347  32.2544384  42.2063971  39.7305703  63.0634832
  41.3268709  39.4024897  63.2506418  42.4571276  39.2930746  62.2498751
  18.8430716  87.1443783  44.2632771  18.7832905  86.2559508  44.6144962
  19.1722132  87.0279442  43.3720160  71.0841302  96.3256543  73.7516880
  71.2678533  95.6172900  74.3686962  71.9475351  96.6477983  73.4928703
  18.8430488  22.8904653  31.8719268  18.2218254  23.5571504  31.5789318
  19.6502781  23.3748603  32.0450616  29.9366832  42.4315977  30.3147292
  30.3947592  43.2430506  30.5336833  29.0752411  42.7174091  30.0106549
  23.2287526  10.7474208  50.4163218  23.3918905  10.3933835  49.5420933
  22.7177215  10.0691199  50.8578968  86.9835091  17.2835910  59.2389536
  87.7664280  17.0341182  58.7480021  87.3166275  17.7897167  59.9799633
  14.2551303  28.8463354  39.3406677  13.4365487  28.3501983  39.3385291
  13.9797592  29.7628522  39.3206787  48.3780909  18.1987369  85.3432369
  48.9657164  17.4554563  85.4791260  48.7928867  18.7077832  84.6467781
  56.3649845  51.9303322  36.0572290  55.5911779  52.1919727  36.5562296
  56.0193157  51.6444731  35.2116346  24.6472479  84.7879778  45.1116657
  25.5774761  84.6930753  44.9069548  24.5916678  85.6108164  45.5975485
  90.6877995   7.3666644  55.2845716  90.8948517   7.4425840  56.2160206
  91.4745998   6.9857764  54.8945761  47.8478146  29.7115469  29.0217161
  47.0810509  30.0282502  28.5442185  47.6899385  28.7741113  29.1336083
  35.5133367  32.9266286  52.5756836  36.1552262  32.3470831  52.1653891
  36.0041761  33.7233758  52.7769327  61.3214970  16.5569222  32.6782894
  60.9247351  15.6862593  32.6507640  61.8254900  16.6162276  31.8666816
  35.8192229  12.6580381  10.6903148  36.3271832  13.4620690  10.7986689
  35.3295040  12.5720596  11.5082479  35.0217152  20.4980540  44.8094702
  35.1375294  21.4397144  44.6826029  34.4932294  20.2188563  44.0618181
  57.2255993  25.0111961  67.5907469  57.7129316  24.2019892  67.4360800
  57.7333832  25.6863427  67.1406794  29.0741134  24.2258835  26.4402485
  29.4938922  24.6630931  27.1811032  29.2102313  24.8206186  25.7026887
  28.3425069  18.8952982  20.8013725  28.2514620  18.0126810  20.4423046
  28.3488727  19.4667733  20.0335145  89.3884017  93.3819216  19.2788839
  90.1796164  93.5725497  18.7750256  89.3396141  94.0872585  19.9241364
  49.8915148   1.3717854   0.5689090  49.9473476   2.0169616   1.2737934
  49.3005562   0.6987204   0.9065256   6.7545344  96.7592215  51.8039608
   6.6233279  96.5345042  52.7251148   7.1932055  95.9945553  51.4310169
 107.3777714 101.5699681  48.4254217 106.6188898 100.9946669  48.5221672
 108.0068722 101.2471212  49.0705824  35.6732845  31.9877243  39.6684813
  36.2933946  31.9926929  40.3976393  35.4220748  31.0689259  39.5739627
  23.8855934  22.2554898  39.7831678  24.7145653  22.4409819  40.2243376
  23.7187290  23.0328751  39.2501926  42.0354462  30.7627034  17.2236788
  41.2809706  30.1760221  17.1707439  42.7927494  30.1909232  17.0980144
  68.6038303  14.4816673  65.2247334  68.4448433  15.2544630  64.6827555
  68.0666399  14.6213949  66.0045624  44.3185711  26.9795442  18.0575144
  44.8497105  27.3948431  17.3780680  44.4325733  27.5388336  18.8259101
  42.3619938  40.8415461  10.9240794  42.5351620  40.2369499  10.2024770
  42.9165125  40.5272532  11.6381943  24.4322562  15.5687845  82.2962570
  24.2808962  16.4012361  82.7438545  23.6945820  15.0181472  82.5586796
  31.7201042   5.9283179  36.7887759  32.4652433   6.0494494  36.2002826
  32.0921040   6.0125303  37.6667023  58.9143705  34.8067284  42.2829103
  59.0769911  34.0897655  42.8958941  59.6513987  34.7723150  41.6731215
  59.8347330  13.5993266  62.4887753  60.3640747  14.3966508  62.4713373
  60.4738283  12.8870392  62.4679613  66.0819960   7.0403683  74.1874599
  65.5165577   7.3616934  73.4851360  66.2894106   6.1405921  73.9352417
  12.1099758  10.6799233  55.4384184  11.2655747  11.0259318  55.7273769
  12.7357221  11.3754296  55.6407642  56.0982207  73.5857185  53.9690249
  55.3956584  72.9951604  53.6972182  56.9034282  73.1129774  53.7583415
  69.8601055   6.1792260  40.9762001  69.1469526   6.0185409  41.5941143
  69.9141455   5.3758365  40.4586315   1.1291338  98.8044416  65.9858418
   1.7679240  99.1056343  65.3397274   0.4025127  99.4229855  65.9106255
  39.2015864 102.1804162  51.8480015  39.3884016 102.0594231  52.7789640
  39.7223212 101.5073507  51.4097691  44.3487692  33.3452964  40.6466961
  44.1676331  32.6804280  39.9823380  45.1022196  33.0037022  41.1282110
  26.5034580  24.3526864  36.6484785  26.6243291  24.6418214  35.7440329
  25.7064581  23.8230419  36.6261315  11.3553882   9.6737605  52.7936697
  11.5976655   9.9526578  53.6767054  10.9314394  10.4405105  52.4081898
  41.4467573  31.1943293  25.6086278  41.3396692  30.3185749  25.2373934
  42.1367788  31.5956616  25.0803852  41.0024786  16.9083226  60.6281519
  41.6782379  16.2695563  60.4010916  41.4781427  17.7318358  60.7367802
  73.5058824  70.2732619  78.8228409  73.4626571  71.2286695  78.8623481
  74.3175093  70.0895806  78.3498113  72.1003675  11.7301738  60.2778244
  71.8167257  11.8176174  61.1878395  71.2893915  11.7602694  59.7702312
  12.6761019  29.0681076  63.1211948  12.8064430  28.7714005  64.0218639
  13.5224628  29.4344282  62.8648424  39.9532151  63.8304710  18.4566200
  39.5308423  64.4683456  17.8813374  40.8056402  64.2167521  18.6575985
  15.2451611  36.5109181   8.1104934  15.4455793  35.6195760   7.8248811
  15.9728825  36.7474914   8.6855489  29.7790599  16.6171348  36.3083911
  29.8712516  15.7773721  36.7584276  30.6740451  16.8629193  36.0742521
  12.2091414  95.2625989  40.3857422  13.1400467  95.4783403  40.4415131
  12.0714022  95.0317549  39.4670606  17.0441413  22.8808331  20.2905774
  17.8445792  22.9204726  19.7671652  16.5512776  22.1490026  19.9194467
   8.5502125  95.9448486  35.1222658   8.3440472  95.2318161  35.7266760
   8.1748034  95.6667494  34.2868233  30.4495215  15.6903648  26.9706893
  30.1179957  15.8349586  27.8569269  31.2158990  16.2601686  26.9057202
  41.2559175  28.5232711  62.7773619  41.9359255  28.6433363  62.1144867
  41.2773228  27.5870681  62.9756021  60.9255648  32.9549670  42.3953152
  61.3898897  32.5239205  41.6777992  61.5445280  33.6071610  42.7235842
  56.2560272  22.7638006  42.3786879  56.5775967  23.6625671  42.3076630
  56.3971663  22.3895025  41.5090799  24.3553782   1.5111510  41.8632460
  23.9654636   1.3095774  41.0126162  25.0634193   0.8741962  41.9591522
  63.1260967  26.7975879  53.3481169  63.7809372  26.9460773  54.0302944
  62.4366522  27.4346924  53.5351849  77.0537806  39.6338463  21.3706875
  77.5691509  40.3397274  20.9803581  77.4206018  39.5265150  22.2482705
  70.1247358   8.8608265  62.7596569  70.2585697   8.1819552  62.0982552
  70.6518888   8.5754156  63.5059023  47.6458168  20.2682424  61.4789629
  47.6606989  20.5731845  60.5717564  47.8593349  21.0448313  61.9962168
 105.2190534  15.1573503  36.6353655 105.2098535  15.4103267  35.7122445
 105.8097614  15.7860541  37.0501256  23.6644387   0.4178138  51.9138956
  23.5979033  -0.5151405  51.7104197  23.5131836   0.4684953  52.8577089
  25.8874202   4.8563209  23.8689446  25.4111409   4.2990127  23.2534790
  26.5789700   5.2577561  23.3427882   0.8415915  78.8772093  26.4501262
   0.8707358  79.0348660  27.3938036  -0.0324200  79.1647040  26.1861444
  49.1013861  32.7277398   7.1771139  49.8376656  33.1916189   6.7784387
  48.3249617  33.1496096   6.8091220  54.3949223  30.8500266  66.2873650
  53.7015486  31.4978123  66.4132071  54.8379612  31.1261940  65.4850674
  23.1562424  16.2132740  65.6713676  23.8782907  16.7073321  65.2830553
  23.3572435  15.2988744  65.4721069 108.5653772  61.5223217  24.1490316
 107.9781480  60.8418846  23.8197899 109.4333073  61.1190939  24.1306782
 103.7795963  93.5940545  60.6196642 104.2172470  92.7968048  60.9181404
 104.0097561  93.6610263  59.6929646  54.9348307   5.2119291  56.3576221
  54.1954184   4.6145040  56.4698219  55.6869793   4.6377060  56.2134981
  46.7203569   2.1503106  22.1959186  45.8939123   2.5627345  21.9446611
  46.7012882   1.2948480  21.7669034  34.4408083  34.9040198  37.3433137
  34.9084496  34.5723963  36.5767837  34.1598487  35.7834482  37.0905304
  30.8451581  22.8901529  29.0390038  30.9064412  23.7484026  28.6196184
  30.1823282  23.0032468  29.7202492  70.8631182  13.5247552  22.9180050
  71.1830282  14.2271960  23.4840989  69.9726200  13.3558893  23.2257938
   0.1356269 101.0775695  39.3906689   0.3543378 101.9698741  39.6593475
  -0.4061936 100.7388470  40.1033592  38.0248380  18.0534077  48.6749744
  38.9757061  18.1348991  48.6012173  37.6830459  18.8346207  48.2401037
  62.7977753  32.9055309   9.1771895  63.7064600  32.7668524   8.9101851
  62.6679945  33.8509917   9.1030937   2.5021650  97.7678668  26.1904526
   2.0386888  98.5202180  26.5584040   2.3170449  97.0518809  26.7981744
  20.2931881  29.0832615  48.9935160  19.5607233  29.5365071  49.4110060
  21.0707641  29.5447350  49.3075991  58.5643768   7.0205635  28.8145256
  58.6035919   7.9038727  28.4478402  58.5477114   6.4444906  28.0502653
  76.8587208  24.5391464  41.0863876  76.2906027  23.7996078  40.8706236
  77.7457190  24.1833043  41.0330868  67.0825052   3.7529948  48.3868265
  67.4957275   4.4187349  47.8370380  66.2136173   3.6317778  48.0039835
  17.9128993   5.9917212  64.0960646  17.8669429   5.4820096  64.9049616
  18.6978936   5.6687152  63.6537027  37.1438837  36.4536214  56.8329668
  37.3110986  36.4997697  57.7743196  37.9242611  36.0334897  56.4714003
  45.2578115  17.2025478  13.0092096  44.8553133  16.3355672  12.9585040
  44.5177507  17.8078508  13.0555451  18.1270182   9.8400116  13.2973790
  17.7884352  10.5968499  12.8190601  18.2127583   9.1558498  12.6334488
  13.1062104 100.9268629  60.2628851  12.4836851 101.3083885  60.8818579
  12.5938441 100.2827083  59.7742319  12.6683737  95.0251274  28.8503671
  12.5174452  94.8019259  29.7688627  11.8304754  95.3756820  28.5482621
  21.3143301  31.0694361  25.2415299  20.7953262  30.2814341  25.0805306
  21.1072683  31.6468787  24.5067406  50.5261660  26.0495257  38.3170772
  49.8511791  26.6939402  38.5300446  51.0273170  25.9511352  39.1266441
  43.7543774  33.9243174  26.3124514  44.2068768  34.3621469  27.0334101
  42.9720640  34.4552469  26.1630344  12.3160197 102.0165988  25.0077343
  12.6365305 102.7968816  24.5553374  13.0972124 101.4801950  25.1427841
  34.3409872   0.7707790  24.2562580  34.8095322   0.0058968  23.9221120
  34.0627003   0.5157650  25.1358914 102.7713717  62.4554682  28.0329466
 103.2794697  63.0015135  27.4330258 101.8611152  62.7012873  27.8679037
   8.3474416  48.5369396  47.2928667   8.4118229  48.1509733  48.1664324
   8.0878282  49.4446564  47.4506140  51.5880442  58.4414053   9.4388664
  51.2080526  58.1403494  10.2642167  52.3013353  59.0231085   9.7016770
  25.0875902  19.1158748  46.9013596  25.4962111  19.9408090  46.6391706
  25.5346131  18.4503305  46.3784361  52.1121836  36.5689635  36.8417811
  53.0280590  36.5949607  36.5647817  52.1324158  36.1371183  37.6957917
  19.0766037  17.7243626  13.3162749  19.0989006  18.5602081  12.8503370
  18.7984741  17.9520345  14.2034280 102.0348253 101.5768794  26.6333079
 101.5643897 100.8325850  27.0087361 102.7785196 101.7111697  27.2207737
  24.5477676  16.4675856  13.0404162  23.7559628  16.8627977  13.4052253
  24.9775648  16.0563481  13.7903428  38.5393763  11.6797686  29.5076656
  38.5441089  10.7325602  29.3698049  39.4635844  11.9285035  29.4933748
  92.3111513  88.8096200  71.2192678  92.7593865  88.3345710  71.9190121
  92.7871587  89.6370458  71.1484432  57.6121759   4.4550046  52.2947264
  56.7962837   4.9543792  52.2603512  58.0036020   4.6932834  53.1351089
  30.8339834  22.0776224  35.5152321  31.6656494  22.2612691  35.0783825
  30.4686928  21.3359547  35.0328159  34.8325324  40.6021118  16.2278581
  35.4151249  39.8426485  16.2333393  35.3245783  41.2780762  15.7618153
   9.1667455  47.2828770  45.0602913   8.8006532  46.4374208  45.3199339
   8.9203125  47.8781557  45.7682085  63.5280800  34.5392990  71.9635725
  63.7081718  35.1879716  71.2831116  63.6035585  35.0259376  72.7843714
  47.6086187  45.3638411  39.9798369  48.4921694  45.1542902  40.2825928
  47.5102425  46.2993145  40.1571751  34.9943615 100.3970121  60.9598064
  34.7258688  99.5069640  61.1877537  35.0780417 100.8449348  61.8015909
  74.6359682  21.6261959  23.0097127  75.5615854  21.3838387  22.9826975
  74.4018030  21.5745330  23.9363885  39.8289204  13.6056662   7.4253601
  40.2279902  13.7558985   6.5683848  39.3677664  14.4212925   7.6211208
  35.6881046  29.1605449  29.4705868  35.0678539  28.4395218  29.5785213
  36.0758281  29.0157747  28.6074853  76.3842869  32.9804397  15.3860605
  76.0291386  32.3267722  14.7837150  77.1520472  33.3304858  14.9341226
  49.7332954  31.1499190  20.9570217  50.4933405  31.7233181  21.0558724
  50.1036739  30.3004956  20.7171679  67.8440952  31.8797112  42.1502018
  67.7802086  31.5094018  41.2698460  68.5194540  32.5541711  42.0779085
 108.2578692  54.1306543  63.1818390 107.9787767  53.4915733  62.5261593
 108.6560165  54.8371792  62.6733780  42.3150755  87.0152091  17.8933728
  42.6971318  87.6484548  17.2857022  41.6349388  87.5060796  18.3545589
  11.4831330  93.4306144  31.0639930  11.6168905  93.9411055  31.8625808
  11.6281964  92.5233852  31.3325548  43.0764627  18.0218184  35.4028964
  43.0569696  18.1038880  34.4494224  43.0503368  17.0784092  35.5626750
  55.4770756  28.1199598  30.3724957  55.4274464  27.5858450  31.1652684
  56.0635376  27.6340675  29.7926617  76.3281727  15.6409216  33.4425402
  75.4092312  15.4815781  33.6579227  76.8137121  15.2863479  34.1873646
  35.4040003  28.7805271  40.9858179  34.8181510  28.0619884  41.2239695
  35.2674103  29.4372749  41.6686487  93.9106836 101.2392608  11.1937284
  93.4401765 101.8043008  10.5808794  94.7392168 101.0471300  10.7545793
  32.3996664  98.9073216   3.7211093  32.9294611  99.6784579   3.5188705
  31.7972971  99.2028983   4.4037637 108.3254518 101.6959467  28.4961224
 108.0856266 101.3572305  29.3586707 108.7547245 102.5319420  28.6779737
  76.8891191  27.6879835  41.7405176  76.0639048  27.2112632  41.6511154
  77.1587896  27.8708744  40.8404827  30.5059767  27.8447223  70.5067110
  29.8939705  27.4701715  71.1402655  31.3258386  27.3747540  70.6589842
  39.1573882  21.9967914  31.6995668  39.0473986  22.6411176  31.0002971
  39.1001177  21.1502790  31.2564349   4.4672800  98.8378330  37.3401284
   3.5531117  98.7353008  37.6047373   4.4229628  99.2770605  36.4908075
  46.5411901  41.4830685  70.8678532  45.6050825  41.3985014  71.0489082
  46.5888357  41.6521120  69.9269009  36.3966656  42.6154709  33.5699797
  36.2595820  41.6907263  33.3643460  37.2668910  42.8115749  33.2228684
  59.2579889  46.3569784  39.7991610  59.5143366  46.9134569  39.0637350
  59.6129036  45.4948711  39.5822763  68.5909081  18.2959127  48.7668467
  68.4640408  17.6359320  49.4484329  68.4971857  19.1322649  49.2228746
  42.9528141  36.6969657  72.7920389  42.4763393  35.8883023  72.9798365
  43.2152033  37.0255613  73.6519289   0.3158809  86.8665968  12.4812520
   1.1789347  87.2203290  12.6962960  -0.3003882  87.4675213  12.8999829
  25.9953690   5.9439582  17.4192882  26.5131044   6.4225250  18.0667114
  25.2099276   6.4776212  17.2988057  86.3890425  86.6793665  85.5941139
  85.8647505  85.9265073  85.3210603  87.2642676  86.4987477  85.2512072
  30.9538627  28.3901834  51.1686182  30.0158072  28.2694125  51.0213184
  31.0055614  28.9037442  51.9747305  34.0000939  13.8208997  55.5729914
  34.2773104  13.8144660  56.4891481  33.9160895  14.7490799  55.3546858
 100.7912412  84.4500112  44.2632341 101.6324820  84.6256994  43.8417101
 100.6274214  83.5223292  44.0935278  57.5004911  18.3378303  35.0113153
  57.6101685  17.6002216  34.4112015  58.3007956  18.3404171  35.5364299
  61.5997744  37.0019889  44.2375803  62.0295811  36.2193346  43.8926935
  62.2044849  37.3347616  44.9007702  52.3476553  81.9159603  12.8746903
  52.2533560  82.7470016  12.4091673  53.0557442  82.0706654  13.4999168
  29.7079015  37.1469092  81.0404491  30.4782891  37.5822711  80.6754875
  29.0850639  37.1137691  80.3143597  64.7921515  24.5052338  52.0726776
  65.0077820  23.6411119  52.4234343  64.9283457  24.4214559  51.1289310
  40.8663988  41.4798737   7.5335026  41.4820814  40.8115816   7.8344154
  41.2081814  42.2990894   7.8916949  17.2432781  95.8876972  51.5348768
  16.9423891  95.2799438  50.8593512  17.8309418  95.3662359  52.0816517
  29.2121124   5.8867586  37.7309155  28.8693547   4.9965507  37.8101635
  30.1582170   5.7720715  37.6416779  49.2961597   9.3341613  56.9879961
  49.6172810  10.0268519  57.5653076  48.4377527   9.6428251  56.6980028
  65.7583666  54.3524122   3.0165425  66.0401249  54.7201633   3.8541579
  66.2169600  53.5143661   2.9565164  40.9057522  32.6113915  11.1204135
  40.0853157  32.2851634  10.7506931  41.4697695  31.8395972  11.1699188
  47.1976471  52.0623159  78.7616110  47.3784828  52.8446198  79.2826986
  46.9929790  51.3862753  79.4076061  59.2817974  27.9153228  28.6407709
  59.1080379  28.7640285  29.0478826  58.4740686  27.4180865  28.7694812
  10.1637626   2.1874240  64.7487402   9.7064471   1.4613354  64.3246078
  10.5188942   1.8095288  65.5532980  57.5132990   4.5114645  36.8111992
  56.5666485   4.3735245  36.8436813  57.8125525   4.3295708  37.7020407
  55.3341055  33.8113046  37.2229600  54.7793913  34.2901897  36.6071725
  54.7490263  33.5841799  37.9456830  53.2955933  33.6810899  32.5552511
  53.0689096  33.7050629  33.4849119  53.1899595  32.7628160  32.3065662
  70.2204514  15.3368545  57.6236439  69.7745991  15.2724886  58.4682131
  71.1075449  15.0215149  57.7964640  33.0507421  39.3980050  34.6653819
  32.2874880  39.8625350  35.0087285  32.9505706  39.4427204  33.7144876
  20.5236006  26.7966413  32.7228022  20.3518486  27.6240325  33.1724191
  19.8140740  26.7188382  32.0850348  38.5014606  16.5176272  22.3931289
  38.8338804  17.2552478  22.9046416  37.5810695  16.7295158  22.2375131
  78.8390684  17.3341370  36.0295224  79.4649792  17.0803738  35.3512383
  79.3390608  17.9009533  36.6168547  70.1241016  75.4019070  22.6570463
  69.5149231  75.9367323  23.1660604  69.7613430  75.4030991  21.7712498
  57.3185778  34.8559284  39.0924668  57.6680660  33.9746046  39.2242098
  56.5954065  34.7372437  38.4766960  58.2709122  16.1080301  29.2833924
  58.4467459  15.5606008  30.0486612  58.8849926  15.7953489  28.6190391
  25.7733464  29.5060301  27.1929216  26.5237164  30.0286579  27.4758244
  25.0122356  30.0489259  27.3983693  56.8316031  18.9992344  22.8345966
  56.9993114  18.4173155  22.0933318  56.0238886  18.6643374  23.2240438
  77.0918703  15.0214434  35.9832644  77.7769184  14.3763125  36.1586070
  77.2513819  15.7189965  36.6190362  40.2933550  20.6495953  43.9832735
  39.6277952  21.3076782  44.1837406  40.3946495  20.6933022  43.0324554
  37.9291511  21.7685199  13.6091101  37.5216770  20.9209871  13.4305501
  37.2014952  22.3903704  13.6019564  29.5334244   7.7243310  43.8415337
  28.5971379   7.8715050  43.7075853  29.8966742   7.6728374  42.9574347
  30.3352094  30.5774879   8.9218122  30.8328891  31.1527705   8.3407795
  29.9597001  29.9164343   8.3402354  53.5071230  14.2538035  62.5955582
  54.2148590  13.6114824  62.6481915  53.3026838  14.3089747  61.6620779
  36.9524860  44.6839905  22.7491498  36.9009805  44.9089527  21.8201876
  36.1511493  44.1893148  22.9205775  55.4220915  28.6501861  62.8645658
  55.6407261  28.6765814  61.9330406  55.3779173  29.5698261  63.1263685
  55.2045298   3.3149230  41.2730980  55.3270340   3.4024671  42.2183847
  55.6657791   4.0666875  40.9011698  55.0741434   6.9328034   8.1229132
  55.8524513   7.0314223   8.6713129  54.5443630   7.7058601   8.3177203
  68.8570881  24.6103263  35.3387403  68.9397478  24.2603493  36.2258220
  69.3054056  25.4553962  35.3719234  78.5101154   6.5406200  83.1716983
  78.2701095   5.7126591  82.7556329  78.8114651   7.0927403  82.4501829
  64.9491978  13.5711777  39.9689651  65.3698683  13.4786344  40.8237791
  64.5302534  12.7243650  39.8152590  44.5059013  39.5638156  12.2971380
  45.3213310  39.8225737  11.8677759  44.7083664  38.7240720  12.7095342
  64.6541739   4.9013585  42.6171684  65.1682472   5.2463335  43.3472013
  65.1099682   5.2125740  41.8351030  27.0174646  28.9023972  46.6309500
  26.6106772  29.7530365  46.7957830  26.9707966  28.7946415  45.6809807
  65.8015203  20.6148100  62.9560566  66.0819244  20.7563686  63.8602543
  64.8579121  20.4666352  63.0183268  45.3151798  50.6991482  42.2597551
  46.2465382  50.9176397  42.2271967  45.2950191  49.7698021  42.4881029
   1.5033814  31.2869358  36.7086172   0.7307147  31.3124228  36.1441970
   1.1973913  30.8716750  37.5149417  44.8529673  37.1669984  21.0483408
  45.2113199  36.3185453  21.3089967  44.1564798  36.9523978  20.4277873
  31.1749315  29.8916817  27.8089476  31.1844277  30.0717950  28.7490010
  31.8442225  30.4724550  27.4470305  62.7177620  11.4067197  58.8124132
  63.1913710  11.5623891  57.9952860  62.6090336  12.2770357  59.1957664
  64.1286230  29.7157836  54.4754219  64.0552330  30.6452513  54.2587757
  63.6780596  29.6293640  55.3155136  34.5537400  31.7052126  24.1328740
  35.1474977  31.7219877  23.3822727  35.0905299  31.9976425  24.8694706
  41.7148161  39.2358828  34.0769148  41.9694233  39.9603581  34.6483541
  41.5070486  39.6522403  33.2404280  17.9843044   8.3099681  11.0399282
  18.4406531   8.7447482  10.3195500  18.1709576   7.3795122  10.9148490
  63.9247799  33.9270973  37.6206708  63.8283014  33.1379151  37.0876455
  64.2748022  34.5824385  37.0171452  34.6448755  10.5018651  17.7828765
  34.7747946  10.8034182  18.6819971  35.3612590   9.8854238  17.6311255
  61.0977221  12.8302157  30.7523775  61.7429018  12.9994524  30.0658369
  61.5770483  12.3311293  31.4137340  38.0455756   0.2964388  53.5979176
  37.1318221   0.3442796  53.3168554  38.5489726   0.5201533  52.8151178
  68.5217619  25.6397080  52.3898935  67.9863691  24.9445701  52.7724791
  68.8759661  25.2553606  51.5879869  55.7434702  12.1734822  44.4396639
  55.6040859  12.6301563  43.6100578  55.7614708  11.2462795  44.2025948
  60.5551291  35.8879209  40.4935455  61.0389996  36.4581013  39.8960471
  60.7195997  35.0035048  40.1664543  23.0803895  33.7284994  67.0472145
  23.1359553  34.4130039  66.3804340  23.9696360  33.3793020  67.1066713
  65.1294136  24.0768933  49.2635393  64.4340372  24.6826959  49.0072393
  65.0682259  23.3607602  48.6313629  57.4603081  46.2975550  45.2983952
  57.6021814  46.7465830  44.4650412  58.3410454  46.0999489  45.6169701
   8.8644053  76.5176069  19.7828031   9.0078188  76.8113600  20.6824541
   8.0490233  76.0176908  19.8211837  42.6425505  35.4485273  39.4591188
  43.2586384  34.8991394  39.9437189  42.5256681  36.2217069  40.0111723
  22.9033279  35.4027081  56.8988752  22.6323032  34.7125936  57.5042820
  23.2982087  36.0710812  57.4588585  44.7995377  21.4620924  39.6302080
  44.1063690  21.9993162  39.2466259  45.6031322  21.7762923  39.2157769
  18.2308614  45.9299803  34.5920849  17.9658890  46.4737558  33.8502431
  19.1214168  45.6513309  34.3787861  48.9983416   8.5682583  68.0991459
  49.3357325   9.2077029  67.4718428  48.6990452   7.8372639  67.5584984
  13.3216120  99.9999787  37.5468922  12.5603319  99.5020570  37.8448105
  13.5392834 100.5692418  38.2849932  69.1000652  32.2108221   7.2948253
  69.2353630  32.2863340   6.3502491  68.3424950  31.6323876   7.3827839
  79.7857618  29.3802500  67.2138643  79.7986507  28.5357428  66.7634487
  80.6085587  29.7990441  66.9611931  30.8896732  21.7518258  68.3908367
  30.0782180  22.1760130  68.6698341  30.6011868  20.9954572  67.8800392
  34.4218088  95.9528767  12.8934884  33.4905411  96.0552566  12.6973128
  34.4525505  95.8040993  13.8385558  69.7415400  36.3281846  16.7157125
  69.9298811  37.2024918  17.0568097  70.3339529  36.2291169  15.9704149
  28.1119013  29.0903592  31.9593358  27.9653811  29.6869755  31.2252951
  27.3038626  29.1364288  32.4703956  46.1938238   3.2799599  35.2354836
  46.2002325   4.1329998  35.6696653  46.0807705   2.6498473  35.9471059
  45.6680536  15.1591909  56.2176800  46.5792847  14.8734748  56.1523914
  45.2940607  14.9652362  55.3581762  71.2192678  31.3530636  24.7123122
  71.3822079  32.1709514  24.2424822  70.5845499  31.5880322  25.3891850
  44.9457932  88.5506630  43.2885313  45.8935499  88.6821842  43.2623243
  44.7902346  87.8113651  42.7007627   2.5243045 100.3738158  64.0407276
   2.8921438 101.0579463  63.4813595   2.6161648 100.7162753  64.9298382
  46.5948296  21.2250900   3.5494417  46.5210962  20.3540492   3.1594652
  47.2826052  21.1347699   4.2090166  61.2752676  31.6370082  33.4455967
  60.9464836  32.0254731  32.6349020  60.4892492  31.3448572  33.9071774
  38.0993080  28.2863760  25.8344316  38.9759612  28.5072351  26.1489701
  38.2386899  27.5594234  25.2275205  49.5563126  46.2168121  14.2455792
  49.9910402  46.9175291  14.7316170  50.2149105  45.9149647  13.6199856
  34.9190784   4.7886804  50.7000351  35.2058506   4.0735221  50.1321077
  35.6688142   5.3827864  50.7341671  69.1596222  37.7518463  76.8983984
  69.6377563  36.9464016  76.7012167  68.2461357  37.4758792  76.9732952
  53.4643698  42.0854950  28.3165789  53.6875439  42.5368452  29.1306472
  52.7796793  42.6262379  27.9228497  14.3850828 100.2590968  25.0478053
  14.6003367  99.4196515  24.6413207  15.0131775 100.8755527  24.6713543
  77.5235224  24.1447210  45.0258636  77.6286888  23.3014727  44.5852900
  76.7706156  24.0207481  45.6037855  60.2712965  27.3693228  41.5556192
  59.7690058  26.5702105  41.7148495  59.6138144  28.0645466  41.5308428
  76.9709063  33.0750632  18.8461244  76.5963364  32.6323175  18.0846107
  77.8324890  32.6730752  18.9571083  80.0032902  14.4002533  17.1560633
  79.4927692  14.8725080  17.8137696  79.8711586  13.4762931  17.3683560
  37.1750569  27.2692180  78.9345312  37.1221375  27.1730638  77.9836464
  37.0800138  26.3781667  79.2710304  71.9117737  29.0033174  29.8879981
  72.3749828  28.1811190  29.7278070  72.6000786  29.6684575  29.8955727
  29.9947764  96.6565942   6.8492430  29.7508599  96.9700371   5.9783304
  29.1771866  96.3281309   7.2232568  54.8560619  13.6879742  60.2604294
  55.6294012  13.7779033  60.8172894  55.1568699  13.1684637  59.5148706
  43.5745811  38.8196564  44.9364519  44.0889692  38.6803555  44.1413212
  43.7022305  38.0203605  45.4473972  55.2570772  12.1116662  77.6699829
  56.0810614  12.5924504  77.5916672  54.8798418  12.4158025  78.4954643
  67.9207516  51.4044523  20.3764462  68.6481380  52.0132494  20.5049109
  67.1444178  51.9006872  20.6358600  68.8321114  21.8688703  62.7668953
  67.9830503  22.2594666  62.9736900  69.3843460  22.0844603  63.5184193
  72.7005100  11.3672209  68.3369684  73.6060095  11.0665143  68.2602692
  72.3618841  10.9131396  69.1085720  30.0302315  48.0867577  39.7065496
  30.8249664  48.1487656  39.1766572  30.3277731  47.7307987  40.5438042
  80.3618336  30.1347566  51.5984297  80.1919746  29.5906949  52.3674393
  80.1918507  31.0287571  51.8952513  27.4739385  35.5347586  37.7122188
  27.9945588  36.2183595  38.1339765  27.1178579  35.9539151  36.9287992
  73.1868172  20.8174157  47.8866148  73.9990282  20.3616714  47.6656055
  72.5414562  20.1185894  47.9932976  72.8597021   5.9609056  48.9377403
  72.9016781   6.7343134  48.3753252  73.3939123   5.3073072  48.4864521
  99.3834209  45.9838533  16.2910783  98.5705280  45.5293560  16.5121543
 100.0624371  45.5050135  16.7663538  50.1372480  52.1163702  26.0906243
  49.6245480  52.0312214  25.2868080  49.8790359  51.3621378  26.6204309
  83.9375782  34.7907424  80.8158875  84.5973396  34.2432117  80.3902531
  83.1588459  34.2359757  80.8610916  86.2785816  35.1543975  32.3332620
  86.1519718  35.6959748  33.1122971  85.6021976  35.4497194  31.7237425
  54.3611240  28.9272594  35.6801057  54.3605947  28.5745931  34.7902417
  54.5429611  28.1706357  36.2374973  56.6861868  24.0107536  54.7284889
  56.3713169  24.7865105  55.1924849  57.5937080  24.2172933  54.5049238
  35.8717823   9.5852113  35.6117988  36.2409401   9.6946013  36.4881492
  36.1785483  10.3504479  35.1254463  25.6302096  96.8987512  24.5423794
  25.6137587  96.0092663  24.1891408  25.9874512  97.4319177  23.8322067
  54.4255066  45.0540876  18.4994912  53.7394476  44.3959093  18.3883119
  54.9938059  44.6949387  19.1808760  37.3777699  11.6699469  74.3138981
  36.4926362  11.8613207  74.6239758  37.8429317  11.3626909  75.0920057
  45.7665205  21.9514656  26.5256405  44.9786472  21.5618873  26.1465359
  45.7877779  21.6224766  27.4242759  46.5424109  10.1211357  75.1037836
  46.7482948   9.2914242  75.5343914  47.2077656  10.2082968  74.4211912
  52.3602104  45.5661821  34.7972441  52.6549435  44.9353790  34.1403985
  53.0311060  45.5330133  35.4791737  33.4207226  88.6388742  12.4301219
  33.8563658  88.9505159  13.2234228  33.5962702  89.3173872  11.7781746
  72.6732969  13.8068509  40.5426741  73.1702328  13.0924559  40.1440191
  72.2309017  14.2304969  39.8071194  77.8705215  23.8181663  13.4804809
  77.1412325  23.5439038  14.0364921  78.1035280  24.6886897  13.8031685
  60.6329727  16.2486768  62.2443008  60.6651545  17.1766686  62.4767399
  59.8767662  16.1736333  61.6622782  78.4899998  30.7793212  45.2166367
  78.3831358  30.4344988  46.1031532  78.8774395  30.0562000  44.7234678
  67.1049595  27.0434475  58.1689692  67.9909420  26.9934797  57.8101206
  66.6846514  26.2323809  57.8830576  58.4369659  25.8874989  45.7005692
  57.7351379  26.1695576  46.2871838  58.7535334  25.0687265  46.0821772
  51.4288998  29.6908832  67.2072363  52.1971464  29.1203189  67.1852016
  51.1530972  29.6859360  68.1238270  24.5759249  43.2522535  41.1523008
  24.0150499  42.4844408  41.2623739  25.0466919  43.3259678  41.9824696
  53.6250114  24.4916582  45.5430937  53.9417028  25.2166104  45.0042200
  52.9702520  24.8884821  46.1175919   3.4779492  19.0488064  78.6253119
   4.3878457  19.2805076  78.4392071   2.9844564  19.8475027  78.4388161
  73.4668970  68.4481955  27.9090452  72.8877544  67.6864815  27.9338813
  73.1566048  69.0082979  28.6205506  58.0355358  46.3368559  42.6738644
  57.8792429  45.3930378  42.6421833  58.2187462  46.5798855  41.7663383
  60.2147722  38.1174302  37.6101971  60.1267481  38.5927820  36.7840481
  59.8063135  37.2681427  37.4425602  55.1401043  47.7507257  46.0056114
  54.7365570  47.5476027  46.8494844  55.9137392  47.1882772  45.9685135
  88.6350632  36.7300487  13.7945473  88.1363583  35.9142089  13.8385546
  89.4539833  36.4871740  13.3625722  82.2132778  59.9523640  50.8986235
  81.8694782  60.4971457  51.6066170  81.4489746  59.7507858  50.3587723
  55.9759951  42.3477221  44.5693731  56.3758945  42.3327732  43.6998415
  55.2481699  42.9640293  44.4877100  19.4669129  97.0764249  71.6930628
  19.4480826  97.0271992  72.6488113  19.6217228  96.1752908  71.4098215
  54.0974426  48.8916302  43.5894442  54.4364405  48.7396812  44.4716120
  53.5897255  49.6996641  43.6638403  75.3295851  31.3975644  35.9990406
  75.5690908  32.2070074  35.5477405  76.1645222  30.9600115  36.1653543
  94.3380547  37.4889255  65.6797218  93.4040260  37.5839782  65.8662653
  94.4004440  36.6767716  65.1769876  58.8456488  38.5033727  39.9388742
  59.3819904  38.2791615  39.1784143  59.4041634  38.3090496  40.6915569
  50.7752275  50.6903887  42.8718615  51.4147377  50.3406906  42.2514009
  51.2752724  50.8352566  43.6751032  67.3943090  54.2571306  37.2206235
  68.2942104  54.0755510  37.4916244  67.4353886  55.1255274  36.8200922
  55.1830149  52.9418850  24.0748215  54.5052433  52.2671032  24.1139126
  54.8071909  53.6271143  23.5221505  62.6328230  56.4021349  43.7597895
  63.5796309  56.3620758  43.6249256  62.2752142  56.5926218  42.8925753
  53.1882763  42.9987764  25.1061606  52.6723623  42.2194862  24.8993683
  52.6579094  43.4744501  25.7454419  70.3213215  39.7336197  23.3393264
  71.0187149  39.0837979  23.4265327  69.6564484  39.3009806  22.8036094
  80.5013084  35.3877139  45.9710360  79.9301386  34.6198559  45.9514093
  79.9087524  36.1300874  45.8527756  41.3166428  60.6373549  17.0191348
  40.3791237  60.7970476  17.1277022  41.6040611  60.3097153  17.8713524
  42.0152426  19.6966231  57.2423601  42.0856094  20.2037764  58.0511093
  42.7280331  19.0600133  57.2960711  67.6960468  69.3019772  17.4276102
  68.5079050  69.8078203  17.4628103  67.2365236  69.6397638  16.6588652
  56.9006252  46.8198395  31.5034628  56.3977432  47.0077515  30.7109785
  56.2484789  46.5148497  32.1342683  55.6189060  44.9000597   2.5587717
  55.2046299  44.3952703   3.2586232  55.7528067  44.2667341   1.8536445
  74.2734003  50.5686951  26.5176415  75.0630426  50.9591389  26.1431479
  74.1579151  49.7509336  26.0337400  41.8366480  31.7439580  22.2083044
  42.1593666  32.4211025  22.8029132  41.9091797  32.1352601  21.3377547
  62.8871679  49.9413681  39.4134736  62.8691339  49.4216394  38.6098647
  63.1403303  49.3192291  40.0954437  70.1143408  59.2169952  33.9931679
  70.7942533  59.2821693  34.6637654  70.1009321  60.0807714  33.5809326
  64.6956682  38.7565160  37.0634842  65.0321102  38.7432003  36.1674571
  63.9341354  38.1769991  37.0420170  99.9182987  57.2328424  31.9019747
 100.1178265  58.1680059  31.8585515  99.9665546  57.0206690  32.8341174
 101.5817356  34.8851037  72.2325802 102.1138287  34.2675495  72.7343130
 101.6729069  35.7151127  72.7005625  66.0136747  63.8500786  38.9856601
  65.6968403  62.9873991  39.2533135  66.9652128  63.7934017  39.0728116
  75.8414030  65.2127838  33.0770350  75.6663752  66.0520554  32.6513386
  75.3229332  64.5796347  32.5804996  45.5554485  81.9679737  57.8049469
  45.1136971  82.4570847  58.4991074  44.9378014  81.2756920  57.5694036
  74.8102760  64.2472458  48.4640408  75.3676414  64.4407988  49.2177725
  74.7258759  63.2937813  48.4671259  86.3661957  64.0483665  55.6164980
  86.4587593  64.7125483  54.9334717  85.8136654  63.3739281  55.2214432
  85.1250935  72.4132586  39.9908566  84.8358059  72.0926237  40.8451033
  84.6789265  71.8488216  39.3595266  11.6146622   0.7544435  66.5880203
  11.6416035  -0.2017199  66.5525532  12.5188122   1.0130704  66.7665052
  92.9076004  62.4770451  27.9753590  93.0164719  62.3021317  28.9101219
  91.9865227  62.2833920  27.8011441 101.1203480  63.6893177  21.8605971
 101.1779404  62.8424406  22.3029971 100.4151344  63.5789204  21.2228489
  64.8197699  80.1883411  61.8986177  63.8806152  80.1550102  61.7166615
  65.2053499  79.5654249  61.2825584 101.1769772  67.1978951  50.0015593
 100.9144783  66.8882036  49.1347122 101.1702538  66.4124870  50.5486631
  98.7562943  48.9565754  20.6890488  98.1209564  48.3017969  20.9786034
  99.1740799  49.2580748  21.4957643 104.1891193  50.0170040  46.4356279
 103.5826874  50.4626083  45.8441019 105.0060463  49.9568748  45.9403944
  75.8129835  73.3362341  39.2925382  75.6517982  72.9396772  40.1486874
  76.7249441  73.6246014  39.3300176  75.3931761  56.0641766  48.9370203
  75.6789541  55.4725409  49.6331024  74.5442104  56.3914204  49.2343521
  63.5976076  43.2093191  33.4222722  63.6357641  43.9731026  33.9979577
  64.5005178  43.0842161  33.1301641  32.1312357  10.3711483  86.6845186
  31.3453223   9.8482010  86.8429242  32.6506354  10.2706024  87.4822341
  89.3955040  59.6326542  -0.2488969  89.2358589  60.5684614  -0.1263761
  88.9235592  59.2129850   0.4703967  65.2082586  85.8086491  33.4937406
  65.7591772  86.5634346  33.7011790  65.6594038  85.3746223  32.7696466
   3.9413868  81.7045212   8.3235711   3.4428440  82.4536324   7.9971886
   3.5160385  80.9433556   7.9286939  81.5783787  61.3584995  53.2647514
  81.4827633  61.3983107  54.2163277  82.0273590  62.1720219  53.0349016
  72.5324774  54.8696804  21.5279651  72.2976685  54.0293169  21.9215274
  72.2051001  55.5233383  22.1458507  99.3646431  61.1124277  55.7311106
  99.6179771  60.4792500  56.4027786 100.0039864  60.9865236  55.0299501
  68.5076237  60.3372717  52.5721216  67.8508186  60.6959772  53.1689215
  68.2439470  59.4258499  52.4455833  66.9537067  61.8871069  34.1892266
  67.8048372  61.8680906  34.6267748  67.0850039  62.4614477  33.4348226
  94.3542290  67.3675108  44.4905281  95.1162243  67.9452419  44.5332575
  94.4232655  66.8216944  45.2738190  55.0086546  54.6710682  31.7811036
  55.7022953  54.4978046  32.4175549  54.2650461  54.9601078  32.3100042
  58.4269190  79.1490936  12.6803589  57.8195333  78.9790249  13.4003532
  58.4513664  78.3281994  12.1886599  66.7337561  74.3475723  44.9890614
  66.3782501  75.0951433  45.4696703  67.6190090  74.2385483  45.3364468
  75.0665474  82.4819279  56.3617373  74.7179270  82.6202011  55.4810715
  75.6730700  83.2101154  56.4962959  78.9103937  80.8727646  20.2459002
  78.4798098  81.3448906  20.9585905  78.2943535  80.1784992  20.0119472
  99.0201473  52.6539373  35.4513001  98.0632496  52.6658630  35.4723215
  99.2363167  52.2820568  34.5961928  62.6729393  50.0878000  11.3244104
  61.7186260  50.0135374  11.3233972  62.9655218  49.4068575  11.9301736
  90.7184696  37.5004482  40.4920292  91.1052227  37.5245309  41.3672829
  90.5813503  38.4202623  40.2653742  85.5684376  63.2055044  46.1511946
  86.3859272  62.8608370  45.7918215  84.8838711  62.8083086  45.6128359
  72.7210760  72.8716660  62.7398825  72.8770351  72.0987844  62.1971464
  73.3761072  73.5055828  62.4477959  72.2228622  56.3069916  58.0288696
  71.5259123  56.8618202  58.3790970  71.8742990  55.9792662  57.1998167
  47.8220059   6.6790411  86.0673379  47.3817707   6.1813805  86.7563634
  47.7750088   7.5886795  86.3615813  73.6656952  39.1945457  25.7535911
  74.2302513  39.3340063  24.9932885  73.9247274  39.8770928  26.3726711
   0.3537785  97.1897221  60.7959175  -0.5957187  97.2185421  60.9136200
   0.6970440  96.9885635  61.6665125  72.9135990  69.1019297  38.3379602
  73.1834030  68.1973076  38.1795359  73.3571005  69.6069860  37.6564527
  97.8551006  38.6246204  59.9063969  97.3376656  37.8207612  59.9543953
  97.9572678  38.7880731  58.9688063  64.4812107  90.6594563  37.1376038
  64.4267559  90.9465313  36.2260938  64.4310236  89.7046852  37.0914173
  82.6760387  79.1213083  54.8837042  83.1503868  79.6300793  54.2261457
  81.7737103  79.4351673  54.8242760  78.9190769  58.9983511  11.4019799
  79.1513062  58.1061506  11.6594279  78.8304567  59.4710541  12.2295833
  86.6921902  69.7129917  49.9540520  86.5557194  69.7441864  50.9009600
  85.8120060  69.6266556  49.5879269  74.1362762  86.9256115  52.1703339
  75.0269508  86.5793991  52.2257471  73.8031197  86.5970612  51.3352919
  83.4432507  65.1373005  16.3910139  83.1192875  64.3563604  16.8398023
  82.6523304  65.5988836  16.1124349 102.7531528  48.8034868  31.0955000
 103.1944561  48.8228559  31.9446802 102.9927826  47.9561090  30.7203174
  53.1437016  69.5236826   9.2172694  53.8170099  68.8462400   9.2802298
  52.4475193  69.1218710   8.6975515   5.3039109  61.9880676  72.6270723
   6.0530125  62.5823736  72.6703882   5.0092827  62.0399427  71.7178249
  70.1831055  84.7442913  34.9361491  71.0554171  85.1321125  34.8661327
  70.2850389  83.8602257  34.5836401  94.1433239  54.4223499  59.3648529
  94.5675755  54.5455313  60.2140045  93.2884789  54.0472126  59.5763826
  81.7408276  42.0388603  87.3668861  81.5440083  41.1092806  87.2512531
  82.6392174  42.0542240  87.6968670  81.5691948  62.6794004  39.5955491
  81.0953140  61.8500948  39.6581721  81.4319801  63.0984116  40.4451561
  78.4034204  61.9379234  49.4689655  77.4643850  61.8569088  49.3019819
  78.7396622  62.4232912  48.7155771  60.3008986  56.0427189   8.3151263
  60.6338739  56.6981983   7.7021766  60.7672071  56.2200022   9.1320479
  93.2251930  43.9311743  66.7951298  93.4943485  44.6893978  66.2765932
  93.4726238  44.1546106  67.6923990   3.1311165  60.0401449  28.1959009
   2.4255215  60.1680231  27.5618553   2.6862561  59.7616577  28.9963841
  77.3620939  84.0112305  56.5834665  78.1372309  83.8698292  57.1269751
  77.6973867  84.0248680  55.6870174   3.6694815  99.0380772  83.6191426
   3.6186507  98.1577262  83.9914744   2.7570918  99.2939528  83.4838323
  88.1853771  66.0750675  54.5125771  88.5562706  65.1946878  54.5725203
  88.9213371  66.6581917  54.6984720  47.7828169  28.2154059  35.1609731
  47.8233480  27.3375177  34.7816324  48.6876678  28.4143710  35.4015756
  96.8866730  55.4756927  53.3714771  97.3749924  54.8425817  52.8452158
  96.2587738  54.9455309  53.8622952  76.6909218  69.4794416  19.8545527
  77.4043131  69.4552517  19.2168105  76.7277193  68.6265707  20.2875566
  86.8095684  60.7353544  60.8487797  87.3068619  61.5182924  60.6122637
  86.2318420  61.0230303  61.5556765  93.1683636  84.3768215  74.1194677
  92.8081322  84.8390579  74.8763037  92.4784184  84.4264507  73.4578419
  67.2590876  65.4247046  42.5666285  67.0031404  66.2960625  42.2642088
  67.5715828  64.9799395  41.7787457  56.6388178  77.1734810  31.0138488
  56.0083723  77.6535702  31.5507674  57.0335102  77.8413439  30.4531240
  45.1679564  98.7929916  38.9472604  44.2685890  98.4843063  39.0572143
  45.1277113  99.3855953  38.1966424 107.7731037  86.1997795  67.1458197
 107.1478653  86.8317604  67.5006580 108.4228230  86.0899734  67.8401184
  71.0097122  77.5238943  17.3241639  70.2390003  76.9612455  17.2489405
  71.3181543  77.3890591  18.2202184 100.7405567  75.6788349  13.5007799
 100.3579903  74.8014259  13.5056150 100.0380611  76.2481642  13.8147783
 103.5678196  53.0251074  59.8991632 104.0488338  53.0231190  59.0716076
 102.7393436  52.5909996  59.6956873  72.8834581 102.6533604  32.5088167
  72.4768400 102.1608162  33.2217693  72.1714640 103.1792450  32.1444869
  87.6904583  82.1200466  56.3923120  88.0974102  81.3535595  56.7962074
  87.0652676  81.7567253  55.7651234  77.3807192  54.1265202  34.4733238
  77.2375202  54.1494370  33.5271716  78.3256340  54.2403316  34.5753789
  77.1104288  61.1455631  34.0567303  76.7070723  60.5671978  34.7040534
  77.0521498  60.6609964  33.2333040  64.3091774  53.2836294  33.1206155
  63.4130144  53.0088091  32.9267073  64.4550467  53.0044222  34.0244961
  72.9259491  84.9754524  30.6914163  72.7898884  85.1480198  29.7597837
  73.8764906  84.9171638  30.7878804  97.1346092  51.2270880  25.5927849
  96.6609478  50.4396582  25.8607912  97.7132702  51.4211273  26.3301706
  97.1556187  76.2254858  67.5136375  96.9193935  77.0330429  67.0572567
  97.8098679  76.4968443  68.1575012  74.9353790  69.3375015  42.5575972
  75.5515003  69.1443157  43.2642126  75.4901981  69.5669174  41.8120956
  81.5628338  61.1746836  19.9977803  81.8284416  60.4719925  20.5910063
  82.3092842  61.2860346  19.4090128  93.4168053  84.4630718  36.1695170
  94.0785789  84.9622822  36.6481328  93.7282658  84.4587040  35.2644181
  80.8430195  57.1930313   0.8171126  80.8230114  57.3839521   1.7548661
  80.2418518  56.4559221   0.7098772  80.5414581  60.2401066  35.9179640
  79.9554682  60.4321241  36.6500711  81.2341499  59.7015285  36.3005090
 100.6248951  50.7110834  84.6678638 101.1975098  50.9388971  83.9354324
  99.8689938  51.2901115  84.5700073  56.1464882  44.0136290  32.8414059
  56.8547010  43.3698368  32.8272724  55.8247805  44.0356255  31.9401574
  76.5587711 100.2680492  57.4447250  76.5249491 100.3253460  58.3996105
  75.9739733 100.9628487  57.1422291  90.8743572  40.1122427  54.8365116
  90.5906391  40.8391094  55.3909540  90.9765053  40.4997683  53.9672470
  62.2410583  57.5718212  41.3050938  62.9317093  58.0935001  40.8963346
  61.4884853  58.1618023  41.3473558 105.0808334  74.9390268  36.2841988
 105.6360149  75.7160330  36.3494778 104.3414402  75.1236200  36.8633819
  52.4389696  67.7088737  21.5164161  52.8793621  67.8766537  20.6832695
  51.8925285  68.4818363  21.6584086  66.3794899  60.2250862  48.5918379
  66.0548687  60.9125090  49.1734791  66.7194843  59.5526552  49.1821575
  78.2336569  84.6086884  31.4336014  78.3860874  83.7786484  31.8853116
  78.6854601  85.2599144  31.9702554  71.8872786  43.2958364   9.9927860
  71.1413097  42.9468060   9.5049936  72.4814463  43.6252069   9.3184638
  77.7424526  75.9484529  42.0839691  77.1620893  76.7012978  41.9715691
  77.2030687  75.1931620  41.8498182  64.8050261  55.0699425  24.0852571
  64.2301416  54.3094540  23.9992309  65.0603199  55.2800322  23.1869698
  55.1469135  90.9633350  54.9421215  55.9532452  90.5011177  54.7131777
  55.4221249  91.8690205  55.0843143  80.9219551  97.9964638  24.6166873
  80.5520916  98.2688332  25.4564762  81.6438007  98.6062241  24.4638467
  96.7803860  47.2544289  60.7706213  97.0057964  47.7956152  61.5272856
  97.1789551  46.4043331  60.9569120  59.8593235  92.2201061  54.2095375
  60.1729155  92.6381397  53.4075832  60.4425859  91.4712620  54.3331385
  97.8249550  44.5543051  13.7146652  98.7708187  44.5628738  13.5680282
  97.5891685  43.6266708  13.7029982  76.5058804  89.6818924   2.9478127
  77.2019672  89.2346573   3.4291345  76.6798353  90.6130791   3.0851656
  89.8431492  64.8643780  24.0892196  90.7081413  64.7006273  23.7134385
  89.2302513  64.5326614  23.4330583  41.7074133  38.4828398  84.7978936
  42.0389343  38.3592245  83.9084862  40.8023812  38.1732962  84.7613420
  65.3672409  57.7045059  47.1885920  64.8636961  58.1195307  46.4882803
  66.2800074  57.8959894  46.9731283  85.6047058  75.9257793  57.5152969
  85.5334187  75.7925558  56.5700960  84.8963356  75.3991032  57.8855038
 105.5644703  74.5277643  27.2099018 106.2438869  74.6671391  26.5502024
 106.0126495  74.6555185  28.0459905  77.4582100  69.3129206   3.4908816
  77.8128242  69.9264526   2.8474066  76.8803692  68.7420797   2.9844472
  89.2519283  65.7972813  65.5410147  88.5799503  65.1475573  65.7472420
  89.4540405  66.2079382  66.3816977  26.8916642  27.5559092  57.1659088
  26.4969860  26.6840339  57.1487188  26.1753117  28.1381512  57.4190044
  91.1634922  74.2046452  16.3639343  90.8149147  74.7958279  17.0311892
  91.5244961  74.7855473  15.6942618  83.9233780  59.0061808  35.9776831
  83.5994625  59.4497013  36.7616463  84.7333431  59.4670773  35.7591510
  57.2383404  77.3519421  36.8224072  56.7836189  77.2119284  37.6529837
  57.3744822  76.4714575  36.4724898  58.0225229  55.7460356  26.4382505
  57.8419685  56.4698553  25.8384848  57.5259161  55.9599066  27.2281075
  56.8923521  95.8813953  32.8696060  56.1502457  96.3215446  33.2840657
  57.4965239  96.5894508  32.6463032  96.8776703  41.0994434  53.1159830
  97.2911644  40.5760908  53.8025331  96.3521576  40.4716825  52.6200104
  95.7408237  63.4044027  38.8643217  96.3463688  63.6205626  38.1552243
  96.2738037  63.4538841  39.6578693  80.2348042  59.0858555  33.4398508
  79.4535685  58.6255407  33.7464643  80.5486965  59.5628834  34.2080641
 103.2805634  42.9712868  29.0836620 102.9592514  42.7664375  28.2055807
 103.6631870  42.1513700  29.3960190  82.4974060  67.5627661  48.6573792
  82.4222279  67.2108793  49.5443726  81.9911861  68.3748865  48.6781883
  37.6658297  88.8482666  50.9099388  37.6706171  87.9074287  50.7337618
  38.4085679  88.9856148  51.4979076 101.5834618  41.5699053  83.2281590
 102.4908257  41.8474865  83.1021786 101.0693073  42.1899605  82.7110481
   5.4248463  93.3167458  49.9487114   5.4681813  93.1532001  50.8908415
   6.1239277  93.9492512  49.7830057  76.2461615  53.9140940  27.8762650
  77.1465063  53.8840294  27.5526762  75.7150841  54.0605783  27.0934963
  85.7713509  83.4956551  57.8647280  86.6438007  83.4927559  57.4709558
  85.2927780  82.8149414  57.3916149  72.6419449  68.2281303  41.9138336
  73.5380602  68.5313272  42.0596933  72.0923901  68.9125395  42.2956848
  85.7347870  59.8214245  40.5485964  84.8361397  60.1500893  40.5234718
  85.8553505  59.3889046  39.7032428  61.0708237  56.3224459  53.3102274
  60.5685902  56.4895535  54.1077662  61.8716097  56.8352938  53.4195900
  27.3702885   6.9776508  68.6420505  26.8769623   6.2141010  68.9418023
  27.5954128   7.4476549  69.4449477  70.7985020  88.3661747  50.6390095
  71.0105705  87.8339958  49.8721695  69.9688530  88.7881374  50.4157019
  81.2797451  92.0119095  47.1716166  81.0385418  92.3224545  48.0443192
  82.2223663  91.8544102  47.2254848  84.6562290  63.8809538  21.2580490
  84.9695015  64.6503782  21.7335224  84.4410419  63.2475281  21.9426680
  81.0900593  62.7589035  34.3162966  80.9746361  63.4712124  34.9452043
  80.8162308  61.9738817  34.7906256  74.8542500  76.9669819  34.3493700
  75.1755285  76.3890553  33.6572623  73.9218998  76.7618227  34.4191360
  63.8470793  70.5145550  55.9981394  64.1803741  70.0874472  56.7872667
  63.0154276  70.0750065  55.8209705  68.3059645  98.3113098  62.5152588
  68.5968876  98.3231544  63.4271002  67.3621988  98.4638500  62.5629663
  94.0791988  95.3560829  29.9843049  94.4405270  94.4719887  29.9207687
  94.7549248  95.9187508  29.6061110  88.2421112  43.2454014  20.0243759
  87.4314404  42.9509830  19.6091998  88.8807106  43.2705784  19.3117905
  50.3362824  41.6699907  88.3718155  49.8066784  40.9724161  87.9856251
  51.2398983  41.3750670  88.2590174  76.1097288 101.4542007  21.2239480
  76.8489027 101.0232353  21.6530442  76.2271881 102.3835564  21.4207268
  85.3095627  58.3420134  59.5789814  86.0396004  58.7261963  60.0644445
  84.7318554  57.9883957  60.2553225  70.3354168  89.9469090  83.8117790
  70.1509142  89.1433620  83.3254719  69.9048328  90.6367016  83.3067894
  71.4964247  81.2827587  60.5530834  70.7651711  81.7028999  60.1003408
  72.2773838  81.6655254  60.1532984  65.7055187  72.3040438  25.8068419
  64.9690771  71.9488287  26.3045454  65.3245831  73.0127716  25.2883601
  91.5879250  77.7004719  47.2662878  90.6321430  77.6525497  47.2460175
  91.8707275  76.7937803  47.3852730 103.5563946  57.4352741  37.5402141
 103.9254189  58.1743431  37.0566511 104.3165684  56.9127846  37.7958751
  66.2310648  63.4165049  27.0945287  66.3463449  63.7742090  26.2141919
  67.1019602  63.1067085  27.3431182  10.4362618  81.9203091  44.6989918
  10.4581772  82.7249050  44.1809368   9.5330654  81.8603611  45.0102186
  22.2816213  34.0688793   2.0627363  22.8680881  33.3157531   1.9914301
  21.7892870  33.9135829   2.8687914  42.2364117  47.2070906  80.9937678
  41.9151999  46.5635607  81.6253673  42.9458405  47.6583025  81.4513169
  82.4675846  95.9903049  38.7642121  81.6216469  96.3488770  39.0326023
  82.3860264  95.0480652  38.9117718  67.3301172  92.4899006  14.9486542
  68.2336473  92.2820663  14.7106087  67.1708202  91.9862270  15.7468808
  77.0845890  71.7989016  67.9387712  76.6177225  71.0359526  68.2796192
  76.6952753  72.5429010  68.3982563 100.3357887  85.7936859  64.5328712
  99.8893833  85.3001976  63.8448048 100.7670879  85.1254559  65.0654984
  74.2363977  92.6404190  53.7933302  74.7172403  93.4649754  53.8650036
  73.5116386  92.7312469  54.4119596   6.9228779  93.4238052  19.8448586
   7.5763260  92.7630997  20.0743937   7.0132767  94.0951538  20.5211449
   2.5975167  57.0463181  10.9364522   2.9199730  56.9446659  10.0409508
   1.6524731  57.1630383  10.8389235  95.1885033  76.1991167  41.9725323
  94.3886948  75.7040071  42.1497488  95.8263206  75.5367041  41.7067719
  74.1224670  94.0719604  50.6567430  74.9745274  94.2652225  51.0477257
  73.4875631  94.3454456  51.3188124  90.7618332  82.1397018  40.5840492
  90.2734661  81.8611240  39.8093677  91.3291550  82.8434753  40.2692699
  68.4657001  78.4648085  55.0585032  69.2636108  78.2626772  54.5699263
  68.2295275  79.3484974  54.7764587  79.6301699  78.8038540  62.4837923
  79.6805429  79.7462702  62.6436138  80.4623604  78.5874271  62.0632505
  18.3145977  10.5456659  83.2280021  17.5773312  11.0431358  83.5818272
  18.8304402  10.3025219  83.9967780  98.7502384  54.3823481  40.9799337
  98.9321804  55.1519680  41.5192032  97.8726196  54.1065836  41.2444496
 105.6991768  86.5168858  33.1293082 105.9273529  87.1882820  32.4863577
 106.3902378  85.8599377  33.0451250  96.8278599  46.1577654  67.4697590
  96.1597347  46.4074945  66.8314171  96.5447426  45.3013897  67.7902126
  77.3833036  55.3772783  57.4121094  76.7917109  55.9979963  57.8375053
  78.1436825  55.9029245  57.1636248   8.4328781  72.4497938  29.1992378
   8.4589325  72.0619822  28.3245063   9.2793881  72.8867102  29.2928362
  65.8449793  62.6913023  50.2669954  66.2061501  63.3099222  50.9018898
  66.0849619  63.0551958  49.4148111 106.6909790  78.7820959  28.5869408
 106.2207699  78.3660460  29.3094611 106.5048504  78.2276201  27.8292179
  85.4228592  68.6874342  43.4165382  85.6828403  68.0956936  44.1225767
  85.7643700  69.5413923  43.6817884  88.9072418  71.3272715  35.4723763
  88.8290691  71.6845131  34.5877886  88.2780647  71.8296576  35.9900427
  33.7556801   5.5598367  41.0068417  34.6678886   5.4161561  41.2587547
  33.6947880   5.2102197  40.1178598  75.0457382  92.8583622  18.5604250
  75.0682354  93.0611801  17.6252282  75.9592915  92.6894760  18.7909222
  78.3408880  70.4157782  35.7974219  79.1201544  70.7735920  35.3720474
  78.3337641  70.8212948  36.6644502  31.4689407   9.7178758  13.7258279
  31.4641914  10.3878416  14.4094622  32.3388348   9.7837842  13.3319187
  76.4546251  88.9054298  15.0261557  77.3504829  89.1841030  15.2159357
  76.5539217  88.1956100  14.3917084  20.6526505  79.9112654  61.6162682
  20.6736027  79.3330812  62.3788261  21.5116726  80.3335094  61.6121769
 101.8395138  55.3502131  69.1215897 101.9705677  54.4031668  69.0751839
 101.8889523  55.6437159  68.2118416  89.8221588  72.9338121  29.6719241
  89.4309044  72.1176624  29.9834609  90.2642822  72.6921129  28.8580799
  87.1377373  82.5093842  44.7165489  87.7522373  83.2353783  44.6090889
  87.5451088  81.7796993  44.2498159  87.9592133  61.7774963  25.7069182
  88.0412579  61.3856649  24.8374534  87.7830887  62.7028751  25.5369520
  51.7923689  73.9158964  76.5986252  52.2238684  74.6634054  77.0124722
  51.7216015  73.2639885  77.2959328   0.6846763  26.5487740  83.2073300
  -0.0420140  25.9441063  83.0572300   0.2633096  27.3825667  83.4158300
  91.7606354  91.7938328  67.9989290  92.6507473  92.0190811  68.2694817
  91.2431812  92.5719929  68.2061291  94.4120693  72.2571468  40.8438969
  93.9304638  72.8447628  40.2616644  93.7634373  71.6101456  41.1212111
  91.3732624  97.1062660  53.1868362  91.7806149  97.7366829  52.5928116
  91.2701607  96.3133717  52.6605988  74.6049452  92.0205212  33.9624572
  74.1229010  92.5327110  34.6117043  75.4442406  91.8311119  34.3819118
   5.6274735  56.3456440  10.0908291   4.7872673  55.9062338   9.9596727
   5.7427441  56.8812561   9.3059313  89.1611385  44.7309208  76.9358063
  89.7132683  45.2127934  77.5515890  88.2931900  45.1219463  77.0357323
  85.8028126  17.9065239  40.9646702  85.1751137  17.1844935  40.9946632
  85.3867435  18.5625196  40.4053926  77.6067041   1.1507047  37.1762967
  77.6416229   2.0750249  36.9300604  78.4938072   0.9483255  37.4734855
   9.4514595 100.2779102  23.4928322   8.5941159 100.1453686  23.8973403
   9.9157368 100.8549976  24.0991759   5.0346505  68.8197041  30.8871651
   5.2745472  69.2694855  31.6973400   4.1724812  68.4450388  31.0674834
 106.9427586  83.0271912  23.6302686 107.5939655  83.5677528  23.1830978
 106.7270565  83.5186100  24.4228673  71.6688442  80.6808758  45.4481077
  71.2823009  79.9196386  45.8809233  72.2619820  80.3095341  44.7950172
  91.2442398  82.1148682  72.8480673  91.2827682  82.9426479  72.3689795
  90.3255081  82.0277596  73.1022120  87.8053379  99.0027618  38.3488679
  87.4746990  99.2994785  39.1967249  88.6664867  98.6330223  38.5436869
  95.4920387  75.0919247  44.8921871  94.8402882  75.7760477  44.7391081
  95.2418995  74.3853045  44.2969179  92.5242424  65.8892202  70.3948402
  93.2003784  65.2358961  70.2152729  91.7667198  65.3779459  70.6794214
  47.3310757  76.7276239  57.7890491  46.4893866  76.2742329  57.8362274
  47.9332876  76.1661148  58.2771873  91.5354061  67.6548100  52.6216078
  90.9996891  67.8979874  51.8665552  92.4334240  67.6616955  52.2903156
  29.4405034  93.3236798  84.3141349  28.7739804  92.7352341  84.6686928
  29.3863919  93.2033356  83.3660732  87.3442364  43.4207582  68.2895517
  86.6854858  43.3783722  68.9827204  86.8413925  43.3608675  67.4772739
  80.7249641  78.4208298  44.5853376  80.7006264  78.2011318  43.6540079
  81.4370155  79.0557814  44.6631098  75.8319927  47.1417257  88.7223668
  75.2826000  47.8943750  88.5034874  75.4190613  46.4047930  88.2722029
  90.8114147  49.5719194  35.3246117  90.4898834  50.4709816  35.2572346
  91.6121864  49.5640087  34.8002744  80.5659294  85.2784443  13.0068386
  80.4255199  86.0640907  12.4783838  81.0542583  84.6880054  12.4331188
  98.2132530  92.4428082  18.6585855  98.4160328  91.6637325  19.1764271
  98.6039925  93.1653786  19.1499400  55.4964638  79.3658257  50.6193447
  55.5173969  78.4886169  50.2368593  55.2389956  79.2238474  51.5302706
   7.6680790  57.4269104  48.0448294   8.1847702  57.9089499  48.6905050
   7.0771824  56.8847036  48.5674000  65.5562687  82.6599503   7.2117454
  65.8043718  83.5818386   7.1425253  65.3696299  82.3938847   6.3114053
  79.7249079  86.0785389  22.8721356  80.0604820  85.6660461  23.6680484
  80.4521561  86.0289192  22.2517490   3.9808689  77.1082735  42.8413916
   4.7844921  76.6137600  42.6805639   4.2736374  77.9020643  43.2890701
  73.3426952  75.3023005  47.6951265  73.5464811  74.6791267  48.3925200
  74.0415144  75.9545231  47.7449894  35.8344889  87.5514030  47.3441696
  36.3951969  86.9175148  46.8969297  35.0364780  87.5796127  46.8163300
   2.3220406   7.4421133  52.7365685   2.7048597   6.7655481  52.1780539
   2.9082832   8.1925691  52.6397991   1.5798031  63.3471346  28.0276561
   0.9587418  63.6106920  28.7066650   2.3991429  63.7771988  28.2725024
 101.1846447  70.0556517  39.4189215 100.4051113  69.6715069  39.0176845
 101.2916756  70.8975840  38.9762878  94.9303055  76.1827087  57.4194098
  95.0818253  75.8537865  56.5333652  95.5678368  76.8888378  57.5250483
  97.7875423  86.4436245  46.7089605  97.7902985  86.2685490  47.6500082
  98.6097145  86.9070053  46.5491438  10.7181107  45.8220768  33.3197451
   9.8492562  45.6644726  33.6891723  11.1660897  46.3522005  33.9789271
  48.9781904  81.6199780  18.5361946  48.7047577  81.3373089  17.6635170
  49.7234964  82.1993256  18.3777273  77.8562260  57.0919228  42.2147608
  78.2229137  57.6063347  41.4956284  77.1105766  56.6345119  41.8261623
  82.9542446  54.2749739  64.0540123  82.3478508  54.9764824  64.2914963
  82.9649544  53.6987066  64.8182297  87.0822716  76.1929655  45.2704525
  86.3295174  76.6789675  44.9337006  87.1817780  75.4569626  44.6666050
  86.2756418   6.7880929  27.2929835  85.6569408   7.3760999  26.8597531
  85.7569574   6.3491739  27.9671788  16.1107216   7.1340860  48.3810663
  15.3117523   6.6105569  48.3194780  16.6361961   6.6916383  49.0476561
  58.0554533  71.7367411  53.4225416  58.6768293  71.9021797  54.1315937
  57.5209665  71.0078716  53.7376690   0.6176983  66.5142965  12.2380781
   0.9038674  67.0788670  11.5200233   1.3342129  66.5509224  12.8717089
   4.5402085  82.9737282  15.3701234   4.4281422  83.7040901  15.9786034
   4.0183007  82.2655106  15.7473004   8.3404480  67.2809982  64.5235395
   8.2096993  67.6116323  63.6348200   8.3563744  66.3290167  64.4249868
  83.4914589  59.9725580  30.3780270  82.6816177  60.0121403  30.8867764
  84.1710186  60.2625751  30.9865642 107.1968746  53.4148455  77.4287558
 107.0656109  54.1879797  77.9776287 107.9910564  53.6070681  76.9302130
  41.5849590  94.3160725  16.1562264  42.2930813  94.5232582  16.7660403
  40.9331322  93.8630199  16.6911066  71.6093016  65.1337957  45.3993320
  71.0415125  65.7618570  44.9528074  72.3242807  65.6646824  45.7503319
  79.2160082  75.4448080  56.6252470  79.8132229  74.8969412  56.1159277
  78.3423567  75.1525545  56.3653278  77.2984171  52.3222113  62.4884462
  76.8452597  51.8428612  61.7948294  77.0926619  53.2413960  62.3181629
  11.1203514  87.4799728  43.2217264  11.3947712  88.3960247  43.1795788
  10.6084668  87.4201584  44.0283442  73.4903145  73.2006788  53.3721828
  72.6352024  72.8140545  53.1836700  73.3007383  73.9181519  53.9767742
  66.8928051 102.1264172  20.0850368  66.5930748 102.4379253  19.2310119
  67.4794197 102.8147125  20.3986621   2.2388849  22.5812353  76.7579412
   2.6065455  22.3364843  75.9087324   1.7055807  21.8287004  77.0139027
  88.6515999  99.6155643  47.4688101  88.5103607  99.9915409  48.3376741
  88.5518646  98.6722374  47.5969267  61.4274359  67.6067686  60.8311033
  62.1154642  67.7803850  61.4735270  60.6135798  67.6560593  61.3325405
  80.1055431  73.8793182  60.9076262  79.9162197  74.6995974  60.4520655
  80.2184200  74.1344070  61.8232775  20.4102955   3.6832059  35.9369469
  19.6367512   3.1410707  36.0917306  21.0344181   3.0944169  35.5126524
  94.0013027  78.7916756  36.1249352  93.0470753  78.7983465  36.2000060
  94.1691399  78.4939766  35.2308226  56.7670679  79.7309923  67.1459246
  56.1315775  79.9796200  67.8171682  56.2331295  79.4410419  66.4062834
  86.1960624   3.6924947  33.8985085  86.8702625   3.1746877  34.3384552
  85.7138180   3.0574621  33.3689809  75.7032919  91.5515804  26.7553067
  75.4445648  91.8550682  25.8851433  75.9283161  92.3512840  27.2307825
  15.5063759  72.2989702  39.4380760  15.5181252  71.5193129  39.9932623
  15.8278118  71.9937420  38.5896993  41.7108345  83.4088421  46.9901896
  42.3845577  83.2477760  46.3295984  42.0376921  82.9725456  47.7769804
 108.0762577  62.0996094  18.5925996 108.6887264  62.8289938  18.4971762
 107.2380161  62.5155306  18.7940812  74.2472172  95.2768230  73.7770605
  74.2034531  94.9771404  72.8690386  74.8489904  96.0208702  73.7549734
  26.1005532  76.2006092  52.1702862  25.1569306  76.0585594  52.2452307
  26.2047898  76.6923618  51.3557005  92.4502754  81.7321777  26.3699865
  92.1970940  80.8366585  26.1460066  93.2557964  81.8840694  25.8757305
  92.9796886  48.9294529  33.6417007  93.6962795  48.8571787  34.2721820
  92.5705624  48.0641031  33.6438870   2.6687943  84.0014839  47.5783491
   2.8295456  84.3238068  48.4651947   3.4686219  83.5295773  47.3463678
  31.6813622   4.8338235  29.9313354  31.4936695   4.4543470  29.0728474
  31.4903507   5.7660688  29.8280740  64.1458178  60.1334763  18.3896208
  63.2415199  60.4328156  18.2954633  64.1175508  59.2070198  18.1506348
  66.6274691  76.0922146  33.6979604  65.9289885  75.7223558  33.1579900
  67.1815205  75.3435183  33.9186668  70.9708691  54.1826963  14.5292580
  71.2330627  54.3144655  15.4403698  70.1335669  54.6401453  14.4524252
 108.1898785  93.4694004  27.4843860 107.3167419  93.0899143  27.3851371
 108.0561256  94.4105721  27.3724318  78.2060575  85.0775242  68.6177301
  77.4498367  85.5349159  68.9853668  78.3452559  85.4911613  67.7658224
  73.3183575  79.8703766  33.3986759  73.1085539  79.0085125  33.7584114
  74.2496347  79.9879217  33.5861278  98.5620117  63.3466959  28.8564634
  98.9251041  63.5737133  29.7125387  99.3285561  63.2133865  28.2988977
   8.1940113  88.1612396  31.9371128   8.1830918  87.5450802  32.6695490
   8.3249222  87.6121044  31.1641002 103.4905910  92.9198456  86.7910576
 103.0508041  92.3400402  86.1692429 102.8833199  92.9854870  87.5280380
  53.6748266  69.0996122  19.3615460  54.0839529  68.4040546  18.8467216
  53.6824417  69.8620319  18.7828457 104.5931721  74.7491884  45.0410557
 103.8130188  74.6266651  44.5001507 104.2526340  75.0070286  45.8976650
  51.3265610  84.4595909  29.3146920  52.2192430  84.6537209  29.6004629
  50.8532953  85.2834129  29.4311643  78.6994600 101.0594940  81.6946697
  78.0792904 101.5764618  82.2088432  78.6139679 100.1706219  82.0393753
  94.7398090  57.0502567  51.0438919  95.0010204  57.0526934  50.1230240
  95.1651573  57.8230286  51.4155531   9.1328560  90.1568317  72.0998096
   9.8925434  90.6928539  71.8722486   9.3501412  89.7838783  72.9541683
 108.5967827  37.8921986  46.4872646 107.8810215  38.0037904  45.8615971
 108.6828327  38.7477374  46.9078398  95.9431076  61.9422007  31.1947775
  95.3942394  61.7432499  31.9533205  96.0146236  61.1106157  30.7261801
  71.7411423  75.1844645  54.2531157  71.7402315  75.8568716  54.9343634
  71.1251879  75.5084705  53.5959625  89.2301846  37.4908829  54.0478277
  89.6271229  37.3376560  53.1903934  89.8756123  38.0169249  54.5199919
  79.2727137  68.9185810  71.7941713  78.9004803  69.7991943  71.7473364
  80.1530457  69.0491009  72.1466064  65.9549141  56.1615515  52.8231478
  65.7316828  56.7074776  52.0692492  65.1190615  56.0081244  53.2636452
  72.5645733  63.1591702  39.5944953  72.4754477  64.1115713  39.5595098
  71.6757154  62.8410816  39.7525525  97.6058865  85.0541210  30.4475737
  97.5059795  84.7450352  29.5471764  97.0868874  84.4424152  30.9697700
  85.0802994  59.2295218  18.6901939  85.8286095  59.2631626  18.0942667
  85.1831245  58.4003353  19.1572142  96.1111330  33.6856187  22.4310923
  97.0264744  33.4446634  22.5736284  95.6153368  32.9115690  22.6980376
  78.0648565  80.0144291  47.4578857  77.6125431  79.4452810  48.0805540
  77.8466177  79.6515322  46.5994549  86.3647652  54.7421360  68.4438276
  85.6287766  54.2139435  68.7529707  86.1470032  54.9474669  67.5346231
  83.4714985  57.4557781  65.3872967  83.0180264  58.2982874  65.3595543
  82.7830315  56.8081236  65.2363491  81.9191933  77.0001745  56.6449499
  82.3613453  77.5992632  56.0434294  81.0226250  77.3313808  56.6969252
  73.4954834  65.1778364  15.8183682  74.2155743  64.6338654  15.4993176
  73.9258718  65.9139824  16.2532091   7.8137432  50.0414419  63.2789326
   8.3673035  49.2953205  63.0484819   8.2720410  50.8002615  62.9178476
  55.5092430  78.4170103  64.9889612  54.6209145  78.7466240  64.8531103
  56.0213995  78.8106203  64.2825556  67.1722889  92.5528622   9.9982983
  68.0196047  92.1651649  10.2173471  66.7081213  92.6019287  10.8339846
  94.3335629  68.9525032  54.7408104  93.5995674  68.4579372  55.1053476
  95.0920963  68.6647606  55.2488232  55.1595688  40.0440741  27.4108291
  54.3516111  39.7080278  27.0228744  54.9862146  40.9739733  27.5573421
  97.1139812  50.2594185  32.2564840  96.7552948  49.5125151  32.7357602
  98.0627155  50.1421547  32.3054194  91.5157986 100.0998020  47.9898310
  91.3678837  99.7434902  48.8658381  90.6606674 100.0483990  47.5628185
  31.2911758  22.1405042  52.2436762  31.0055981  21.2293447  52.1767950
  31.2747250  22.3283876  53.1821108  85.8819199  67.2229385  34.2122221
  85.5110645  66.4524794  33.7820053  86.5360641  67.5503588  33.5948658
 106.0625935  76.3628864  41.1991692 105.2352238  75.8893585  41.1127853
 106.5855885  76.0693359  40.4531527 102.5648308  66.6714525  59.5972633
 103.1480885  66.2108850  60.2005148 103.0928230  67.3945761  59.2588091
  63.5007334  88.3047676  10.9611356  64.0703678  88.9511776  10.5441296
  62.6936722  88.3296776  10.4470682  89.7634602  66.7141151  38.0259061
  89.3952179  67.1411085  37.2524047  90.4946327  67.2753572  38.2840252
 103.7866281   2.8073991  34.8566866 103.1948351   3.3018125  35.4237556
 104.6612142   3.1096853  35.1015568 102.0122528  47.8883314  69.6233559
 101.3181686  48.3242226  70.1177979 101.7031097  46.9884539  69.5190287
  74.9219704  64.8737335  35.9726143  75.0806332  64.1735792  35.3394961
  75.1122618  65.6791735  35.4916906  86.8973923  70.1782322  70.3032637
  87.4897385  70.1050520  69.5549345  86.5495014  71.0682154  70.2472210
  81.7226696  64.1236258  71.5050077  81.3409901  64.7579288  72.1118116
  81.5318298  63.2717609  71.8976164  74.7729683  82.5446320  27.0721531
  73.9981556  82.6807022  26.5268302  75.4576206  83.0627918  26.6490817
  79.5536327  65.7939959  59.4667387  79.9412251  65.2923727  58.7495375
  79.4762087  66.6837072  59.1222811  86.6189766  78.3285809  35.4195738
  86.4012432  79.0046167  34.7778583  87.4902534  78.0264807  35.1629591
  88.1928349  66.5351391  44.8068905  87.2504807  66.5868330  44.6471262
  88.2736301  65.9884310  45.5884361  81.0516548  71.1572123  54.4348431
  81.2655544  71.1887217  53.5023832  81.7776108  70.6752205  54.8309565
  96.6529179 101.9716454  63.9078712  96.4627361 101.0659790  63.6632729
  96.5660286 102.4635601  63.0913496 102.2425817   3.9766897  24.7710752
 103.1925558   3.8909543  24.8512864 101.9673513   3.1787694  24.3196416
  78.3657169  59.8753500  20.2945137  77.4695110  59.6054745  20.0939965
  78.2906771  60.8006096  20.5279541  90.7542801  57.4703169  69.3459988
  91.6389179  57.2992659  69.0228987  90.5174446  58.3138609  68.9605474
   1.4045464  26.3194990  55.3200388   0.6568753  26.5823460  55.8568239
   2.1630799  26.6991186  55.7635927  80.9105492  98.6544895  39.8820162
  80.8657360  98.6460686  40.8381319  80.8619499  99.5814037  39.6481228
  51.4091825  76.3922215  51.2164783  52.0941210  76.7520237  51.7800665
  50.5907011  76.6820335  51.6193819 103.6019611  66.8780184  36.4917612
 102.9086208  66.3218641  36.8470216 104.3670559  66.3049316  36.4424706
  28.0706726  75.7898951  14.5313776  28.3080803  76.6370153  14.1542053
  27.4820935  76.0062075  15.2545750 104.1746330  80.7289791  71.5373182
 103.4962368  81.1224461  70.9885120 103.8787270  79.8292637  71.6757965
  79.0602398  60.7354927  46.6163349  78.9032030  61.6691780  46.7570448
  78.7418747  60.5701447  45.7289028  60.1141119  98.8391209  16.4395368
  59.5782185  98.5779858  17.1884406  60.7960892  98.1694412  16.3878930
 104.6428680  72.7971220  53.3094645 105.1078224  73.2956362  53.9814234
 104.4186687  71.9704294  53.7367296  98.5347557  77.9310560  24.3759155
  98.3375072  76.9944382  24.3677282  98.2965660  78.2182884  25.2573895
  90.2492046  73.2742977   7.0271212  90.1620865  73.4876633   6.0980803
  90.3504562  74.1224146   7.4591815 108.8270569  81.0971737  43.9508009
 108.1539249  80.4508495  43.7377453 108.6197567  81.3735294  44.8434877
  88.5364819  53.7336588  35.9716892  89.2554951  54.2730379  36.3008332
  87.8078461  54.3451262  35.8648133 100.9620857 101.6254139  35.8346725
 100.2770233 101.4143372  36.4689994 101.7714500 101.3232517  36.2468052
  56.4508295  94.2286968  68.5624599  56.6110754  93.5982132  67.8602886
  56.2197876  93.6904526  69.3195248 106.6729927  64.7781134  34.2760420
 106.2079334  64.7296810  33.4408092 107.1786690  63.9663744  34.3160367
  26.6107966  16.3469431  75.9933548  25.9627033  17.0217630  76.1954062
  27.4545361  16.7883417  76.0908513  71.0392523  68.0045748  35.6691027
  70.7644463  67.7790403  34.7803688  71.6836166  68.7024403  35.5507231
  91.8489383   2.6415552  43.2610369  92.1511148   1.7344774  43.2147694
  91.2597345   2.7361883  42.5126266  83.4598923  56.4428759  18.9355898
  83.7127686  55.8716917  18.2103062  84.2528439  56.5219450  19.4658828
 108.5963631  84.1326714  48.7395620 108.2026196  84.2767334  49.6000528
 109.3066788  83.5119629  48.9020824 105.9248447  76.0251093  22.8686881
 106.6309452  76.6383553  22.6647544 106.1857986  75.2089310  22.4420857
   2.6312863  57.0339155  68.8870859   3.3971916  56.4890671  69.0680647
   2.0915066  56.5017605  68.3025455  64.8042536 101.1540222  66.5205431
  65.4220009 100.6984425  67.0924330  64.1811705 101.5647888  67.1199369
   5.7208859  85.3541946  44.6780252   5.2855049  84.8888302  43.9638090
   5.0045239  85.7075787  45.2054501  93.8108826  79.8204803  43.1939316
  92.9179382  80.1419640  43.3185434  93.9637566  79.8970318  42.2521257
  59.6839380  71.9485569  55.5128336  59.3415594  72.2114182  56.3671827
  60.4683542  72.4841118  55.3940678  19.4485413  99.3306446  33.2075572
  18.7028443  99.6833706  32.7220106  19.6952187  98.5404968  32.7268791
  64.8640347  69.7580338  58.4377670  64.0003395  69.4019222  58.6461973
  65.1710510  70.1387787  59.2605686   6.9420372  49.9849749  44.6407413
   6.1406075  49.9426985  45.1624298   7.6491104  49.9062490  45.2811193
  97.7608490  92.7966976  50.8145809  98.2376957  93.3893299  50.2335215
  98.2504654  92.8219414  51.6366959  96.3446140  55.8072090  43.1642056
  96.7775440  56.5323496  43.6147261  95.7576084  56.2306643  42.5378370
  82.6600742  62.9779148  75.6133842  83.0191994  63.7514973  75.1788330
  83.4175205  62.5601578  76.0232496  79.0643215  41.2907887  20.4638672
  79.5615196  41.9415903  20.9593272  79.0934038  41.6044331  19.5599782
  13.3832203  83.6930084  33.5178280  14.2889248  83.8771915  33.2688141
  13.1655632  84.3760777  34.1520810  85.8175253  14.1397298  55.4205179
  85.9540056  13.2706560  55.0432825  85.7681249  13.9862264  56.3640356
  19.8400173   4.2941965  44.9452877  20.3650723   4.1546453  45.7333708
  20.3390369   4.9318803  44.4348288  86.9997025  88.3417702   9.7489303
  86.3004684  88.0676079  10.3423512  86.5766335  88.4032440   8.8925010
  49.6121264  69.5141792  55.7493734  49.0940428  68.7720251  56.0608721
  49.4515753  69.5392370  54.8060656  59.4862556  86.6104412  43.9576960
  59.3735266  87.5164604  43.6701965  59.3103981  86.6339874  44.8983049
  71.2878323  70.5339432  54.1743898  70.8313751  71.2572050  54.6042347
  71.0195971  70.5926371  53.2574177  84.3791294 101.0724926  40.6424332
  85.1139927 100.7802105  41.1816740  83.6117744 100.9641361  41.2042761
   3.0922257  85.7726192  65.6852818   2.4151455  85.2947998  65.2062368
   2.7312123  86.6520596  65.7969379  74.4977665  66.0200548  66.2706327
  74.3687010  66.7654419  65.6841421  74.7132635  65.2915907  65.6882858
  83.2052898  70.3736305  57.2543526  83.2182693  69.9985123  56.3738155
  83.9929295  70.0273848  57.6738358   9.3553101 102.0874310  63.6131573
   8.5870873 102.1786308  63.0494642   9.0596424 102.3900509  64.4717789
  69.7666407  76.1934710  30.9542727  69.2537832  75.8033609  30.2464461
  70.0060558  75.4536390  31.5124488  47.2389278  12.7373804  19.5449305
  47.8492222  12.9820264  20.2405787  47.4362812  13.3420099  18.8295949
  75.8660841  96.2104988  60.2934980  75.0461054  96.6179180  60.5725527
  76.1743927  95.7384586  61.0670376   1.2842881  89.9016571  47.3248148
   1.2783562  89.0077782  46.9825029   1.9703995  90.3447437  46.8256521
   1.8635212 101.6952038  21.5674806   2.5297390 102.1743488  21.0747337
   1.0942303 102.2643852  21.5460825 100.2588558  65.3488731  70.3344059
  99.5410728  65.0436926  69.7795296 101.0340691  64.9072409  69.9876595
  18.5111961   2.0521749  18.2665956  17.9507885   1.2845243  18.1530666
  17.9328213   2.7971948  18.1033397  69.2423630  89.3038559  56.9362736
  69.8235989  88.8801670  57.5678444  69.6741962  89.1778946  56.0913563
  87.6306915  33.0487466  34.6662927  88.3609009  33.6515665  34.5261741
  86.9017220  33.4394574  34.1844487  28.5918652  87.7102947  51.2827063
  28.1007706  87.0584965  50.7824945  27.9335820  88.3503437  51.5533209
   4.3721638  10.3369249  47.8021336   3.4158382  10.3208364  47.8398180
   4.6175966   9.4426168  47.5650787 105.5202961  73.9231110  55.5688286
 106.2941933  73.4747505  55.9098291 105.0399780  74.1990805  56.3494444
  27.8321991   2.0785726  48.4601450  28.5906849   2.2841753  49.0066481
  27.2658215   1.5524591  49.0246391  41.5268002   1.8936361  37.8444052
  40.7052383   1.5317644  37.5122738  41.9113121   1.1830915  38.3577299
  87.7928543  75.7918072  50.8238888  88.3337498  75.6386185  51.5986156
  88.3449078  75.5233479  50.0894499  83.3642960  78.4722137  11.2479711
  83.1557560  79.3189049  11.6427612  82.7361870  78.3808231  10.5314791
   1.9643818  81.4024353  26.5977859   2.7197777  80.8236599  26.7008901
   1.8663346  81.5018940  25.6508279  90.9090519  98.9712143  50.4596329
  90.9267616  98.0163002  50.3959322  91.6936970  99.1923904  50.9612703
 100.3993702  83.5742474  58.4161901 100.8431530  84.2265511  58.9582157
 101.0431576  82.8740978  58.3087206  35.9072170   7.0260061  22.9064512
  35.5861435   6.1556066  23.1421328  36.8581352   6.9263471  22.8610945
  98.4329891  79.1893387  40.1554441  97.7049255  79.3136406  40.7642937
  98.0610847  78.6745596  39.4392610  98.5866070  70.1788616  65.8668804
  99.1691303  69.5754623  66.3281870  98.4548950  69.7756386  65.0088024
  12.5723397 102.9735661  33.4475732  12.6983582 102.4829674  34.2597699
  13.3870159 103.4632683  33.3347034  35.8933197  94.8920441   1.2663743
  36.7918431  94.6553040   1.0364868  35.3837334  94.1022682   1.0852268
   3.3383570   1.6010297   3.1599668   3.5059509   0.8913625   2.5398788
   4.1079722   2.1659959   3.0911067   8.8933789 102.1743584  14.1079783
   8.8859879 101.2192154  14.0457761   8.5983597 102.4726963  13.2476377
  79.8574543  72.1442413  42.2480917  80.1629353  71.2405062  42.1694660
  80.1039791  72.5534153  41.4186144  94.4589138  74.4934559  30.6639838
  94.8597813  74.3752003  31.5251184  94.6028042  75.4169989  30.4575920
  71.0997391  82.2208214  55.3164721  70.3798103  81.7450428  55.7306910
  70.6753445  82.7735806  54.6602917   4.4355999  81.2761307  43.5176182
   5.3699051  81.0743904  43.5687208   4.4033085  82.2039413  43.2844591
  79.4843578  88.9492893  60.0397205  80.1759052  88.8658619  59.3831921
  78.9326429  89.6619225  59.7172165  19.0659676  12.3642934  38.7120652
  19.6873722  12.5881399  39.4048738  19.0229950  13.1493104  38.1660509
  90.2236938  92.0524120  52.3889208  89.6950817  92.0820045  51.5914726
  89.7986794  91.3898659  52.9335594   7.2501907   7.9489435  42.1450138
   7.7676926   7.4855722  41.4864397   7.7950916   8.6945833  42.3966742
  62.5827312  73.4866762  34.2049503  61.8281746  73.9964056  34.4999957
  63.1304359  74.1178513  33.7381864  19.1346203  98.8740635  40.1576233
  18.5228287  98.3036804  39.6921992  19.5379483  99.4042587  39.4702768
   2.1206127  85.6459045  85.8236599   2.0355831  86.3025284  85.1323986
   1.8123375  84.8337173  85.4217434  68.3860970  87.5943279  44.2358351
  69.0684509  88.1001663  43.7945271  67.5930119  88.1200600  44.1316748
  78.8052082  71.2373257  38.2680702  79.4969988  70.9851742  38.8796830
  78.5635138  72.1249437  38.5325408  28.0563603  11.2297357   7.7682155
  28.2446346  11.1111463   6.8372369  27.8361759  10.3525365   8.0816889
 101.7279053  72.8667545  49.0062094 102.2982216  73.0758429  48.2664394
 101.6307831  71.9150972  48.9722633  87.8488541  90.1460648  52.9033470
  87.0630646  90.5399799  52.5243950  87.8092098  90.3776550  53.8312626
  99.3483448  79.8432255  31.2630749  99.8519516  80.3235626  31.9202518
  99.3352413  78.9413309  31.5834594  89.8808193  76.2077045  77.1180439
  90.0707626  76.7333746  76.3409805  90.0565147  75.3067827  76.8465662
 105.9259415  66.8850946  27.5476408 105.8118629  67.8048801  27.7868247
 105.1371098  66.4528704  27.8749990  96.9785690  95.4390430  24.3100047
  97.5076485  95.1465511  25.0521302  97.4661922  96.1771107  23.9443398
  24.7255360  77.5301743  18.0326533  24.3727337  78.1861496  18.6338651
  24.8566090  76.7531395  18.5760438  94.3074608  89.6579647  41.0412598
  94.5698357  88.7526608  41.2080240  93.4040165  89.7069263  41.3536978
  48.1709061  32.3398889  48.1898689  47.8665600  32.7132047  47.3626757
  47.6886997  32.8216756  48.8618708  93.8728428  79.3280697  81.7872334
  94.5941067  79.8386002  81.4193153  93.0968952  79.6393538  81.3211536
  79.0264082  80.6725311  23.6138368  79.0021276  79.7407818  23.8317633
  78.1924915  80.8373928  23.1738043  45.6112347   7.2126401  36.1682868
  44.7179756   7.4590982  35.9283400  46.1492405   7.9488195  35.8770657
  97.2805595  98.8519669  67.5946188  96.7783356  98.2688999  68.1638575
  96.7918301  99.6749496  67.6036406   7.5463425  82.9404545  39.3898869
   7.2138249  82.0796013  39.1357017   8.0194985  83.2518482  38.6182761
  66.3173056  80.5312538  20.0910783  66.6015959  79.8573971  19.4735622
  65.6444645  81.0209942  19.6181488  91.2010574  76.9112253  25.7541108
  91.5251350  76.1983824  25.2035999  91.4264679  77.7071857  25.2725863
 103.7114334  80.5537510  35.6628919 103.9123058  79.9636078  36.3892579
 102.9642391  81.0667610  35.9706950  91.1526966  80.9031582  43.1886673
  90.9217167  81.1183071  42.2850132  90.3112030  80.7863235  43.6296463
  99.4255066  88.1044579  33.6372447 100.3284550  88.1534481  33.3233547
  99.1905117  87.1809006  33.5474944  35.5862366  77.3394299  61.0478163
  35.5598103  76.3842440  61.1040068  35.9570442  77.5183535  60.1836872
 102.7137661  90.7046795  48.3778763 103.3377075  91.2799072  47.9350948
 103.2603836  90.0737000  48.8461876  57.9177246  28.6958040  41.9509983
  57.6814709  29.6024145  41.7548704  57.0803890  28.2575620  42.1027851
  67.7955437  82.7880478  43.0302000  68.4442997  83.4911442  42.9984522
  68.3054781  81.9862461  42.9148579   0.9305130  99.9384975  31.7601156
   1.4929043  99.2088890  31.5000868   1.5212475 100.5526829  32.1960640
  22.0613133  74.5787954  44.5307398  22.0910488  75.1700306  45.2829313
  21.4436756  74.9907684  43.9265537  99.3670750  49.1305876  71.0047626
 100.0212574  49.8118067  71.1603737  98.6096478  49.4031000  71.5227032
   3.0230770  12.4051965  60.2496719   3.1596909  11.4876855  60.4857588
   3.0091295  12.8684915  61.0871649  17.7189766  67.5757074  23.6132097
  17.9983937  68.0000544  24.4244385  16.7629753  67.6163626  23.6386108
  93.5736752  74.1171598  27.1616483  92.9696083  73.3966923  27.3412800
  93.0153942  74.8937130  27.1226215  19.8479306  83.7714672  40.1390171
  19.6606385  82.8485394  39.9676228  20.6231057  83.9607430  39.6103334
  99.1770840  98.7150288  34.9962664  98.7979794  98.1064415  34.3621325
 100.1220798  98.5837364  34.9188590  19.6486149  15.0233854  33.9113450
  20.1309834  14.6147264  33.1926298  19.3062649  15.8358491  33.5386086
 106.4567280  81.1431313  35.4465199 106.5747261  81.5829849  36.2884426
 105.5087280  81.0437775  35.3589892  82.2611618  82.0858383  52.1664476
  81.9987202  81.6336346  51.3646603  83.1050014  81.6965008  52.3957539
 104.7205734  65.9519482  54.5521641 103.8603401  65.9724808  54.9714518
 104.5732880  65.4920006  53.7257338  77.3632526  95.4346275  45.2119207
  77.5556564  94.8184204  44.5051670  76.7901325  96.0879040  44.8106909
   2.6707563  26.7171873  22.9372740   2.7736864  27.6357950  23.1858945
   3.5614119  26.4167608  22.7564406  87.4945641  86.3882160  43.8659191
  88.1270027  86.9222832  43.3852673  88.0316734  85.7817936  44.3758154
  83.1732655  97.3966789  44.2372704  83.7377453  98.1614590  44.3499804
  82.9121685  97.1585274  45.1268435  17.9931889  15.7413209  59.5855570
  18.0041180  15.6235136  60.5354118  18.5758457  15.0586618  59.2528152
  14.4097077  89.1242695  66.1601257  13.4983765  89.1610718  65.8696985
  14.6976696  88.2398987  65.9338617  99.4926071  43.7399483  43.4537220
  99.1851997  43.7070942  44.3596220  99.2907524  44.6297789  43.1644249
  72.9378271 100.2061272  56.9456148  72.7664042  99.4495678  56.3848448
  72.3105001 100.8675957  56.6538000  11.7706738   0.2644838  25.4631281
  11.9477234  -0.2057730  26.2778330  12.3426304   1.0311330  25.4999471
  46.2921867  10.4688562  39.7561765  46.3568840  10.9864820  38.9536119
  46.5759811   9.5916379  39.4989443  96.8726254  71.9596577  50.2208042
  97.0282555  72.8868484  50.0410032  97.7226734  71.6251564  50.5067301
  62.0003487  61.7811224  88.5476551  62.8824593  61.5282080  88.8199367
  61.4929940  61.7918036  89.3592652 101.8913269  65.5593014  37.8904009
 101.3973141  66.1852646  38.4198833 101.2615871  65.2446842  37.2417998
  46.1995945  36.2914194  55.3114367  46.3297806  36.8883813  54.5746040
  46.9727478  36.4176763  55.8614635  45.6886326  84.3538666  66.9286156
  45.9950959  84.1489601  66.0452604  45.2736126  85.2123547  66.8450260
  89.7949314  84.7449493  49.1168118  90.2799416  84.3331623  48.4016705
  88.8846684  84.4895172  48.9671326  21.9012318  14.0211595  32.2811961
  22.2401295  14.9143423  32.2210932  22.0337067  13.6553682  31.4066219
  18.2615528  22.8923715  47.3165131  17.9237614  23.7285627  47.6373243
  18.2777367  22.9899991  46.3644457  89.8842621  92.9448318  41.3271475
  90.7144165  92.9456997  40.8506203  89.3479729  92.2950554  40.8728027
  58.8181925  96.0189915  43.2121611  59.1005135  96.1602020  42.3085117
  59.1065168  96.8035793  43.6785555   6.3138615  99.2457867  62.3999786
   5.9104954  98.3815384  62.4812555   5.6120907  99.8591137  62.6181173
  13.2388626  89.1448402  20.8900595  13.4845196  89.4964504  20.0343418
  13.7845932  88.3654022  20.9943771  47.0441017  11.9864953  37.6268387
  47.8964672  12.4217237  37.6096344  46.5196762  12.4613107  36.9820499
  60.4395151  71.6376543  38.2952976  59.8723555  71.8144894  37.5447702
  60.8641005  72.4759722  38.4774399  70.1242304  92.3189449  15.6666124
  70.5650425  92.0477295  16.4718175  70.7233381  92.0596600  14.9665642
 108.5515690  91.2539768  48.8101959 109.4197464  91.0415268  48.4676218
 108.1943417  91.8834114  48.1837559  27.1288811  97.2966385  11.8171191
  26.5699612  97.2043610  11.0455489  27.4566780  96.4126492  11.9825184
  14.6323929   2.2209180  12.4709237  14.0405903   2.8798879  12.8339052
  14.0603981   1.6273035  11.9844222  25.3400765  19.4353498  50.3223228
  25.1345501  18.6208547  50.7812357  24.9006233  19.3509496  49.4761610
  81.5823650  80.5652905  80.2521896  82.1039009  81.2079525  80.7330322
  80.8377647  81.0642052  79.9161911  75.0796652  82.1364021  29.8898888
  74.7316980  82.1429920  28.9981985  74.3221712  81.9400597  30.4411435
  97.0992851  64.1593647  41.8263054  97.3003483  64.7381783  42.5616789
  97.6320171  64.4944859  41.1051083 103.1270313  88.4125996  30.4151154
 102.8734875  87.6433277  29.9050450 102.6401615  88.3275604  31.2348437
   5.3183994  14.4878019  84.0495014   5.8601389  14.1370786  83.3425808
   4.9635515  15.3039182  83.6969757  62.6789474  95.5479240  61.6948938
  63.5121250  95.1754093  61.4062977  62.2793245  95.8893108  60.8949041
  86.0863018  86.6691685   4.0935162  86.8120480  87.2562408   4.3053496
  86.4505291  86.0601997   3.4510803  33.7518727  86.3529587  40.8438683
  32.9403149  86.7250252  40.4986525  33.9429890  85.6157017  40.2640820
   8.6003933   4.0268243  49.4430971   8.2813702   4.7628797  48.9209223
   7.9322872   3.3497728  49.3359661 103.2117748  84.3374729  11.8414176
 103.0801487  84.5083332  12.7740026 102.4737358  84.7701931  11.4121354
  61.7123842  95.9549141  59.3071270  62.0822334  96.6202068  58.7267590
  60.7877207  96.1904621  59.3829203  93.8379097  95.4635143  37.6546907
  94.7507095  95.2963638  37.8893852  93.8837719  95.8713436  36.7899370
  66.8371677  67.5118589  85.7214737  66.9550562  67.1920395  86.6159344
  66.1749315  66.9321442  85.3451633  66.8151760  76.7490387  62.2343254
  67.4698305  77.3570395  62.5778389  66.2938023  76.5018415  62.9980659
  57.3629141  97.8036594  58.5183716  56.9548368  98.6020374  58.8534784
  56.8714190  97.5992012  57.7228451 108.0717182  93.7295723  19.0719724
 107.7464104  94.5484066  18.6979377 109.0080643  93.7308025  18.8732207
  55.2738358  49.6182558  87.8460644  55.7719780  50.3748247  87.5367463
  54.4171978  49.9751589  88.0806260  17.1965084  11.0677350  35.6524992
  17.5574741  11.8930353  35.9762645  17.3208962  11.1075414  34.7042489
  56.7245340  92.2985935  35.2816415  55.9220505  92.2179794  35.7971549
  57.2037697  91.4886093  35.4562688  62.1847105  81.1910343  63.5606050
  62.2563553  80.9642601  64.4877911  63.0615950  81.0387135  63.2083225
  21.9449171  88.7221424  15.7635076  21.2360033  88.2254306  16.1721094
  22.5116381  88.9745132  16.4924581 104.4429779  74.5240450  51.0991240
 105.2429390  75.0387859  51.2055826 104.5295620  73.8128233  51.7338657
  87.3680687  75.6354237  22.2973657  87.2943306  74.7255278  22.0094824
  87.9684639  75.6030893  23.0421543 104.6474193  17.2158636  46.0349751
 105.2193807  17.5350202  46.7329979 104.0367054  17.9359544  45.8777142
  15.5241047  69.5458174  35.1813912  14.9644028  69.7475624  34.4315457
  16.4015709  69.4591761  34.8088670  84.5269108  54.9468803  87.2647190
  84.7081852  55.6682205  86.6621876  85.2666950  54.9505186  87.8721333
  33.9633976  94.8051929  52.4194145  33.7023674  95.6742191  52.7241755
  33.2170330  94.2437077  52.6289749  55.1941071  17.8552640  28.7037826
  55.4782639  16.9470705  28.6004972  55.7838879  18.2170118  29.3652391
  14.5697365   4.2292703  16.1800194  13.8686714   4.3323244  15.5365002
  15.3574333   4.0864290  15.6552684  88.3881378  92.4411964   3.8431963
  89.2646408  92.4644375   4.2271581  87.8180695  92.1726513   4.5637086
  16.4221439  19.4923318  45.8957481  15.5380497  19.5228685  45.5301189
  16.9535408  19.9970163  45.2799988  79.3888283  98.9830971  55.4623222
  80.0817776  99.6008682  55.2290440  78.7634945  99.0406227  54.7399092
  28.4166393   6.7264760  30.0353241  27.9331932   5.9006990  30.0106716
  27.8572044   7.3456205  29.5663595  25.1018391   2.2709096   4.2691675
  25.8068333   2.1460641   3.6338514  24.2989121   2.2007574   3.7528217
   9.9717079 102.5306702  50.6400108  10.7359825 102.5424194  50.0638342
   9.6651017 103.4373856  50.6496954  23.0847321  17.8171743  41.8541431
  23.6963425  18.4760869  42.1827650  22.2888241  18.3089269  41.6518068
   9.7834145  71.7075014  12.6165712   8.8639771  71.5449286  12.4057686
   9.8116719  72.6303339  12.8691876  96.1123753  73.6496735  63.2700062
  96.9888306  73.2719898  63.3436203  95.7003689  73.1616259  62.5570631
  18.6839256   5.4406465  34.2465901  18.3362446   5.7716096  35.0747275
  19.1061840   4.6132863  34.4776797  18.3083592  19.6002115  15.3362167
  18.3773193  20.5351556  15.5294871  17.5890503  19.5379652  14.7077727
  99.7267936  16.4482034  67.1801376  99.4085954  17.1502794  67.7476454
 100.6210588  16.7069353  66.9574833   7.0473038  86.9580173  24.2784381
   7.3522412  86.1957932  23.7862372   6.9780289  87.6534462  23.6243677
   3.5861692   6.7889036  55.3023815   3.2941351   5.8794797  55.2400112
   3.0694780   7.2521413  54.6430779  25.8239422   8.7356199  25.1685858
  26.5252171   9.3682111  25.0128174  26.2042103   8.1012643  25.7762194
  28.3929405  12.5331796  28.9115262  28.3323059  13.1250108  29.6613860
  29.3234692  12.3169054  28.8517261  99.2170143  76.9502258  47.1920156
  99.3445206  76.0722494  47.5513697  98.8142967  76.8026209  46.3362932
   4.2108284  95.5884361  55.9169197   3.6583840  95.3110218  56.6477251
   3.7591778  96.3486195  55.5503559  75.9437466  96.7806149  24.7575355
  76.4940357  96.0281372  24.5402908  76.3112354  97.1182156  25.5743647
  75.2018738  83.0005550  76.0092592  74.6539593  83.4697628  75.3800821
  74.7980261  83.1791592  76.8585205  22.4376999  83.1784725  30.2331996
  22.5934540  83.7325478  30.9980297  22.1574723  83.7870789  29.5496058
  22.2143303  75.4296589  65.3037167  22.9992615  75.9220552  65.5438519
  21.6328369  75.5230379  66.0582829  82.2168255  94.2098904  45.7160807
  81.9118309  94.8225594  46.3852930  81.8337631  93.3696747  45.9681368
 107.6576805  65.8611012  42.9216242 107.6512146  65.0973892  43.4986258
 107.3532486  66.5811634  43.4739494  23.8031613  68.3083391  31.4085984
  23.6881386  68.6537266  30.5233240  24.7416245  68.3910513  31.5779114
  33.7639866   5.5807413  64.2691946  33.2343063   5.7945455  65.0372791
  33.1373367   5.2304853  63.6360598  68.6334372  85.5994225  56.3096094
  68.2493973  84.8101521  55.9277725  68.2117462  86.3208961  55.8428335
  50.7911549   5.0415910  46.5605450  50.1188240   5.6758989  46.8092537
  50.3176460   4.3716253  46.0674238  98.0656910  85.3127861  76.7505503
  98.2655907  85.9669304  77.4201488  98.6232758  84.5665550  76.9707108
  88.9169884  73.7760830  68.8158512  88.7020206  73.5535526  67.9100323
  89.8637867  73.6486483  68.8755608  87.8436852  82.6184464  80.9902668
  87.7596569  81.9229412  81.6425228  88.7497807  82.9158592  81.0726357
  15.6126366   0.5600561  26.2144709  16.3643990   1.0479654  25.8782721
  15.8638344   0.3171934  27.1056223  62.9613733  78.3378983  45.8487892
  63.6311722  78.5833263  45.2105331  63.3134317  78.6297750  46.6896772
  50.6983757  98.5360241  36.8756413  51.0366583  98.5436153  37.7710414
  50.6154299  97.6074028  36.6588068  84.8205471  75.6029558  69.0108633
  84.4608116  76.0495710  68.2444715  84.9959183  74.7118855  68.7084103
 107.5288200  59.0751791  23.2907152 107.2607422  59.1934776  22.3794675
 106.7625904  58.6924076  23.7180352  85.8457279  98.8054276  33.9472342
  85.5804157  99.1542053  34.7982311  85.4165173  97.9515076  33.8939953
  11.1294495  98.3783245  22.0433140  10.2657734  97.9657936  22.0324850
  10.9991871  99.1940975  22.5268292  27.1880779  16.0356725  27.1246576
  27.6459560  15.8021654  27.9321575  27.3795662  16.9653333  27.0009923
  21.9411430   7.7946771  19.3109536  21.5020714   8.0574430  20.1198983
  22.8682098   7.9680932  19.4744027  10.6724488  90.5352306  47.2718000
  11.1799084  90.4237556  48.0757189   9.7713410  90.3390598  47.5282288
  94.6526432  82.2309780  50.5855465  94.7824383  82.8572273  49.8733711
  95.2128983  81.4891911  50.3572798  63.4311199  75.9687853  63.0691195
  62.8851271  76.7519617  63.0001402  64.1613054  76.2343454  63.6281776
  81.3472652  74.8181725  47.9951906  81.7348862  75.0808859  48.8300323
  81.5800190  75.5229330  47.3907280  92.3960972  66.1194229  49.3133020
  92.5347519  66.6874123  50.0711870  91.9178867  66.6653204  48.6891699
   1.5968548  45.0063896  19.4396818   2.2140251  45.0682783  20.1687217
   1.5884339  45.8840847  19.0578365  21.6964279  92.6977539  48.2394457
  22.0904766  92.8463268  49.0990305  21.4912354  91.7628765  48.2283783
  98.2721615  61.8125296  43.0295038  97.7725887  62.5763273  42.7409267
  99.1269875  62.1649981  43.2770252  49.3175278   1.6388143  27.7563906
  48.8515816   0.8359922  27.9900694  49.2189560   1.7051424  26.8065929
  32.1158085   2.6087297  41.4557076  32.7698193   2.9379762  42.0722198
  31.8717632   3.3734716  40.9343243  96.3202572  90.2687836  60.9942532
  97.0536995  90.6830978  61.4488316  95.8471107  89.7992802  61.6812325
   2.9046379  81.1684418  16.4839673   3.2338368  80.2768230  16.5974867
   2.3398815  81.1188602  15.7127213  98.0051517  83.4553432  60.0802660
  97.4757576  83.9880753  59.4868231  98.8519382  83.3770370  59.6409035
  25.3825150  27.9023279  61.2294483  24.6382103  28.3843816  61.5898132
  25.4118595  28.1607069  60.3082466  16.2442074   5.2895750  32.5995684
  16.4079723   5.1492513  31.6669774  17.1012554   5.1821149  33.0120635
  23.5875568  28.6364282  17.5952470  24.4393501  28.6384977  18.0319178
  23.2533226  29.5249380  17.7179933  84.8731254  32.7941526  28.2596326
  85.7572149  33.1280912  28.4116268  84.4905018  32.7225698  29.1341090
  16.0230480  84.1090107  65.1820850  16.3552510  84.0996933  64.2844248
  16.6666733  83.6058521  65.6808901  29.6940552  91.4982891  17.7752018
  29.3774067  92.4003029  17.8235388  30.6407677  91.5825367  17.6617801
  62.5141716  48.9112902  24.5692682  62.8658915  48.0538750  24.3297648
  62.4356127  49.3787432  23.7376761  62.1061277  97.0498276  14.0156889
  62.3265553  97.9654408  13.8445342  62.4842548  96.8692780  14.8763025
  71.6646290  59.5853186  55.6862545  71.3382816  58.6918545  55.7932758
  71.5890360  59.9739170  56.5577507  17.7629910   3.3154691  28.1890512
  17.2313652   3.4543718  27.4052691  18.2922039   2.5441659  27.9859161
  41.9703007  13.5087740  32.2913194  41.0338926  13.5213721  32.4893451
  42.1940088  12.5789738  32.2505951   6.4395833  55.9262896  49.9658251
   6.1428362  56.3884211  50.7497931   6.7865920  55.0966740  50.2937746
  36.1208702  82.0610224  40.3954649  36.9756438  81.8825065  40.7875443
  35.7273413  81.1967908  40.2751780  47.5791649  49.4160549  87.0562430
  48.1336454  48.8066190  86.5690367  47.6686946  50.2468934  86.5894203
 103.4582081  75.1040470  41.7683125 103.1714454  74.2580735  41.4243221
 102.8315916  75.3047763  42.4635029  30.9390808 101.2402289  21.8332434
  30.0819565 101.6349724  21.9936872  31.1774517 101.5343553  20.9540963
 105.4294219 102.6497945  45.1291990 104.8025527 101.9794037  45.4009390
 104.9069061 103.4477516  45.0487328   8.7952734  92.3829853   1.3826539
   8.3881451  93.2481526   1.4269342   9.5284296  92.4939846   0.7773516
  41.2629461  39.5609283  43.6262226  40.8634233  38.8101888  43.1869030
  42.0333052  39.1997218  44.0647602  39.6565890   2.0327280  15.9435248
  38.7245250   2.0739079  16.1575222  40.0993824   2.2970785  16.7499256
  55.1335859  24.2631435  10.4502797  55.8159733  23.6580372  10.1597142
  55.2125835  25.0137806   9.8616064  45.5521774  57.8560400  21.8406177
  45.0453758  58.6331606  22.0761275  46.2274885  57.7966404  22.5163841
  44.9475431   8.9562303  33.8796997  45.5277681   8.2262141  33.6637235
  44.2589188   8.9193487  33.2158709  24.0986420  61.4246546  25.4285216
  23.4660794  62.1154677  25.6256914  24.2406059  61.4922654  24.4843268
   5.6506675  38.1226039  48.5642004   5.1560456  37.3317504  48.3494186
   5.6669027  38.1424689  49.5210600  26.0812593  27.7118659  49.8800325
  25.2531099  28.0381393  50.2320957  25.9602928  27.7266121  48.9306211
  35.2091455  22.1514988  19.9825203  34.5443916  21.7273855  20.5251622
  35.1012206  23.0861998  20.1583529   0.8390434  20.8415484  59.0626860
   1.3029274  20.1415610  58.6032724   0.0353217  20.4289055  59.3788958
  37.7892613  33.8276243  21.4634109  37.3316193  32.9876709  21.4991426
  38.6896396  33.6001372  21.2314630  69.2689371  11.5144885  69.9600506
  69.0018559  12.1124339  69.2619371  69.7917509  10.8466125  69.5163870
  80.0692463   8.2553428  43.3353519  80.9710407   8.0770832  43.6022329
  80.0308514   9.2071885  43.2418203 102.4512281 100.7893377  33.3255386
 102.4512138 100.5480749  34.2518353 101.5259614 100.7990589  33.0805516
  37.3167920  19.1940558  38.2301974  37.9607606  19.3043411  37.5306463
  37.4072504  18.2792437  38.4969735  23.6826086  34.3267846  35.9557104
  23.1196547  33.8585210  35.3392315  23.7593150  35.2074575  35.5886126
  92.3383141  26.0397768  32.0023799  91.6340542  26.6802573  32.1025872
  93.0135632  26.3282394  32.6164341  53.1627035  13.3044362  57.1383238
  52.7721691  14.0723228  57.5555325  53.7922144  12.9769862  57.7807570
  70.8613177  94.8056530  41.6338301  70.2628266  95.5142366  41.3972950
  71.2055793  95.0587981  42.4903536   6.7683388 100.3258198  27.7086878
   7.7084042 100.4781120  27.8052306   6.7043329  99.6307527  27.0536923
  54.8375988  45.6140137  39.2838454  53.9070749  45.7037878  39.4895124
  55.2868652  46.0250092  40.0224066  90.2062798  27.8409958  32.3724484
  89.8009968  28.1716371  33.1741071  90.0680828  28.5366750  31.7296696
  54.2688608   9.0104795  36.9655943  53.6338997   9.0527290  36.2505627
  54.9999523   8.5071552  36.6072607   8.3798624  81.4318239  27.8438401
   8.6539580  81.2240373  28.7371087   7.4234558  81.4384209  27.8821898
 103.3029976  90.4545688  27.0427012 103.5919919  89.5440780  26.9817066
 102.7015819  90.4655968  27.7872872  29.2255354  27.9150915  37.3466492
  28.3993387  28.0777121  36.8914747  29.8981118  28.2255125  36.7404222
  30.2490449  10.8097291  30.4036427  29.8978400  11.0162878  31.2697935
  31.1966372  10.7694364  30.5327892  18.7267137  26.0997581  24.0247583
  18.1564116  25.8273506  23.3058834  19.5440340  25.6244612  23.8753796
  17.4532783  20.0991106  55.1392174  17.8475893  19.3399811  54.7097158
  16.6948938  20.3143620  54.5963049  84.4299164  85.1287364  52.8155565
  84.1383591  86.0030030  53.0741739  84.4645121  84.6355807  53.6352110
  52.1276045  36.3049006  26.7325234  52.9948902  35.9027576  26.6842175
  51.6678715  35.8026910  27.4053240  24.7744347  87.9633318   6.2243342
  24.9617029  87.8967773   7.1606737  23.8852526  87.6209222   6.1329865
  69.2382956  10.5699623  18.6381054  69.2256165  11.3270128  19.2237210
  69.4957304  10.9284699  17.7887332  57.0611143   4.7669914  61.5803957
  56.7401457   3.8759491  61.4416313  57.8991652   4.6526197  62.0285320
  81.4273945  55.8944079  87.1659503  82.3347632  55.6328481  87.0094085
  81.0195795  55.1219311  87.5573540  52.5162792  15.5088508  16.5326834
  53.0739069  15.8269489  15.8226871  51.6368389  15.8045530  16.2973607
  32.8747272   6.1863059  22.6225257  32.1204686   6.2184203  23.2109928
  33.3697820   6.9803512  22.8241324  80.0710026  47.4772676  68.9041560
  80.3632322  46.5708854  68.8077013  79.2305437  47.4109935  69.3574481
  94.0377607  87.3731433   2.0933814  93.7167468  88.2029568   2.4463584
  94.1159143  87.5275504   1.1519558  13.2407213  92.5756930   5.6119651
  12.7707554  91.8422007   5.2152860  13.4191824  92.2894537   6.5077615
  50.6104231  24.9972177  17.9424417  51.2140036  25.3166032  17.2716832
  50.9530687  24.1363311  18.1826460  99.6708981  52.6417971  87.0999204
  99.5370690  51.7580084  87.4423208 100.1293007  53.1037336  87.8018560
  38.8923693  17.3043072  58.6743975  38.7809014  17.1111536  57.7435350
  39.8377514  17.4034166  58.7869120  56.2190104   9.3225735  19.4841373
  56.5842772  10.1315975  19.8423171  55.3634882   9.5781684  19.1391921
  52.5623790  69.7590049  63.7854569  51.6723541  69.5387980  64.0604036
  52.6804677  69.2908629  62.9589407  84.8041322  95.5511724  63.2460690
  84.9413135  95.8888667  64.1311550  85.4085185  96.0551100  62.7010965
  25.6030346  97.8908001  37.3530364  26.2832571  97.4176716  37.8322840
  24.8083140  97.3764860  37.4949050  38.3071065   9.0043932  44.4652033
  39.0160179   9.0718025  45.1048374  37.5731444   8.6384761  44.9587965
  52.0699978   4.9018118   5.7784224  52.5163031   4.1213745   5.4498529
  51.4549112   4.5687282   6.4318407  10.4731369   1.3241446  30.2584505
  10.6125200   1.0991564  31.1783338   9.5234358   1.4085943  30.1737809
  27.7758242  99.1045271  58.7272739  27.4333979  99.3644281  57.8720379
  28.6883713  98.8698720  58.5586596  68.5019541  18.7620211  37.7157211
  69.4440413  18.5947645  37.7426958  68.3552742  19.4166589  38.3984876
  63.6330605  11.1695993  39.3822479  64.1443491  10.9829712  38.5948563
  63.9209938  10.5126536  40.0160885  12.0393527  53.4206438  15.5634677
  11.1247253  53.1431389  15.6152308  12.2753191  53.6373281  16.4654660
  17.5576627   0.7252242  21.5092373  17.7360630  -0.2116136  21.4271402
  18.3693576   1.0939789  21.8576646  50.7437229  36.0314846  29.2127705
  50.4007387  36.6865206  29.8206544  50.6714439  35.2033114  29.6872568
  31.0255051   7.7448481  30.1848102  31.1306739   8.6265278  30.5423164
  30.0849724   7.5752723  30.2384210   8.6719538  97.2869020  21.3017797
   8.0965544  97.9899933  21.0004306   8.0759455  96.6144543  21.6316628
  45.4522943  37.0862079  13.5156131  45.3521681  36.1411762  13.6301756
  45.7489967  37.4008870  14.3695319  42.2490835  33.1749463  63.8820696
  41.4021683  33.6022806  63.7541962  42.0397091  32.3601532  64.3386984
  46.6358042  12.8552365  34.7415924  46.8492079  12.3502302  33.9569545
  47.1925831  13.6318123  34.6853948  30.7428074  25.3202868  31.3273573
  29.9852729  24.7519708  31.1881042  30.9948635  25.1646829  32.2375703
  67.9417459  62.8399595  85.0286289  68.2216016  61.9858476  84.6993791
  67.5659457  63.2793220  84.2657615  96.6709534  32.0633157  74.9304442
  97.0707670  32.1335705  75.7973020  97.3676935  31.7174061  74.3726520
  98.2469573  88.1290733   2.7534273  98.9691391  87.9073094   2.1656273
  97.6730909  87.3634194   2.7272630  19.6492231   4.6873093  62.3829889
  20.0738764   4.0737480  62.9825258  19.1533566   4.1308838  61.7823744
  15.3668225  10.9622145  37.7225065  16.1191654  11.0364962  37.1353984
  14.6167505  10.8528447  37.1379876  41.7122173  11.6478002  18.0405128
  42.5673819  11.5309787  17.6266587  41.8960714  11.6289663  18.9797008
  47.4142742  28.3069444  72.4002409  46.8844604  29.0738630  72.6178646
  47.9299831  28.1403852  73.1892490  74.5715896  63.5207840  84.9689986
  74.9180571  63.8401707  85.8021759  73.7880388  63.0262467  85.2092390
  95.0662770  79.5166408  18.8532317  95.2034249  79.4798910  17.9066217
  95.9470143  79.4678508  19.2249215  37.5536537   0.6060306  40.0342131
  38.3249688   0.2512231  39.5921493  37.9076743   1.1024127  40.7721186
  28.5635328  26.9700313  48.0754137  27.7636266  26.6940379  48.5228539
  28.2816172  27.6773000  47.4953032  55.9303427  25.1257801  47.4293947
  55.0645733  24.9542356  47.0589304  55.7639647  25.3022337  48.3553600
  63.6136436  12.0926237  22.1621370  64.4861841  12.4755633  22.2530007
  63.6567497  11.2772071  22.6616073  31.1434174   1.8723495  55.7534075
  32.0904303   2.0045079  55.7094717  31.0387707   0.9292047  55.8789444
  37.4861789   6.0432649  28.5664916  36.8670797   5.6424183  29.1766310
  38.3181334   5.6058931  28.7475705  34.8842382  23.0933189  43.6994743
  35.1430559  23.9795065  43.9522886  33.9472818  23.1607103  43.5156202
  27.2630310  31.7653203  27.7658105  27.1367574  32.4158621  28.4565210
  28.1432319  31.9383526  27.4318361  78.0585241  30.5526853  34.2090583
  77.2659492  30.8030391  33.7343168  77.8118706  29.7601700  34.6858358
  80.1000181  99.2536219  83.5420369  79.8473517  98.6178216  82.8726010
  81.0570685  99.2515763  83.5252266  49.1299868  28.1370997  39.6185422
  48.4523678  28.1217837  40.2944326  49.6452093  28.9198661  39.8136210
  87.0401875  47.6279344  75.1985769  87.1564404  48.4180977  75.7261734
  87.4013249  47.8565329  74.3420999   1.2980868  92.2686504   4.3625519
   0.9617735  91.4018225   4.1351017   1.9130493  92.4789320   3.6598176
  37.8027630  33.9573002  17.2547281  37.0684719  34.4576836  17.6106298
  37.3933148  33.2899070  16.7041194  43.8562584  20.8911180  10.7162702
  43.6100101  20.3491020  11.4658105  43.8129091  21.7889142  11.0453856
  46.7380619  31.7809415  24.3727565  46.9286156  31.6628957  25.3033400
  47.5336313  31.4906001  23.9266586 101.1431566  34.5598944  77.5564592
 100.2203003  34.6386679  77.3148661 101.3688723  33.6534282  77.3476415
  69.0154409  25.5371785  18.1239116  69.5372963  24.7986770  17.8100371
  68.1943798  25.1425338  18.4177601   2.2918440  87.5072395  50.5367851
   2.0978285  86.5870332  50.3584290   2.7735163  87.8044437  49.7648478
  80.3322283  51.5054909  87.2662115  80.9240071  51.9057417  86.6291626
  79.9367586  52.2469386  87.7245666  77.3039103  11.9429123  69.9130106
  77.4412298  12.7828097  70.3511286  77.6667500  11.2953663  70.5173779
  51.5332413   9.2873067  26.5622783  51.6295481   8.7307197  25.7895136
  50.5984735   9.2549711  26.7657447  57.4524212   5.0002092  41.1156321
  58.0626106   5.6202382  40.7163000  58.0137730   4.3481070  41.5350103
  22.3130441  30.7663560  15.1164699  23.0403256  30.1957393  14.8680902
  22.6375175  31.6521978  14.9544954  33.5994650  66.2485754  43.1244183
  34.1341282  67.0340430  43.2402277  34.2272354  65.5262887  43.1453896
  58.1214857  42.1840429  32.5857496  58.7844086  42.5821066  33.1499410
  58.3261061  41.2490559  32.5986528  26.0317373  30.5017972  37.9937077
  26.7977238  30.2281809  37.4890971  25.8779860  31.4071727  37.7237248
  36.1295010  96.1191266  18.8848674  35.2149273  95.9875213  19.1347992
  36.3854672  95.2951758  18.4703565  70.7351255  37.9686356   1.1136611
  69.8231697  37.6944661   1.2106089  71.2014961  37.4977922   1.8043411
  87.6068034  89.1537582  65.0211143  87.6765516  88.2552539  65.3436899
  88.1681385  89.1742324  64.2460537  49.5380068  17.5034058  53.9815092
  49.1502476  18.3122396  54.3156672  50.3052187  17.3589492  54.5353556
  68.5234404  30.7064414  30.1510406  69.4289398  30.7170200  30.4611945
  68.2891512  29.7786570  30.1275158  69.9163961  28.3672976  45.0125837
  69.8088694  29.3060517  45.1655912  70.4821920  28.3134198  44.2423868
  62.0545101  51.8574762  32.7155399  62.1796942  50.9904861  32.3296809
  61.8126440  51.6822481  33.6249518  38.8730122 101.7319720  14.4225025
  39.7390724 102.0694139  14.1938019  38.8907362 100.8169653  14.1420019
  58.1467438   6.4625478  81.8514442  58.8463354   5.8284128  82.0085144
  57.8314734   6.2581974  80.9710598  31.6004038  27.4669361  23.7177730
  30.9446025  26.9047189  24.1301680  31.5338683  28.2976794  24.1885948
  58.5082865   5.5896533  26.0756636  58.4293747   6.3040864  25.4435325
  59.0844870   4.9552196  25.6493783  49.7779512  38.0214167  26.1535597
  50.6328869  37.6302361  26.3332605  49.1553211  37.4575067  26.6124368
  62.7297783  20.7407355  45.5785561  62.7853632  21.6325116  45.2352190
  63.5896492  20.3607154  45.3984547  62.5106907  29.3020010  50.1661921
  62.5404358  29.3969655  49.2141771  61.8287611  29.9123931  50.4465866
  65.1535264  71.5942629  88.0733785  66.1093131  71.5560945  88.1087301
  64.9222485  72.3319872  88.6377426  75.1593828  23.4451342  35.9819055
  75.6010866  23.9250326  36.6824961  75.4105330  23.9053679  35.1810694
  43.9985085  37.5789738  34.1149831  43.3728027  38.2978368  34.2042017
  43.4630537  36.8244410  33.8696241  73.7066174  21.7916393  71.4782000
  73.6020803  22.1029520  72.3773050  72.9727030  22.1812201  71.0029888
  29.3244839  52.3954916   9.6467531  29.2424583  53.1192684   9.0257424
  28.4409213  52.2779703   9.9956626  93.1036282  19.7302890  69.1376781
  92.3781204  20.0106382  68.5797501  92.6948071  19.1738582  69.8006105
  84.3590832  15.8326280  10.9843588  84.3381023  14.9654102  11.3889861
  85.2393150  15.9033716  10.6150162 106.9197407  88.0555903  24.8315263
 106.8702259  87.1117209  24.9828243 107.3005643  88.1383645  23.9572549
  86.2432148 102.6087441  33.5326695  87.1366122 102.9128735  33.6926031
  85.8037343 102.7014078  34.3779516  11.8100655   8.7676638  18.4621394
  12.0847464   9.4587803  19.0647507  12.6152599   8.5045671  18.0164111
  55.3780842   3.1379318  30.8105159  54.5748091   3.6572236  30.7741952
  55.2911949   2.5117725  30.0917625  18.5621954  91.8714177   2.7600154
  19.3799139  92.3125981   2.5299412  18.4924103  91.9759642   3.7089264
  46.1370754  33.2502460  37.0412755  46.0033226  34.1739082  37.2538495
  46.4913368  32.8685021  37.8443980  72.7980804  56.3177729  14.1287327
  72.6168823  56.5902758  13.2292104  72.3710537  55.4650927  14.2113113
  53.0966520   1.0916958  47.8553486  52.8043556   1.4773163  48.6812353
  53.3963299   1.8375254  47.3355770  41.5255976  11.9213009  22.9865670
  42.0442438  11.9735646  22.1837568  40.6314182  12.1179509  22.7072668
  20.0900984  30.6874108  41.1611748  20.1676631  30.6079721  40.2104378
  19.1954136  30.4062653  41.3528156  45.4959011  36.8462539  43.4237003
  45.5859518  36.8800998  42.4713469  45.1226091  35.9823370  43.5984325
  49.7819233  19.6263671   2.0604226  49.2436361  20.1588917   1.4748481
  50.2170658  18.9998567   1.4821795  58.8796997  28.5063457  58.8696241
  59.1498470  29.2746806  58.3667183  58.2406759  28.8435745  59.4974422
  86.2144566  20.1981401  10.1157820  85.4317951  19.8688734  10.5576694
  86.8776226  19.5254064  10.2702701  27.3067833  72.6664197  72.8749323
  26.4429928  72.5933682  72.4690294  27.4655415  71.8033563  73.2572317
  88.2653904  20.0708818  26.1820126  88.9955616  19.4854546  25.9811091
  88.6819363  20.8847427  26.4654827  33.5894871   5.6213731   1.0005895
  34.1784668   5.1697826   0.3961071  33.5768104   5.0675845   1.7812237
  60.8494377  18.4084356  52.8165817  60.9025049  18.6071408  51.8817377
  60.4291964  19.1775322  53.2014418  99.7654238  83.9523672  35.0729179
 100.6862035  84.1460763  35.2486205  99.3335476  84.0522062  35.9212971
  15.0721109   2.7729264  33.0086088  15.4852915   3.6225355  32.8547311
  14.1902161   2.8667414  32.6484823  54.9073410   1.9857660  26.2018776
  54.0797520   2.3058502  26.5608764  55.5284977   2.6962942  26.3616920
  19.3941284  68.6599075  21.5990400  18.6521317  68.5428297  22.1923089
  19.0489651  68.4317481  20.7358861  72.6595592  25.6818271  58.9492655
  72.2127008  25.8670449  59.7752428  72.2834587  24.8525476  58.6541843
  36.6419005   7.0299661  34.6908402  37.1620774   6.7382616  35.4395413
  36.0648251   7.7047402  35.0484657  66.5296221  81.6269970   4.6755323
  67.0223999  81.3075829   5.4314268  67.1291304  81.5214920   3.9368245
  79.1838264  26.5144777  41.9950342  79.1586065  26.3101673  41.0602331
  78.3068466  26.8436360  42.1920013  52.4921846  50.4338121  34.4743848
  52.1530437  50.8753490  35.2530098  53.0756807  49.7571754  34.8177934
  38.7529993   1.1099185   4.1717339  38.7611890   0.3478312   3.5926074
  39.2495275   1.7766637   3.6972418  38.4508419   2.6096600  61.3494015
  38.6406755   2.4563350  62.2749710  38.8580465   3.4545487  61.1581469
  61.2889576  21.0683632  42.8063011  61.5298986  20.8428454  41.9077921
  61.6610098  20.3646207  43.3378601  13.8093877   1.6991426  47.3259354
  13.6420763   2.0700148  48.1923628  13.8349843   2.4570495  46.7418528
  99.3654933  79.3795454  16.0042083  99.6666636  80.2853142  16.0756969
  99.5594230  79.1333353  15.0997722  46.0032272   8.0969131  62.4958420
  45.9195662   7.1728045  62.7309084  45.1052666   8.3842194  62.3304319
  44.8851061  11.6541612  16.6858387  44.3360758  11.1073959  16.1238384
  44.7246742  12.5473928  16.3814855  39.8582721  34.4748545  63.7032700
  39.6153522  34.7000599  62.8052187  40.2271795  35.2823114  64.0612555
  30.8627057   0.9734355  47.2240019  30.5169177   1.1425038  46.3475990
  31.8129182   0.9642622  47.1089125  85.4502360  98.4779557  69.6266549
  86.0003248  97.9121836  70.1684444  84.6067682  98.0269917  69.5889656
  64.1012573  19.6028495  25.7397866  64.6384144  18.8318217  25.9220266
  63.4709358  19.3059349  25.0834584  45.2716160   5.0687701  60.3235006
  45.3178215   4.3036771  59.7501516  44.3348122   5.2413303  60.4175997
  70.1501989  26.0975742  11.1846423  70.2010727  25.6129503  12.0085251
  70.8095312  26.7861319  11.2706816  73.7403170  91.0591801  77.1460740
  73.1804291  90.7237633  76.4458935  74.1930381  91.8057879  76.7538373
  44.3126297   6.1010253  65.2445650  45.0097799   6.3588321  65.8476782
  44.7693205   5.8671683  64.4364977  11.7167641  93.8926201  15.2193558
  10.9073998  94.0618222  15.7015657  11.4913393  93.1869780  14.6131516
  89.7702470  95.8958738  40.1893425  89.1724696  95.4484045  39.5904541
  90.4023817  95.2235459  40.4435301  60.2750444  20.2462125  29.2090344
  60.3335667  19.4299912  28.7124562  60.5623102  20.9215522  28.5945225
  46.7551470   9.2230505  44.5846653  46.3261890   9.3784249  45.4261446
  47.1232796   8.3428967  44.6623945   8.5670782  96.1010878  63.9918089
   7.8366543  96.0953086  63.3731985   8.1513954  96.1473011  64.8528004
  44.3612839  92.8192436  33.3316398  45.0475384  92.2886466  32.9269743
  44.6887947  93.7169789  33.2764745  86.7255306  16.2937689  17.4708521
  87.0218277  16.7582345  16.6880929  86.6912651  16.9671118  18.1503129
  22.3177172  97.2102701  19.9525011  22.7870919  97.6755892  20.6448865
  21.4099814  97.5006359  20.0416040  95.2153602  97.5529133  33.0971360
  94.4093623  97.1208428  32.8144455  95.8850636  97.2279566  32.4953628
  26.8013978  33.1676841   1.5613876  27.0375991  32.7751470   0.7209385
  26.8873000  34.1101933   1.4181069  25.3595091  71.4011132  46.5890312
  24.5884491  71.5996825  47.1203184  25.3977705  70.4448592  46.5704489
  49.7124386  15.5664563   3.2178578  49.6440363  14.6278334   3.0431026
  50.1108885  15.6199384   4.0865383  59.2024851  18.1606448  37.2573566
  59.0982246  17.6709640  38.0731845  59.3545008  19.0632153  37.5375128
  74.4671202   9.9946511  41.9955254  74.5302439   9.1092288  41.6373682
  73.5728312  10.0538671  42.3316336  66.3407459  83.1197654  52.3292971
  65.5104145  83.0993997  51.8535185  66.8230119  83.8483202  51.9383240
  46.0784006  36.8658495  31.0589242  46.3200426  37.4430561  31.7832661
  45.1545858  37.0577073  30.8977175  49.7639084   7.5266069  59.2421484
  48.9738464   7.3163140  59.7399569  49.5693970   8.3674097  58.8280869
   6.4718605  99.5604538  66.4261103   6.6757752  99.8345922  67.3202562
   6.8680359  98.6928379  66.3453627  10.4244066 100.7256987  36.0872483
  10.9742428  99.9638139  35.9043789  10.9390570 101.4718558  35.7796550
  60.4296398  20.5371881  13.2152987  59.4744396  20.4772496  13.2304966
  60.7141066  20.0198269  13.9687228  83.9538399  83.2979139  77.6000171
  83.7532345  82.3651990  77.6776998  84.8985258  83.3525523  77.7442841
  43.1469584  12.1168625   3.3092266  43.4067106  12.1816206   4.2282301
  42.4025726  11.5151060   3.3125591  64.1821051   2.2039375  57.7405787
  64.9381065   2.1777286  57.1540594  63.6068106   2.8677353  57.3602676
  38.2511616   6.3524026  40.5509281  39.0680122   6.7985779  40.7743454
  38.4653759   5.4208726  40.6018829  99.3193737  86.9943865  81.7817132
  99.7928301  87.8251179  81.8259268  98.6576859  87.1316036  81.1037956
  60.4260445  39.8808980  27.0744967  59.6981001  40.4674816  26.8689561
  60.2649069  39.6064138  27.9772305  67.0048809  11.4897740  41.9214630
  67.7193928  11.9341433  41.4651299  66.6217995  12.1649301  42.4815035
  32.5713921  47.7148104  38.2386732  32.2612715  48.1942606  37.4704385
  32.5944018  46.8002653  37.9570484  20.2553725  12.1934736  21.8123364
  20.1608229  11.3789189  22.3060894  19.3781817  12.3709440  21.4728165
  72.9640770  31.6109824  51.2300110  72.4865341  30.8146620  50.9975052
  72.6077461  32.2824240  50.6482697  98.0628433 100.9088272   7.8187710
  98.1526842 100.9651958   6.8674654  98.2298508 101.7990737   8.1282896
  88.3384386  98.6171349  88.2203192  87.9155985  99.3829974  88.6087652
  88.9038626  98.2780083  88.9142367  46.4280844   6.8390167  32.2111487
  46.9383621   6.0398281  32.3420906  45.6157494   6.5402418  31.8023944
   3.9542032  89.5216619  48.7983418   3.6617447  89.9965941  49.5762491
   3.6245848  90.0392484  48.0637074  35.4426146  14.0963352  41.0490942
  35.8219767  13.4227991  41.6135979  36.0951900  14.7965455  41.0398722
  54.3826437   6.2621832   5.5720520  54.5901632   6.4514166   6.4871252
  53.4636259   5.9948617   5.5852062  12.7258337  20.8499098  15.6452584
  13.3718455  20.2472758  15.2768397  12.6172507  21.5240407  14.9744463
   3.3342716  21.4232635  31.5524983   2.4193969  21.3971901  31.2722182
   3.4893510  20.5637670  31.9442225  12.3083365  21.6961098  46.8324375
  11.3604259  21.7981005  46.7470121  12.5420821  22.2466493  47.5797653
  38.7571907   5.3915209  44.8514366  39.3859768   5.6534642  44.1789436
  38.9709854   4.4769409  45.0360107  53.1321669  38.2977295  39.7075796
  52.9182529  39.0451264  40.2660322  52.5718164  38.4049034  38.9389753
  32.4189138  10.5924451   9.5606971  32.7757311   9.7885382   9.9383807
  32.1642733  11.1201954  10.3175783  34.4496965  18.6056638  46.9734526
  33.9300275  19.3337345  47.3141718  35.3077674  18.9886189  46.7909956
  18.3577896  81.4782011  34.7641826  17.8991343  80.8995663  35.3733182
  19.0872074  80.9517800  34.4369721  37.5463380  37.0228883  81.6238664
  37.2414068  36.1164566  81.6642307  38.4984828  36.9524559  81.5553729
  40.2774191  46.2024975  25.7613206  40.1187849  45.7797289  24.9173212
  39.6424842  46.9180584  25.7938671  35.5248809   4.2486593  23.2873130
  34.9342012   3.5377046  23.5360551  36.0178590   4.4406465  24.0850258
  63.7660313  42.8188229  15.6338048  62.9863596  42.6421547  15.1073694
  63.4238911  43.1366396  16.4693666   7.9064966  97.7787798   6.8010682
   8.7223984  97.3335641   7.0297927   8.0492808  98.6888974   7.0609319
  37.8265667  22.3058009  45.4853916  37.0461726  22.5604320  45.9777164
  38.4673119  22.9892135  45.6819201  27.6331592   5.3161085  56.1523294
  27.9736590   4.6385026  55.5682564  27.1177411   5.8867776  55.5823183
  83.7924742  74.7119525   9.6175344  83.8158058  75.4151967   8.9685877
  84.7121595  74.5478752   9.8260744  48.9113951   7.5773919  32.5455046
  49.4261026   6.7712384  32.5077438  48.0497932   7.3272997  32.2118521
  43.0386114  43.9335966  24.0081573  43.5618496  43.2159472  23.6511731
  42.2032404  43.8745832  23.5445809  39.9756074  67.4269247  18.4130478
  40.0304461  68.2626295  18.8765359  39.0624928  67.1574736  18.5122848
  31.2071921  93.0398523  53.2447720  31.1392523  93.0336433  54.1995382
  30.3024031  92.9720127  52.9398298  44.8815489  13.4888506  63.1099510
  44.3465853  13.9142704  63.7800741  45.2426291  14.2119002  62.5970650
  61.4361906  15.7131231  47.5408936  61.4857340  15.3302884  48.4168005
  60.5692482  15.4650724  47.2197723  62.5067711  37.7742910  39.3772721
  61.8487167  38.2177186  38.8419509  62.8523827  37.0851898  38.8098860
  64.0366793  36.6972709  41.3541460  63.3515549  36.4960694  41.9916058
  63.5781908  37.1447563  40.6429672  31.4339948  15.6968403  33.4434295
  31.4928055  16.3737261  34.1176677  30.5154443  15.7059944  33.1743288
  64.2319918  31.1197710  30.1933360  63.4449100  31.6344619  30.0149417
  64.9424458  31.7612410  30.1946306  15.6019903  69.8750578  31.5587521
  14.7592570  70.3289067  31.5513444  15.3745342  68.9467155  31.5070057
  26.6377783  10.8304071  30.4370451  26.1928606  11.3740242  31.0872483
  27.0763898  11.4565742  29.8610544 106.6707792  97.9109400  42.9459858
 107.3477020  97.6841866  43.5836267 105.8882871  98.0702277  43.4737778
  21.8279624  21.9309711  62.2197104  21.1522937  21.6739202  61.5923119
  22.6358294  21.5564394  61.8685579   2.7255465  89.5919382  20.4024959
   1.9070960  89.7176038  20.8826804   2.4683334  89.1208731  19.6099234
  71.0603523  35.0981998  33.4215736  70.5866909  35.8275056  33.0215859
  71.8972015  35.0728846  32.9575968   3.0807625  28.3730555  46.0016394
   3.8008438  27.8810978  45.6070614   2.6184212  28.7590480  45.2576780
  77.8930473  15.4005265  44.7515726  77.1820450  14.8992097  44.3523312
  77.4505854  16.0533643  45.2940321  50.9379578  37.0973969  34.1253328
  51.3009071  36.7564154  34.9427843  51.1955690  38.0192232  34.1150141
  61.2633562  15.7101607  52.2869301  61.1535692  16.6251290  52.5457954
  60.7814074  15.2144694  52.9489374  80.9712601   7.8260505  37.2159052
  81.8852425   7.5832629  37.3639655  80.5633354   7.0287144  36.8781376
  80.9133434  27.9899955  48.8643646  81.7201233  27.5511909  48.5945702
  80.2194405  27.5225759  48.3993387  75.4474545  28.0068088  44.4317150
  75.1173878  28.8599014  44.7137070  75.9658909  28.1970882  43.6498880
  23.8177562   8.6043984  53.1137562  23.1883717   8.6554605  53.8331270
  23.3728600   8.0869198  52.4425507  88.5626793  31.1910033  23.8907743
  88.3708191  30.4642653  24.4834590  89.4842148  31.0746288  23.6595631
  17.8026129  90.6296050  27.1424294  17.4572207  90.5011415  26.2590075
  17.1672608  90.1974165  27.7131939  29.1594601   5.0488991  53.5034752
  29.9233270   5.3807878  53.9752674  28.8900709   5.7759881  52.9422235
   8.9182645  27.4469209  43.8311338   9.7504210  27.6465440  43.4022999
   8.4856069  28.2959723  43.9214039  25.1664616 100.6126030  58.1445026
  25.7551075 100.7910181  58.8779116  24.3518187 101.0579636  58.3774090
  28.4646870 103.2612639   4.8812687  28.7420012 102.5300886   5.4332751
  27.5438477 103.0820132   4.6911219 103.1323233  95.2493112  46.1489487
 103.6736574  95.1715844  46.9345379 102.5131121  94.5220893  46.2118483
  94.3560410  35.4239583  11.2493670  95.1235294  35.9706879  11.4175177
  94.4614315  35.1355004  10.3427708  57.3794651  30.2293992  37.5583744
  56.8051195  29.4696808  37.6542187  57.3272371  30.4534340  36.6292286
  36.0980153  13.7581158  72.1850920  36.5681005  13.4333026  71.4171410
  36.6732693  13.5535264  72.9222870  67.2196579  78.2792044  17.9118109
  66.8336678  78.6977625  17.1423614  66.7047834  77.4816084  18.0341828
  42.1838188   0.9675170  21.9895577  42.3150110   0.9985799  22.9372168
  42.5800848   0.1389614  21.7199326  81.9197369  24.5045090  44.3621635
  81.8356037  24.4677496  43.4093761  81.6167259  23.6476803  44.6625996
  67.9001474  20.5218649   6.5852112  67.0415068  20.6955981   6.9709361
  67.7056170  20.1103997   5.7431388  85.8717728  23.0788875  89.1997814
  85.4026031  22.6177669  88.5044575  85.5881310  23.9893508  89.1170883
  64.3939686  35.9960794  28.2429790  64.7630787  35.1312876  28.0637455
  64.7254610  36.5492725  27.5356460  96.5872002  25.6925035  20.3330660
  96.7363262  26.2909126  21.0651183  97.4571228  25.5480170  19.9607909
  73.7332249  23.2532525  29.5867181  73.2071114  22.5011301  29.8582959
  73.4064674  23.4714770  28.7138867  46.6694117  15.6441641  36.9456673
  45.8461857  15.7538915  37.4215817  46.4426565  15.8168483  36.0318875
  58.4434286  68.6940642  87.0623739  59.1452018  68.5368320  86.4306905
  58.6126009  69.5760020  87.3937315  41.7032385   4.7530189  37.0813847
  41.6013193   3.8687956  37.4335098  41.2925243   4.7156459  36.2175846
 105.3835773  25.2248430  62.0676613 106.0856342  25.5669761  62.6211023
 104.7379780  24.8808789  62.6850176  70.7248926  42.4163532  17.0457888
  71.2026739  43.2361507  17.1718383  71.3447285  41.7352962  17.3069453
  53.9270020  20.5771661  16.6215360  53.9284992  19.6291327  16.7536819
  53.0346775  20.7782722  16.3394928  22.5305773  81.4478241  33.8390446
  21.8167950  81.0642563  33.3295131  22.7791811  80.7610475  34.4577265
  50.1495171  36.7605734   6.9556236  50.5524874  36.7318869   7.8233939
  49.2288589  36.9599271   7.1255469  48.0245113   3.3941349  10.7662499
  47.8430939   4.3324506  10.7125485  48.8039494   3.3320993  11.3183928
  32.4186350  98.1637456  47.1488953  32.0419050  97.6362281  46.4445972
  33.1040598  98.6781441  46.7224932  26.2337589  20.4497623  59.4258499
  26.0752439  20.1810265  58.5209274  26.1040473  19.6520901  59.9388027
  28.7433004  43.1234503  35.4526639  28.8172770  42.2120380  35.1696658
  27.9806781  43.4593344  34.9816871  21.8628049  16.4956546   4.0119076
  21.0899782  16.7106485   4.5341611  21.9884276  15.5561948   4.1455647
  84.8926523  82.5630676   0.1888511  85.5042186  82.3412119   0.8909910
  84.9278750  83.5180091   0.1333862  85.1506249  62.0519622  85.6112065
  84.6783940  61.5304466  84.9621691  86.0149065  62.1908804  85.2239724
  77.9383707   0.2384955   3.5647577  77.7039957   0.8926920   2.9064816
  77.9704428  -0.5869862   3.0812466  90.5247084  61.4071377  84.2062472
  90.6560436  61.3961979  83.2581632  90.0943009  60.5739560  84.3980523
  17.2389532  94.6663355  42.2358418  17.9033400  94.1422611  42.6832438
  17.5825716  95.5594253  42.2592878  15.1215413  74.1582092  82.1141373
  14.8889210  75.0857385  82.0716290  14.5793202  73.8074287  82.8206621
  14.1112114 100.2325433  27.9718590  14.0619923 100.1245730  27.0220423
  14.4221617  99.3862542  28.2933211  67.6451731   9.1457444  34.2406249
  67.5555038   8.4736937  34.9163008  67.4944353   9.9707919  34.7019339
  58.6319208  29.7259402  45.9348631  58.2154608  29.1611338  46.5858507
  59.0324974  29.1190505  45.3124046   0.6358911  90.3283512  53.2214737
   1.4298869  89.8017692  53.1291962   0.1755143  90.2152823  52.3899078
  45.8416748  45.0656080  35.0462031  45.7668018  45.9914064  34.8148656
  46.5374088  45.0383711  35.7030463  25.8043314  79.3331896  11.2136567
  25.1303889  80.0114452  11.2584293  26.6238762  79.7984373  11.3813639
  60.7790852   3.4393844  12.6356125  59.9882793   3.9308441  12.8577042
  61.4361668   4.1116738  12.4553180  59.5852423  16.5794075  43.4094381
  60.2223921  16.8896103  44.0529013  60.0443316  15.8886969  42.9315376
  29.1726614  86.2288677  22.0109272  28.8829972  86.2719952  21.0996294
  28.4255482  85.8605920  22.4825525  31.8528318  54.5805311  36.1184025
  31.1996102  55.1727486  36.4909768  32.6584101  55.0969696  36.0945535
  12.4964237   6.3995212  25.3023911  12.4090409   5.5660951  24.8397923
  12.5192297   6.1582273  26.2283969  73.0003022  86.4158641  22.3807955
  73.4964211  87.1747052  22.6878119  72.3566288  86.7803561  21.7732906
  57.3854399  10.9170473  57.0699215  57.8922749  10.4800820  56.3855124
  57.5665665  10.4111123  57.8620386  58.9886045  14.6592927  46.7581272
  58.7000084  14.0646911  46.0657406  58.1862974  14.8875475  47.2276354
  30.7208490  63.1266785  12.9652011  31.1712217  63.8117170  12.4711215
  31.4228272  62.6500177  13.4082079  79.7410933  98.8095244  79.8398720
  79.0608946  98.3166798  79.3808870  79.2961374  99.5969447  80.1532684
  51.4382458  22.1938062  33.7028289  50.5501270  21.8393326  33.6601090
  51.9934845  21.4303613  33.8612342  68.0800343  36.2344813  22.3807907
  68.8400602  35.7291245  22.6692486  67.3942375  35.5802870  22.2468352
  62.2281456  42.0635128  29.6469688  61.5972710  42.3575449  28.9898753
  62.5980568  41.2600231  29.2811799 108.4817425  73.9931902  88.6629711
 107.7297321  74.1142186  88.0832604 108.7635962  73.0922207  88.5047205
  75.8827496  20.6974721  18.2261324  75.5250502  20.9785056  19.0683341
  75.5078936  21.3077307  17.5910723 105.9684626  83.9254864  88.6684224
 106.2552277  83.2170185  88.0921676 105.5551068  83.4801706  89.4080602
 104.7537422  20.7204676  23.1401610 104.2234516  21.4481926  22.8154421
 104.8761559  20.1545262  22.3779559  68.2814360  43.7247944  16.4547241
  68.8584805  42.9900455  16.6630602  68.2331896  44.2291927  17.2668087
  66.4604187  17.9919958  26.0093379  66.4425659  17.0443320  26.1429334
  67.1277428  18.1264806  25.3364134  61.0188293  42.7183437  25.3784490
  60.7406044  43.5831118  25.6801105  61.2623739  42.2525358  26.1784124
  86.8157291  65.1607084   4.4070470  87.1642971  65.8608389   4.9589080
  87.5843048  64.7972775   3.9672390  91.5877533  27.0030546  45.6988573
  92.2367477  27.6980543  45.8084393  91.1608028  27.2032118  44.8658562
  48.3338642   2.5324854  14.5107639  49.1666412   2.5765121  14.0408993
  48.5595179   2.7383274  15.4179251  46.8421793  41.5914488  19.4679487
  47.6805639  42.0453167  19.5536506  47.0119429  40.7099819  19.8002648
  11.7820860 100.8854589  65.8662367  11.1408974 101.4022528  65.3783512
  11.3439680 100.0496568  66.0266018   9.8782208  88.0456503  70.3862553
   9.5729306  88.8526686  70.8006840   9.8002961  87.3807534  71.0704129
  51.9344139  47.8609610  15.2772820  52.4000978  48.6965990  15.3101921
  52.5998020  47.2073317  15.4923701  43.9354849  32.3262286  29.0610576
  44.8241854  32.1064019  29.3405557  44.0070534  33.2146239  28.7119699
  51.8824816  48.2109690  23.8125682  51.2164021  47.5406265  23.6602211
  51.4618206  49.0302515  23.5516882  94.2213249  37.8190970  54.1897917
  93.7132072  37.2340059  54.7516775  93.8746643  37.6676059  53.3105278
  83.8463020  37.6113176  26.3445735  83.9606762  36.6647816  26.2595892
  83.4048748  37.7246118  27.1863198  95.9883801  66.5315875  88.0310966
  95.8450619  65.7063242  87.5678119  95.6279293  66.3813861  88.9050219
  64.0948677   8.7711877  51.1578274  63.5843992   9.5227414  51.4591932
  63.5104322   8.3106214  50.5557108  47.6014519  20.4868865   6.5770811
  47.9444504  20.0168252   5.8170640  46.6591883  20.3196597   6.5569121
  87.0986557   6.8259543  46.1053658  87.8602314   7.1999788  45.6622601
  86.6505909   7.5798118  46.4889812  92.0634079  21.8600678  29.0592384
  92.3160934  20.9564543  29.2486095  92.6215267  22.3892736  29.6290421
  65.3817177  37.0323825  32.2536063  65.5337334  37.8793836  32.6727843
  64.5562410  36.7246175  32.6279068  53.0620050  20.7124615  12.5531960
  52.9058266  20.0319004  11.8984628  53.1911230  21.5114141  12.0420849
  11.7192532  99.3850898  58.7358856  11.1836792  99.3961470  57.9426241
  12.2314144  98.5792970  58.6678791  27.4276972  11.1995482  40.9148264
  27.2023225  11.2716281  41.8423176  27.3312807  12.0892143  40.5750751
  59.1227770  37.4653316  12.2830832  58.9303160  38.2727432  11.8063509
  60.0698042  37.3561597  12.1967638  32.7844740   7.8534004  60.4673569
  32.9748751   8.0691597  59.5544355  32.9021860   8.6785242  60.9380453
  59.7563028  53.1370306   8.6539060  60.6187677  52.7419138   8.7814313
  59.9356079  53.9646053   8.2075828  46.8949652   9.6370351  20.5051947
  46.8859529  10.5848253  20.3716111  46.2022877   9.3078327  19.9324381
  59.8201799  43.6169529  34.3406320  58.9862919  43.9150238  34.7039676
  60.3456020  43.3845139  35.1062274  27.2470499  61.7701994  29.1573691
  26.6785408  61.9205462  29.9126339  27.2787119  62.6155030  28.7093830
  36.2539458  31.5156865  22.1440887  35.9302688  31.5875721  21.2461495
  36.8597817  30.7749486  22.1217227  35.8428980  90.2491163  69.0266085
  36.1203123  89.7033536  69.7624207  36.6603924  90.5545210  68.6333418
  57.3269558  20.7249141  43.8602543  57.8982115  20.1800823  43.3189106
  57.0449591  21.4295554  43.2769966  50.5683994   9.4005817  14.7610545
  50.2979708   8.6293691  14.2627275  50.5466890  10.1160824  14.1255867
  98.6798096  42.1270800   0.6756497  98.3553982  41.3021612   1.0368939
  97.9779625  42.4283457   0.0986837  27.3309685 100.3148227  56.3236141
  26.3764931 100.3867211  56.3179636  27.6290537 101.1170459  56.7523479
  76.8734121  10.5390453  54.1685534  77.3125744  11.2658322  53.7267971
  76.0150814  10.4866970  53.7481213  47.6826429  34.2739964  18.2943833
  47.0436764  34.9750257  18.1658745  48.4466410  34.7120690  18.6693919
  52.8389597  38.0005574  29.7514820  52.5552797  37.2020674  29.3063188
  52.2514725  38.6803865  29.4214487  67.6114511  13.2441437  11.4234734
  67.8870106  13.3451474  12.3345709  68.3978939  13.4361112  10.9127033
  62.9785681  26.6308856  45.3433704  62.3108339  26.9561720  44.7395945
  62.8336954  27.1256685  46.1498690  53.7469864  19.6877694   5.7552963
  54.0604782  19.0418339   5.1222706  52.8198624  19.7990143   5.5448121
  91.5683746  20.2820301  36.8982816  91.8444920  19.4989932  37.3745608
  92.0503998  20.9972739  37.3133826  62.9942465  21.0867405  63.2005835
  62.1193409  21.0086608  63.5809422  62.8486586  21.4935541  62.3464537
  87.3019218  29.0469813  32.7247906  87.3190212  29.0181541  31.7681766
  87.0079708  28.1741381  32.9854965  46.7557478  18.6174214  14.5015621
  46.1472416  18.7545383  15.2276134  46.2585163  18.1021154  13.8663840
  90.7853857  60.5541041  88.7158869  90.0837246  60.8866628  88.1561478
  91.5905539  60.7781120  88.2492431  53.5002736  62.2411617  80.7839213
  53.3920780  63.1185135  80.4167997  54.0590111  62.3695060  81.5504544
  13.7671257  91.5835833  62.7910280  13.3401037  92.3292469  62.3692799
  14.0202118  91.9095503  63.6546946  71.2400389  27.4033356  39.5905566
  72.0950842  27.0141363  39.4071245  71.1693096  28.1291962  38.9705944
  59.6873379   6.4581478  40.3568888  60.4043961   6.8093568  40.8848238
  60.0432348   6.4127040  39.4694710  82.8395271  12.3331153  37.0810604
  82.2796440  11.7840803  36.5321279  82.2354889  12.7573276  37.6904988
   7.3261883  62.1002122  81.7156325   7.6699975  62.9929896  81.6844098
   7.5251153  61.7366358  80.8528046  64.6442699  15.5798829  53.7751007
  64.2922306  16.2820983  54.3220854  65.2247381  15.0904083  54.3579435
  29.1424204 100.2919211  18.0707347  28.1939770 100.3028326  17.9420066
  29.4870497 100.8301709  17.3581696  71.0297251  33.6528325  16.6631627
  71.4893913  33.5352755  17.4944985  70.4438782  34.3941879  16.8161523
  88.3495012  37.7276488  77.9884081  87.4060551  37.7989467  77.8432970
  88.4870545  36.8099102  78.2230692  45.1474857  22.7644444  53.6536121
  45.9747839  22.6508427  53.1857395  44.5704603  22.0951080  53.2858324
  20.7154706  76.7894086  78.0528836  20.1570466  76.4763292  78.7644820
  21.3259556  76.0696682  77.8931205  86.1397266  29.8638082  41.9599771
  85.3398037  30.3821802  42.0473814  86.7788506  30.4707503  41.5866518
  40.1255655  30.8654499  30.6903124  39.2079759  30.7402539  30.4482651
  40.4406834  31.5432096  30.0923347  87.9418468   9.9186379  22.3077106
  88.7152863  10.4173470  22.5709820  88.2364368   9.0079641  22.2965336
  40.3614546 101.1843694  34.3907976  40.2807165 102.0092595  34.8696184
  41.2846924 100.9468051  34.4769311  35.4953098  31.1776447  10.5933607
  34.5691037  30.9639859  10.7061601  35.5375242  32.1272349  10.7061827
  49.5880175  14.5363224  34.1950345  49.4702244  14.6814799  33.2562661
  49.9596882  13.6563742  34.2565489  79.4218969  27.5167322  32.6671386
  80.1587486  27.8750134  33.1620312  79.0320587  28.2763362  32.2344017
  75.0937176  36.2302923  29.0726447  75.8277416  36.8289590  28.9346480
  75.4639673  35.5114746  29.5849442  80.9094429  35.2299190  28.4596443
  79.9965954  35.5139351  28.4118605  80.9623528  34.4908166  27.8537083
  53.8279438  30.0489330  27.2207141  53.5505962  29.1329694  27.2386622
  54.0563917  30.2121258  26.3056135  49.6268940  26.6616631  43.1640244
  50.2806950  26.1465001  42.6913881  49.6572447  27.5244641  42.7506447
  46.1590052  22.1069908  66.2388420  46.3354969  22.9524660  65.8262253
  45.5956459  22.3169327  66.9836807  49.7832489   1.9682039  40.0939465
  50.7233572   2.0635319  40.2467012  49.6888590   2.0183313  39.1427302
  37.3110604  32.2639227  37.3670602  36.4742088  32.4315262  37.8004408
  37.8643298  33.0027032  37.6206970  54.8483515  27.5432920  52.0424700
  54.3995571  28.3650875  52.2411299  54.8296118  27.0550966  52.8656006
  56.7021347 101.5356240  14.1270947  57.2254349 101.5756311  14.9275839
  56.0465504 100.8607142  14.3029988  45.1057911  24.7789669  34.2356777
  45.7910013  25.2356458  33.7476563  45.5266666  23.9772964  34.5461988
  15.4052473  97.6127254  13.4766316  14.5481421  97.2512399  13.7023008
  15.3396918  97.8205090  12.5445580  47.7631044  18.4110391  81.5334225
  48.0090714  17.5001585  81.3720798  48.4406328  18.7411678  82.1235085
  81.2754250  50.0901651  16.6686189  80.8843327  50.9440565  16.4838266
  81.5292358  49.7520733  15.8098364  68.2900238   8.2999468  24.7827029
  67.8474903   8.7302607  24.0511107  68.5328579   9.0156180  25.3701353
  81.5936470  30.4596972  44.2240095  81.2103653  29.5923543  44.3545771
  81.3657856  30.9441614  45.0174856  89.9805832   7.0549065  51.8764257
  89.0994740   6.7018324  51.9997454  90.3855896   6.9957566  52.7417088
  69.8292398  49.8671198  18.6044300  69.0444279  50.3079414  18.9299750
  69.5276928  49.3733120  17.8418970  89.0589333  35.2487779  71.8183613
  88.2666206  34.8590851  71.4487600  88.7460804  36.0108018  72.3058748
  66.4600611  17.1496654  41.6547203  65.6249666  17.5316715  41.3846779
  66.5691662  17.4303281  42.5633192  54.0452528   4.0463057  38.1478858
  53.7437201   4.3179736  39.0147781  54.7836781   3.4629822  38.3230734
  67.7394629  47.4759674  11.5619218  68.1825209  47.0281172  10.8412528
  68.2770109  47.2834301  12.3301697  74.9005461  50.0309277  29.1162634
  74.5038986  50.2788353  28.2811308  75.2805519  50.8430433  29.4513726
  63.3743477  48.5173082  13.8585627  63.1548882  49.1400337  14.5515847
  64.2982292  48.6833096  13.6711526  70.9191275  22.7144623  12.9793191
  70.5057812  22.0004463  13.4646666  70.4081154  23.4896350  13.2121432
  41.8914986  15.7001650  38.3580375  41.7403030  15.0378096  37.6837564
  41.0509109  16.1497152  38.4449315  55.0120449  21.3572216  50.2548456
  55.6783295  21.8607116  49.7870922  54.6837044  20.7341528  49.6066093
  65.1530933  25.5232644  12.1838510  64.9446917  25.4833245  11.2504673
  66.0628414  25.8194113  12.2136760  61.8559027  34.0238094  26.0868669
  61.7004251  34.4349980  26.9371510  62.8092480  33.9858699  26.0099077
 106.3666741  87.0630225  71.9365911 106.2180868  86.6513189  71.0853259
 106.4021221  88.0004557  71.7463426  55.2506138 101.9555935  30.0438881
  54.5657421 102.0116032  29.3775177  55.3165985 101.0213607  30.2415919
  89.4627110  46.6793307  82.8186505  88.9120928  45.9286793  82.5959997
  90.2519528  46.5626993  82.2897528  25.2776886 102.8373976  19.8960328
  24.8782898 101.9769358  19.7682881  25.8837248 102.9316366  19.1611409
  58.6369276  64.1987181   6.0968304  57.7107477  63.9739418   6.0079521
  58.8843107  63.8592434   6.9569409  61.0989952  23.3084226  21.3928008
  60.2850294  22.9547954  21.0341382  61.3816643  22.6560712  22.0337105
  77.8048182  19.3859351  38.8241863  77.3681879  18.6342800  38.4234309
  78.7208128  19.1185760  38.8997293  51.4037895  31.2210631  59.5921993
  50.6839800  31.7692518  59.2797995  51.0082865  30.6670141  60.2651310
  74.5829439  32.1122694  43.0865717  74.1732407  32.5295925  42.3288012
  75.5063152  32.0340419  42.8467989  16.7552210 102.2244338  23.4639239
  16.9611670 101.9013212  22.5867605  17.3405863 101.7359339  24.0426683
  54.9589968   4.3546316  19.5574081  54.9615002   4.6559411  20.4659438
  55.6769228   4.8341680  19.1440558  55.5156803  27.2976494  25.0409508
  55.4134083  26.4497375  24.6087313  55.8230114  27.8835654  24.3492270
  66.9567347   8.7646472  41.4919758  67.8499889   8.5014856  41.7135048
  66.9201469   9.6957934  41.7107439  19.8395230 101.4710175  18.5776842
  19.6705509 101.0001200  17.7616346  20.4131199 102.1936996  18.3228374
  76.5711164   0.5062477  15.9944046  77.2494078   0.3569943  15.3357112
  76.1234856  -0.3362339  16.0724103  34.6829153  97.6375424  63.0307436
  33.9137007  97.5739305  62.4646187  34.4206835  98.2432835  63.7239552
  32.6658560  95.5783903  61.1637974  33.1082941  95.4424976  60.3259373
  31.9750191  94.9160414  61.1800480  78.6200953   6.6566896  11.9496882
  78.4251928   6.9003451  11.0447693  79.2944956   7.2776765  12.2249877
  64.3683910  16.1837888  43.7086296  64.3652582  17.0074427  44.1962957
  64.9241209  15.6011128  44.2262077  25.6719732  33.4396172  40.0407791
  24.8332763  32.9918265  39.9298596  25.9849977  33.5864067  39.1481972
  59.4486809   9.9467808  41.8745518  60.3235292  10.3219414  41.9751883
  59.4125986   9.2453724  42.5249052  11.6818358  83.3863102  22.4956250
  11.4445139  82.4608075  22.5535464  12.5913025  83.4193813  22.7922940
  10.6673266  99.7030204  45.3886509  11.4606930  99.2097115  45.1802063
  10.9682728 100.6048810  45.4996014  86.1803150  35.9771061  50.6607485
  85.6299877  35.1944518  50.6893730  86.3066578  36.2147903  51.5793228
  68.8292885  18.7799358  59.1983509  68.1734610  18.4771943  58.5702848
  68.4309340  18.6238086  60.0546026  50.5118990   3.4578571  29.2493153
  51.2892723   2.9594159  29.5012665  50.0191736   2.8633851  28.6835790
  36.6321254  24.1887498  35.1802897  36.5352821  24.7786951  35.9278321
  36.1652994  24.6259189  34.4681191  50.5176401  12.1031499  34.4980025
  49.9932098  11.3939571  34.8698235  51.2742615  11.6635299  34.1100740
  44.5900679  27.0421624   3.5737187  44.8547792  26.1618662   3.8406211
  44.9719334  27.6182175   4.2359665  52.4731398  37.6182127  19.0353334
  52.6465130  37.8424430  19.9496055  53.3343410  37.4123740  18.6717463
  82.3236004  75.1279291  77.8562813  82.2364107  75.1417526  78.8094013
  83.2615868  75.2373751  77.6999609   8.5028698  69.6194740  83.2803600
   7.6567986  70.0606187  83.2043289   9.0448716  70.0223776  82.6020263
  44.4094276  48.8866282  22.5926161  44.0374470  49.3017721  23.3707690
  44.3759727  47.9489946  22.7822256  25.8331944  90.9426903  33.6091566
  26.0116125  90.5560230  34.4664121  25.6590058  90.1931416  33.0398893
  45.8209658  36.6328502  17.4776781  46.4182329  37.3316693  17.7444327
  45.2669954  37.0338917  16.8079627  38.7454271  10.0505567  23.5938120
  39.0691972   9.7356755  22.7498603  37.9104185   9.5982563  23.7138772
  86.9365788  18.4686506  48.7151241  86.3549232  19.1795313  48.4457636
  87.8150272  18.8453472  48.6634970  44.3028927  43.1281996  26.5739417
  43.6323357  43.4896898  27.1535230  43.9897442  43.3276510  25.6916785
 107.8880897  94.2288428  22.1639967 107.1189489  93.6833250  21.9994855
 108.0407658  94.6836328  21.3356924  73.7592554  42.8465652  12.0093715
  74.4435024  43.0122519  11.3608479  72.9753971  42.6673555  11.4900613
  82.4385643  31.1236906   1.3839927  82.6329803  30.2017355   1.5526062
  82.2562408  31.4920139   2.2484747  69.4946861  25.7983971  57.3568869
  69.6286631  25.1791859  58.0744219  69.9145651  26.6051984  57.6552200
  56.9070387  34.5325923  60.9133005  57.4909115  34.9664378  60.2911282
  57.1604443  34.8859882  61.7660189 100.0304571  84.7555884  86.2391536
  99.2842165  85.1634916  85.7998713 100.7561032  85.3621229  86.0915472
  44.4022633  95.6355738  33.7345290  44.6755005  95.6565051  34.6516633
  43.4596802  95.4725843  33.7690926  89.1235352  21.2870979  18.0310035
  89.4654751  22.1770096  17.9451859  88.1826305  21.3763976  17.8794622
  95.3454590  68.0680418  23.9978004  94.8939610  68.4508944  24.7500014
  95.1317883  67.1359158  24.0391850  46.6634941  42.9029989  28.1411743
  45.7932472  43.1440258  27.8236628  46.4953947  42.3165417  28.8787675
  27.5868536  96.6984742  60.6281424  28.4396197  96.7754685  60.2002478
  27.0966603  97.4624979  60.3244829  79.2375851  21.3426852  24.0472364
  79.7189999  20.6999731  23.5262823  79.3899345  21.0781550  24.9544549
  64.0505123  57.5227785  25.9590960  63.5425377  58.3158302  25.7880378
  63.9340115  56.9894695  25.1728129   2.6515868  94.9642333  75.6058173
   2.5099566  94.3033560  74.9280135   2.1956112  94.6208104  76.3741784
  99.9195423  13.6991522  85.5177187 100.1604261  13.7830231  84.5951285
  99.1984191  13.0697081  85.5207126  27.8831482  22.4937797  24.2427373
  27.4863291  21.7626667  23.7691975  28.2987952  22.0887399  25.0039291
  52.6299334  41.5749025  37.2153616  53.3340454  41.4061403  37.8414392
  53.0784035  41.8830538  36.4278674  51.1725092  13.4111035  55.1224136
  50.8360434  12.5251591  55.2570534  51.9434166  13.4629703  55.6874275
  60.1420450  32.6976705  36.7104363  60.8684254  32.0743036  36.7147112
  59.5994473  32.4281025  35.9693885  84.0050030  29.0431857  31.8791723
  83.1853867  28.5591698  31.9800830  84.2553616  29.2791343  32.7724147
  20.9240890  45.1018000  34.6671438  21.2076569  44.6017838  33.9017606
  21.7337728  45.4545403  35.0362182  62.4507380   6.4983428  63.6279154
  62.8339720   5.6785220  63.3160543  62.5779390   6.4766520  64.5763779
  40.2316856  17.8960729  44.8834276  40.4947805  18.8034928  44.7298002
  40.6469631  17.4031997  44.1757202  55.1314116  38.7970757   9.1100651
  54.1883564  38.6670065   9.2098337  55.5042076  37.9192257   9.1915011
  60.6846476  25.6947279  19.6356523  60.6824541  25.3419542  18.7458336
  60.5483246  24.9310470  20.1964021  77.2229910  26.5751505  26.1744428
  78.0688000  26.5673995  25.7263589  77.1454620  25.7002234  26.5548706
  67.9436207  16.5828836  50.6155348  67.1593380  16.8858302  51.0730886
  68.0065918  15.6539047  50.8374882  75.3834867  23.2417440  10.2362370
  76.2483692  22.8824759  10.4340732  75.5051184  24.1906238  10.2688169
  77.7794552  15.8098066  21.9716668  77.7077532  16.7519438  22.1248603
  77.2581244  15.4132903  22.6696777  86.9396973  25.5363178  36.6798282
  87.0449924  24.6773028  37.0887733  86.0225964  25.7637072  36.8329883
  97.0127106  13.2871759   6.1777300  96.4103699  14.0300524   6.2171161
  96.9645214  12.8933060   7.0488071  81.7454243  84.2755604  43.0192757
  81.9674492  84.8889256  43.7197924  81.2487030  83.5833359  43.4555387
  76.1761522   2.9971844  27.1273232  76.9101715   3.5568923  26.8739915
  75.4979467   3.6077592  27.4162316  52.3356819  21.9872212  27.8933644
  53.2137489  22.3682809  27.8988171  52.1586657  21.8066835  26.9701624
  56.2535524  23.8142681   4.8175600  56.9781160  24.1546988   4.2928270
  55.6319237  24.5404506   4.8672354  25.1802851  98.0107599  57.7312756
  24.9598624  98.9007684  58.0061007  25.1745058  97.5014751  58.5417223
   6.0137917  92.2706305  25.9161997   5.5026747  92.8997516  25.4070854
   5.6520153  91.4176857  25.6757140  43.6082983  42.2671747  29.7731280
  43.0168009  42.9873848  29.9914289  43.0665016  41.6546917  29.2755771
  32.1859908  22.7885151  43.3220673  31.8597007  22.9643226  42.4395370
  32.1624064  21.8348312  43.4005833  92.5631523  72.4047518   7.4999142
  93.0835533  73.1743336   7.2693700  91.6680145  72.6386023   7.2543961
  56.7061329   3.7644100  26.6428018  56.9167900   3.8874736  27.5683880
  57.3714924   4.2703766  26.1764050  72.6675320  24.6890664  40.9971333
  71.7364883  24.6512914  41.2161303  72.7204704  24.3265891  40.1128006
  83.2383919   0.4231725  34.9066973  83.0310345   1.2504423  35.3412771
  83.1525517   0.6150828  33.9728713  39.2894602  14.6574426  32.5266480
  39.3031144  15.5437279  32.8879571  38.4166408  14.3260956  32.7378941
  18.5499789  89.0685510  46.7206097  17.7099491  89.4604265  46.4818335
  18.6760355  88.3654784  46.0834026  59.4025317  56.4138117  84.7796987
  59.1332046  57.3197927  84.9310021  59.6109477  56.0771757  85.6511747
  14.8107409   0.1927042  22.6592541  15.0535882  -0.0787970  23.5444355
  15.6274831   0.5092070  22.2732615  17.3205448  67.1405159  78.4217119
  16.6735913  66.8894373  77.7624369  17.6082779  68.0135047  78.1546354
   7.2837425 100.7958827  11.3180590   6.6479422 100.8658854  12.0301604
   7.8179098 101.5864032  11.3953316  31.2600756  35.3999162   9.7394717
  31.5279961  34.5528936  10.0958502  31.0477972  35.9274149  10.5094814
  71.0173941   8.3743489  12.2555470  70.1313591   8.3842868  11.8935096
  70.9844685   7.7178431  12.9513550  67.6474905  36.1347055  43.6509800
  68.5254288  36.4267373  43.8962793  67.4759007  36.5678644  42.8148222
   1.3798834  73.3329140  29.3929434   2.2980906  73.5978662  29.3388319
   1.3936926  72.3882996  29.2388535 100.0028292  74.9972757  83.7997167
  99.8444191  74.7738465  84.7168957 100.1589218  75.9416374  83.8067655
  63.2114983  40.6016779  34.3540812  62.7677107  40.4346800  35.1855850
  63.3343410  41.5507603  34.3345428  71.5497828   3.6050430  43.8941574
  71.1382961   3.0665073  43.2182169  70.8294201   3.8547617  44.4729042
  68.5201263  28.2255530  33.5419655  68.0241680  28.0791259  32.7364755
  69.1605330  28.8980937  33.3100176  85.6457424  17.6958203  -0.0959718
  85.4646111  17.6679718   0.8435213  85.4752159  18.6039281  -0.3459567
  65.4316807   6.1741638  21.8798470  65.3020430   5.3788519  21.3632178
  66.3814640   6.2899178  21.9070816  76.8929815  11.3666117  31.3135552
  77.7697802  11.1328447  31.6182017  76.8790960  11.0980535  30.3949046
  79.6022844  62.4427748  18.3020544  79.8732233  61.9497776  19.0765107
  79.9140644  61.9193649  17.5637674  77.2798252  26.6718721  45.7244492
  76.5494299  26.9926262  45.1954222  77.4028540  25.7665348  45.4390430
 100.4229927  19.4213438  40.0530910 101.2957478  19.4180512  39.6600056
 100.5842590  19.4943368  40.9937811  74.0104961   1.1460907  41.5976095
  73.6670828   2.0212179  41.4174700  74.9585390   1.2670617  41.6506529
  54.8863888  23.4864998  28.0378890  54.7684622  24.4271803  27.9058099
  54.8942518  23.3772826  28.9888048  62.3629045  39.5853853   9.0206200
  62.2425795  40.2677441   8.3602089  63.3003950  39.3933892   8.9985830
  40.5412674  21.0340643  41.0945559  40.2453852  21.5794849  40.3657198
  40.1881504  20.1653790  40.9023905  41.9343853  16.0452294  54.4765186
  41.4674377  15.2904963  54.1179514  42.0382929  15.8429670  55.4063177
  80.3450775  13.3759630  43.5139608  80.8780003  12.9732549  44.1995621
  79.5385695  13.6359060  43.9591599  40.9518242   6.9050479  16.4815855
  41.1464357   6.5771604  15.6036055  40.8947897   7.8546327  16.3754380
  52.0065975  36.5951419  21.9683385  52.8505564  36.9328022  22.2682595
  51.4171886  37.3479056  22.0150089 100.8910338  62.9437789  88.8257883
 100.5104128  62.1194371  88.5227686 100.1402298  63.5262581  88.9408694
  64.6854019  31.3755560  17.8265762  63.7327957  31.2837720  17.8076947
  65.0140953  30.5164385  17.5617969  47.4905014  37.6367235  66.7243195
  47.1052408  37.1831679  65.9745884  47.7618551  36.9345021  67.3154879
  72.3000288  39.0301013  28.1430912  72.4647999  38.6301517  27.2892046
  71.4617062  39.4802284  28.0389833  78.5554552  58.3360767  23.2909822
  78.0014563  57.5786448  23.1022549  77.9435110  59.0686989  23.3618259
  16.6819121  98.3736642  27.8943706  17.1670128  97.6288312  27.5392222
  16.0029722  97.9784994  28.4412885  53.7186098  13.6926425  32.8177238
  52.9536486  14.2478585  32.6667309  54.2172813  14.1507554  33.4942555
  92.3663044  41.2345076  43.6196136  91.7206287  41.7448521  43.1308556
  91.9166565  40.9914923  44.4289351  86.3015938  19.3013430  27.6443768
  85.5072021  19.2926574  27.1104240  86.9793892  19.6406543  27.0598292
  70.8858156  54.5452833  17.2480643  71.1402702  53.8974857  17.9052126
  70.8712721  55.3758764  17.7235973  25.0420239  80.3994282  87.8198645
  24.8512032  79.4622549  87.7808136  24.7157528  80.6747945  88.6765734
  76.3458443  56.8531656  21.7823482  75.9650660  55.9935427  21.9620323
  75.6919241  57.4758959  22.0998788  34.5905901  22.6054260  61.4952462
  35.1758410  22.9976627  60.8472745  34.6211506  23.2058260  62.2401039
  13.2901814  76.9732674  79.5706402  13.9671662  76.7705020  78.9250271
  13.7523797  76.9782456  80.4088395  42.7598381  21.7537594  31.8357372
  42.0916462  21.9719481  32.4854636  43.4428310  21.3065290  32.3354721
  69.1747761  24.2527199  32.1510935  69.2323017  24.3152881  33.1045127
  70.0580549  24.0101290  31.8732548  32.0646214   5.5315328  61.9413900
  31.2592244   5.9393901  62.2595406  32.4837017   6.2099779  61.4119434
  47.3719883  45.5817699  25.0444913  48.0106592  45.8293295  24.3758774
  47.5446606  46.1780453  25.7730985  53.1966496  50.1740932  15.7242656
  54.0526342  50.1682806  15.2959120  53.3825064  50.4311085  16.6273892
  88.0867672  48.8086271  25.7364106  87.6819229  48.5652971  26.5689468
  88.0083942  49.7619724  25.7015586  21.1318995  95.6852626  57.8086805
  21.9534994  95.6243580  57.3213434  20.8699633  94.7756957  57.9511881
  58.4169292  32.2282672  39.1465497  59.0575838  32.6826453  38.5994363
  58.0484915  31.5547657  38.5748100  89.5181014  94.9379908  48.5924721
  90.3486206  94.5763814  48.2831049  88.9100518  94.1992526  48.5646677
  65.0281429  21.1054850  40.8283329  64.4115162  21.8082857  41.0334444
  64.6569681  20.3305197  41.2501049  70.0517702  15.4510748  25.4958129
  69.6882105  14.6706951  25.0774097  69.9750280  15.2775800  26.4340258
 107.6204109  13.7554336   8.0275834 107.4354076  13.3786547   8.8878411
 108.4716892  13.3913398   7.7846885  56.5264750  43.6107016  27.6758146
  57.1793270  44.3079329  27.7381778  55.9107304  43.7949944  28.3851266
  75.7396364  37.1617579  14.9450552  75.4828691  36.5381646  15.6243420
  75.6996298  36.6593957  14.1312575  82.3585907  73.0379923  85.5992679
  83.1729904  73.2268723  85.1331054  82.4367109  73.5196932  86.4227317
  73.0824375  26.3685346  37.1949267  73.8432407  26.9273257  37.3535562
  72.8244448  26.5651655  36.2943673  80.7497025  51.1709785  27.3627853
  81.6818714  50.9574795  27.3213935  80.4427052  51.0792923  26.4607978
  88.4364605  20.6467152  14.5335090  87.5748062  20.2335429  14.5889866
  88.3579254  21.4370990  15.0677001  33.4205055  72.3300028  23.0861831
  34.3607092  72.2811174  22.9133749  33.1224227  71.4211988  23.0481601
 103.6968422   6.9984639  18.5383177 104.1160202   6.7289644  19.3555605
 104.2104244   7.7499712  18.2421792  62.9484224  54.4746017  20.2554917
  62.3365736  53.7769508  20.0206375  63.3350229  54.1858673  21.0821772
  70.6896210  29.5244741  37.9110026  69.9716949  29.1163230  37.4270344
  71.2545490  29.8959374  37.2334266  42.6306963  64.0622473  21.2967873
  43.3223295  63.5400915  20.8903027  42.3685932  64.6832275  20.6171417
  55.9512997  18.0366290  52.6445961  55.8623409  17.1404064  52.3203993
  56.7099524  18.0062807  53.2274818  95.6606483  17.2429729  20.3881335
  96.0067749  18.0903792  20.6680059  96.4029121  16.8077350  19.9688053
  73.7883329  25.7516503  13.4018767  73.9447451  26.2802339  14.1844153
  73.8201857  24.8471570  13.7134981  74.8658752  42.1209717  19.8136139
  74.9538422  42.0744944  20.7656312  74.2700195  41.4051008  19.5929050
  66.6797018  32.5805140  30.4641867  67.1711683  31.7888880  30.2450442
  67.2716713  33.2991457  30.2419758  97.0965735  84.8683747  88.1716960
  96.7457787  85.6439623  87.7339323  96.6193739  84.1363820  87.7809288
  86.6246986  14.9841392   3.2760358  85.7969952  15.3137088   2.9260111
  86.3765335  14.5047641   4.0665060  47.7181292  50.0804710  25.5684423
  47.8309488  50.4397154  24.6884155  46.7719126  49.9710894  25.6630039
  75.6851101  14.6312761  28.4001541  75.4950523  13.9061153  27.8049636
  76.2749529  14.2561352  29.0540552  66.0521173  59.5974493  37.1178317
  65.6983900  58.7098646  37.0603490  66.4033079  59.7723293  36.2447262
   0.8028342  97.7479213  23.2283139   0.9160258  97.1462332  23.9641070
   1.6807462  98.0915143  23.0626464  82.8442860  62.0859051  45.4855728
  81.9315624  62.3289061  45.3302383  82.8224564  61.1363459  45.6042767
  38.6199307  13.0390370  19.3135989  38.7837362  12.0972025  19.3620324
  39.3157911  13.3744144  18.7483275  71.9406700  61.0211039  35.7496285
  72.1540165  61.8372345  35.2972436  72.7534723  60.7713604  36.1891818
  69.8919392  64.8592377  26.6173148  70.7114315  65.3060818  26.8294406
  69.8095989  64.1796017  27.2863007  56.2585592  42.7368259  25.0699711
  55.3491116  42.9638004  24.8759961  56.3797045  42.9934359  25.9841418
  99.4642639  34.2711949  31.7300129 100.2286911  34.6925306  32.1229005
  99.5519829  34.4423032  30.7923222 107.8003788  72.2544193  29.9500537
 108.1139755  71.6420937  30.6155944 108.5726261  72.4459219  29.4178939
  48.5671043  48.3327675   9.7365379  48.5576248  48.7770414   8.8887405
  48.1712484  47.4785566   9.5637500  54.9193048   7.5639951  61.5810728
  54.8556089   7.0179540  60.7974815  55.8498955   7.5539881  61.8049812
  17.2533274  51.7626047  22.8702617  16.8107247  52.5082970  23.2755756
  17.9844773  51.5700674  23.4572721   2.8012444   2.0838043  84.9526377
   2.1389557   1.6942141  85.5234493   2.4116589   2.0542500  84.0788065
  60.5649614  36.1486936  50.1243591  61.1366796  35.4536295  50.4503298
  59.9272537  36.2828088  50.8254862  36.5807390  35.7339621  19.2473376
  35.8485007  35.6912780  19.8623455  37.1588182  35.0188589  19.5132005
  71.7576838  17.1396852  41.8741131  72.3302126  17.4296892  41.1639452
  72.3491526  16.7344916  42.5083113  90.1768875   3.2082736  15.5607033
  89.2312336   3.0728731  15.5004549  90.3716087   3.1261101  16.4942801
  78.3804655  32.5238371  23.7807775  78.9604664  31.7632723  23.8177967
  77.7040434  32.2787094  23.1494331  87.7535343  17.7918339   9.1615337
  88.3581734  17.7826118   9.9035239  87.4134731  16.8981087   9.1185582
  43.4254408  26.4411068  41.0129786  43.1295395  26.5362144  40.1076460
  42.7930880  25.8421421  41.4099693  74.5949364  76.4475298  21.1224079
  74.9575329  75.6119251  20.8282542  74.4312000  76.3218164  22.0570827
  50.6597614  47.9663229  33.6977720  51.0277176  47.2377634  34.1978145
  50.6775188  48.7064219  34.3045425  94.9992275  31.9005132   3.9266926
  94.0971947  31.6916251   4.1694760  95.0759506  32.8425598   4.0779921
  84.7679615  33.1255436  35.6660581  84.0965557  33.1036973  34.9841666
  84.2878151  33.3300090  36.4684820  63.3860683  53.4192467   6.9130582
  64.3161058  53.2127476   6.8202138  63.1594658  53.1139421   7.7915072
  59.6201849  55.1745081  34.0285611  60.4475689  54.9029875  34.4259763
  59.8236799  55.2784586  33.0990362  43.3508158  74.4813108  14.1690493
  43.2862234  73.6262083  13.7437665  44.2410994  74.5077944  14.5196629
  43.5517836  54.3186665  14.7021294  44.4495630  54.0214205  14.5542204
  43.6458349  55.2185106  15.0146425  68.7659311  19.3566298  52.9106283
  67.8701115  19.0587819  52.7524281  68.7984991  19.5285523  53.8516998
  60.3756024 100.9039532  12.4791121  61.2305142 100.5191351  12.6721513
  60.0464703 100.3963893  11.7373025  65.5368376  52.5340033  16.1435533
  66.3661051  52.2087097  16.4938712  64.8755074  52.2131634  16.7566907
  93.7784004  43.2714081   7.0365745  93.1139469  43.7035227   7.5732404
  93.3046818  42.9799271   6.2575603  93.9192867  83.8080025  32.1576333
  93.8485336  83.3204269  31.3369656  94.0555191  84.7156811  31.8859792
  76.1957645   5.9152454  58.7186337  75.4976320   5.6174988  58.1353760
  76.4845848   6.7463613  58.3417273  68.3180214  74.7426855  48.7380648
  68.2509686  74.1012322  49.4453621  68.9735199  75.3693568  49.0444088
  72.2300959  43.7262106  20.3560972  72.1525908  42.7787495  20.2441168
  71.8628359  43.8956928  21.2236381  46.1578226  22.4614429  36.8524575
  45.6944799  21.8112540  36.3244414  46.9600773  22.0182180  37.1284366
  56.2553501  29.8510385  14.4277847  55.3630161  30.1335216  14.6282232
  56.3297033  28.9869356  14.8327923 104.1071987   8.1023949   9.6358597
 103.5222244   7.7904510  10.3263175 104.5662212   8.8450652  10.0282478
  97.2568607  14.3290889  16.4123762  96.9256783  14.4133615  15.5182564
  96.7991829  15.0120068  16.9026721   4.4898449  51.6482449  20.1246929
   4.0390431  50.8078384  20.2067256   4.6607338  51.9174671  21.0272169
  86.5305424  23.2057047  26.0661864  86.6597652  23.3701849  27.0002532
  87.1724033  23.7682915  25.6328845  51.7760801  32.6771808  21.4529967
  52.3751354  31.9861698  21.7356038  52.3196793  33.4640551  21.4134812
  71.8027163  47.0836973  20.6315923  72.6364231  47.4475241  20.9295654
  71.6859388  47.4418354  19.7516310  77.1014404  13.9286721  30.8226609
  76.8866301  13.0023789  30.9325242  76.8036127  14.3413925  31.6333365
  68.7776136  29.4452286  10.2321565  68.9604092  28.7957573  10.9111309
  69.4517279  30.1140046  10.3527272  82.2642994  36.4978909  10.0952804
  81.7059803  35.7849479  10.4054773  82.4637985  36.2683415   9.1876775
  50.7940006  30.6571913  39.7715616  51.5594673  30.2491999  39.3667984
  50.7677507  31.5388060  39.3996763  96.9106388  48.3780098  11.1514950
  97.6680946  48.7654972  11.5900600  97.1114826  48.4498549  10.2183676
  57.3132706  62.8195143  33.5179305  56.9205379  63.5494566  33.0392075
  58.1248331  62.6326084  33.0460548  83.9466000  18.9132774  17.4682021
  83.5682201  18.1524014  17.0276046  83.1923485  19.3854475  17.8208935
  78.9874983  62.7251148  32.1165848  78.1682348  62.2360897  32.1933794
  79.4100571  62.6198769  32.9689932  88.6789513  38.4171176  21.1164331
  87.7566624  38.5773396  21.3163352  88.7787247  37.4680257  21.1906004
  67.7735949  57.3851633  23.9528036  67.2441912  58.0803537  23.5620666
  68.2975245  57.8291464  24.6195960 104.2401886  75.8380985  32.2186947
 105.1152325  75.5304098  31.9823575 104.3953800  76.6344166  32.7266574
  91.4366436  64.2670298  46.6541386  91.9646549  63.8375759  45.9810781
  91.8862724  65.0958920  46.8186235  21.0743271  59.7182989  54.3630219
  21.1596714  60.6109619  54.6978283  20.1370465  59.5313168  54.4157076
 108.8493729  42.7404165  17.3512959 108.9393997  41.7937851  17.4609017
 107.9168034  42.8743410  17.1821880  85.3696918  71.8700552  27.2378039
  85.0244522  72.6027775  26.7277503  85.7748985  72.2800303  28.0019736
  19.5935776  99.5572051  81.5470801  18.8153126  99.5505437  82.1042918
  19.2539170  99.4403466  80.6598328  85.0444698  90.6506634  36.6074967
  84.9808121  89.9251652  35.9863496  85.1416397  90.2276993  37.4606609
  59.3520880  78.3650446  38.2987094  59.0191698  78.3084249  39.1943598
  58.7998676  77.7633715  37.7994370  82.2756958  75.2242470  28.9671135
  81.5340233  75.4820299  28.4196663  81.8841648  75.0026941  29.8120093
  84.4760036  63.4995890  35.6904697  83.6097527  63.8812733  35.5484772
  85.0838757  64.2246866  35.5457449  39.2341280  19.2891610  22.9257798
  40.0271749  19.1371322  22.4117827  38.7804461  19.9938619  22.4633932
  79.9762440  65.4503345  31.3624954  80.6674004  65.3427362  30.7090735
  79.6288347  64.5677423  31.4912248  69.5326115  12.4123833  59.1592090
  68.6630322  12.6613018  58.8460009  69.8295094  13.1674978  59.6670334
   5.8835923  28.4990430  38.8060403   5.4400860  28.9043617  38.0608869
   5.2526985  27.8630543  39.1432691   4.6185242  82.8445244  61.3824987
   4.9167954  82.5269794  62.2348070   4.1593014  82.0987034  60.9963560
  75.9084177  70.5815983  16.4225268  76.5486431  71.1376762  15.9785485
  75.7689047  69.8499393  15.8213210  74.0516901  64.4067383  41.7925119
  73.8010597  65.2443504  41.4028692  73.7969351  63.7536240  41.1407661
  76.7804861  54.2072535  51.1507559  76.3755178  53.5569525  51.7246389
  77.1197128  54.8747778  51.7470598  86.4442921  52.0676184  10.9697199
  86.7996407  51.2509012  10.6191063  87.2158051  52.5934410  11.1806881
  73.5145617  62.5091362  55.9016180  73.7540340  61.8247080  55.2767611
  73.2363844  62.0326567  56.6838074  63.7465048  45.4857492  34.7370195
  64.5180893  45.6876612  35.2662897  63.0246878  45.4619408  35.3652263
  80.6336689  65.1395512  56.9297266  81.4759254  65.1526833  56.4751101
  80.2691460  64.2764521  56.7337418  11.3025913  10.2364171  40.0278711
  11.6486988  11.1282552  40.0606728  12.0728169   9.6768011  40.1269627
  96.7238617  43.6916304  29.0771627  97.6049995  43.3618164  28.9009285
  96.6442394  44.4692373  28.5246921  10.8339726  50.6062365  26.5387845
  10.6310498  50.6546783  25.6045985  11.4943157  49.9164534  26.6049910
  56.7040110  42.2834969  18.8960636  56.3879299  42.7903795  19.6439898
  57.4985409  41.8556452  19.2152739 101.7712212  66.0550261  55.6435537
 100.8418941  65.8262253  55.6277800 102.1366215  65.5240965  56.3512468
  46.2376667  17.4344179  88.8620519  45.2884270  17.3217890  88.9120058
  46.3568379  18.3433220  88.5865070  87.8363228  62.6358986  44.7315264
  88.6789799  62.7797508  44.3008661  87.1859360  62.8736019  44.0706825
  82.4614429  74.4619274  42.9156733  82.3036003  75.1466894  42.2657394
  81.9043064  74.7015715  43.6562157  90.4886723  49.3418694  19.7633183
  90.3124714  48.6704826  19.1042054  90.0857639  49.0039015  20.5631161
  90.2593231  57.8248692   7.3105526  90.3903866  57.0245361   6.8021041
  91.0469818  57.8979063   7.8495264  98.9989853  76.8782854  61.0769796
  99.3844700  76.1388111  61.5468884  99.6783638  77.5524092  61.0926247
  58.7425566  59.3097782  29.9714208  58.4041786  60.1207066  30.3510571
  58.0264187  58.9832592  29.4266629  81.8219090  60.4135561   2.8036579
  81.2299156  61.0910082   2.4767971  81.3987160  59.5893383   2.5632414
  74.5475626  54.9805450  25.6595254  74.3245506  55.9068537  25.7514596
  74.9968195  54.9249077  24.8161387  39.7676016  35.9426329  70.0770967
  39.7060944  36.2620375  70.9773354  40.0410677  35.0295565  70.1650743
  10.4838692  39.9671841  16.6181433   9.6286904  39.5377827  16.6408968
  10.2883850  40.8966827  16.7366743  84.3527126  74.3172741  26.8994236
  84.4762897  75.1726341  27.3109150  83.6739922  73.8942719  27.4253917
  84.1122246  52.7098894  45.5905533  84.6477222  52.3913860  44.8638916
  84.7200584  52.7702332  46.3275290  93.1715965  48.1968021   6.3980317
  92.4856472  47.5293064   6.3860816  93.7799549  47.9029512   7.0761132
  59.6914959  81.1368942  39.1431594  59.8885202  80.4529762  38.5031080
  59.8332834  80.7183361  39.9922419  83.2471275  62.4604750  61.7520380
  83.5077190  62.7612925  60.8815050  82.2905540  62.4421692  61.7227221
  87.3615932  81.3505650  13.1613123  86.8781662  81.0995197  13.9484000
  87.0504475  82.2332191  12.9604614   8.4829651  13.9506173  28.2484531
   7.9194866  14.3244493  28.9259291   8.9915310  14.6934283  27.9231596
   6.8984162  66.0185432   1.4709125   6.5350949  65.3080082   0.9423546
   6.7358433  65.7513618   2.3755765   1.8719994  49.1135454  77.2099876
   1.5430294  48.3932400  77.7477360   1.1415325  49.7303391  77.1629715
 103.9450932  55.8683062  10.0882900 104.8375988  56.1841249  10.2294922
 103.8203430  55.9186602   9.1405916 106.4980984  68.1822586   8.6894065
 106.7947674  67.3968124   8.2297391 106.2144566  67.8651905   9.5468736
  80.3944302  60.5063725  23.0219984  80.2774143  60.5791473  22.0747685
  79.7956657  59.8071432  23.2842803 106.9647884  51.6669512  17.3415208
 107.5400925  50.9726191  17.6627219 106.5727711  51.3047457  16.5469372
  61.8133879  33.9077544  23.0244470  61.2937117  34.4653773  22.4454618
  61.7359734  34.3185520  23.8855433  99.6941471  67.3347282  23.4477305
  98.9398384  66.8260384  23.7451982  99.4174290  68.2468748  23.5351491
  75.6609964  63.7884951  21.2523413  75.3660917  64.6956396  21.3320470
  75.8711624  63.5253620  22.1483445  83.2627106  50.1517344  26.6968203
  82.8246593  49.4098330  26.2797761  83.7420273  49.7656488  27.4299145
  79.4859314  52.2432470   5.2950156  78.8555908  52.2719669   6.0147923
  79.4621325  51.3356304   4.9918717 108.8071934  91.1480745  84.0575503
 108.2986227  91.4094599  84.8251884 108.1777302  90.6958421  83.4958570
  96.6591167  59.4104719  37.9793024  95.9252357  59.7132301  38.5140753
  96.3528824  59.5042229  37.0772696  14.0235459  47.7652597  63.0199099
  13.7197338  48.6253262  63.3101082  14.9782311  47.8229523  63.0584097
  74.0662575  78.1541252   8.8264871  73.7611723  78.3212423   9.7182405
  74.8944473  78.6299133   8.7635738 107.0959187  26.3392854  28.7086201
 107.8018665  25.8839774  28.2497406 107.4415779  26.4924788  29.5879865
  77.3471260  51.3633776  10.4859269  77.2220755  50.4376459  10.2771056
  78.0459785  51.6493273   9.8976487 108.4574890  62.6693821  21.7225289
 109.2715454  63.1166792  21.4912915 108.6585426  62.2134256  22.5397897
  24.8790051  24.7485182  61.6206949  25.4892851  25.4494021  61.8499319
  25.3607155  24.2062733  60.9960692  81.9440174  62.3329258  59.1221857
  81.7589664  61.5755033  58.5669422  81.1063671  62.5345755  59.5391941
  51.8953896  61.9202900  16.3402152  52.1716404  62.3628616  15.5376923
  51.4051342  61.1565495  16.0359430  64.6993876  70.1305676  11.7879987
  64.3915606  70.9702206  11.4467430  64.2536831  69.4757271  11.2506330
  54.0699459  25.5484316  85.4408692  53.4862782  24.8489878  85.1470311
  54.7878433  25.0925657  85.8802255 106.8024445  25.6155705  64.2503595
 107.1355724  24.7401237  64.4474649 105.9814739  25.6750488  64.7389317
  96.9972229  60.9436035  17.0876312  96.6883564  60.5617142  16.2660539
  97.5767899  60.2780008  17.4581802  89.8735046  55.6001711  41.5493631
  89.0139294  55.9640360  41.7614031  90.4160690  55.8086348  42.3098898
  96.6723919  49.8729229  36.3725662  96.5244007  50.8158827  36.3007379
  97.5825405  49.7520256  36.1019182  77.4142694  35.1252842  20.5578732
  78.3680201  35.1578784  20.6322765  77.2512579  34.5281649  19.8277330
  88.9398384  70.8333778   7.0281786  89.2320538  71.7232132   7.2257435
  88.2187176  70.9498835   6.4095950  96.3714886  52.5268841  35.9463716
  96.2556458  52.6345396  36.8904185  95.5805397  52.9061365  35.5632234
 102.8331661  68.4989834  27.5724077 102.8958130  67.5573349  27.7324367
 102.7257061  68.8831711  28.4425116  54.8520947  54.0856791  20.9190679
  55.7520676  54.1617489  21.2360668  54.3346882  54.5955229  21.5424323
  75.9002256  58.1685257  10.4733527  75.9378338  58.4933949  11.3729513
  76.7740440  57.8134918  10.3101885  87.9884720  31.1911583   1.7842934
  88.3126450  31.4306974   0.9160979  87.5115108  31.9651318   2.0838088
  94.5587921  77.5418329  24.6861935  94.6723461  77.3788786  25.6225610
  95.2041245  76.9745350  24.2643642  57.9325676  85.3709412  49.0255833
  58.7773848  85.5413532  49.4420815  57.2941017  85.4621029  49.7328854
  84.7095394  60.8799505  69.4261980  84.1302776  61.1267185  68.7052298
  84.1167927  60.6501961  70.1418018  90.2379322  47.5799751  15.4528248
  91.1390591  47.7694082  15.1914465  90.0508595  48.2143641  16.1447704
 105.4612446  78.9242601   6.7989612 106.1721420  78.5163212   7.2933644
 104.6804905  78.4311867   7.0510405  78.2926750  41.9116116  13.1283963
  78.4684849  41.0169649  13.4198201  77.3729563  42.0589685  13.3489251
   4.8071038  44.1381931  25.5322027   4.8951565  43.4773350  24.8453689
   4.5663868  44.9383450  25.0652480  90.3334618  61.7121172  29.9772549
  91.2571621  61.6329908  30.2154827  90.2945042  61.4163542  29.0677285
 101.7789268  87.2289371  41.0712290 102.3957062  86.9285488  40.4037142
 101.4337063  88.0519772  40.7253265  70.8505440  55.3270578  32.4022770
  71.1304665  54.9465513  33.2347941  70.6155491  54.5731497  31.8613243
  98.5766411  68.4537554  70.3658295  98.6798286  67.5184822  70.1901960
  98.1780720  68.4916401  71.2352800  74.9272251  71.1190176  64.1565752
  74.3321514  71.8577862  64.2843771  75.7254934  71.5126228  63.8043308
  88.7582207  79.8227930  25.8772826  87.9629421  79.3420649  25.6477880
  89.2239666  79.9253988  25.0473523  89.4161129  87.9442024  42.6757193
  90.1982498  87.9566288  43.2273817  89.7533512  87.8593159  41.7839241
  82.3099613  83.9561176   3.9643210  83.1245136  84.4515514   4.0495461
  82.1125031  83.9790726   3.0279893  76.8123531  88.9911938  26.1259365
  76.3431501  89.8240662  26.1748862  77.4960661  89.1394901  25.4726553
  67.7886057  78.7244606  58.3551598  67.8455019  78.0010509  57.7309179
  68.6724234  78.8006067  58.7147331  83.9172268  71.0403681  48.2281733
  83.2739639  71.4321280  47.6374340  83.8156891  71.5243006  49.0477657
  70.2020216  49.9521399  12.3924387  70.4942322  50.8602905  12.4706113
  70.7982492  49.4593143  12.9562318   7.0885788  79.5588875  22.0588040
   6.9687496  79.6483707  23.0042481   6.6406189  78.7426329  21.8367934
  99.8966694  51.4729357  26.3341737 100.3610325  51.4938068  25.4974174
 100.4145050  50.8819294  26.8807936   9.5632016  71.9299459  55.3942299
   8.6076771  71.8822098  55.3636026   9.8108898  71.3256168  56.0939884
  49.9103619   3.4708092  85.3960435  49.2179085   3.2858488  86.0305010
  49.4941498   3.3439514  84.5434557  92.1921730  66.5646124  57.6999998
  92.0203495  65.6797409  57.3779583  92.0910645  67.1236944  56.9296503
  84.1886425  67.7902555  21.3236451  83.9488888  67.5244379  20.4359007
  84.6609020  67.0376492  21.6797042  43.4955670  16.2314913  71.9288294
  43.0954386  17.1005842  71.9572906  44.0155007  16.2333986  71.1251562
  81.3963318  39.0339184  30.5511498  80.6827831  39.6423221  30.3589702
  81.0677814  38.5003400  31.2747431   2.6796948  64.7647381  17.1512556
   2.5548779  64.3455601  16.2998188   3.1732880  64.1242552  17.6634872
  74.9307632  49.1642189  31.7824292  74.2046165  48.5415506  31.7473269
  75.1334476  49.3477535  30.8651161  98.5791969  84.7808456  14.9110377
  99.0394497  85.4036331  15.4736578  98.0482292  84.2604542  15.5139470
  18.5769497  44.9649715  55.9092569  19.0821587  45.7559204  56.0973883
  19.0394245  44.5533466  55.1792526   7.0887098  12.2309698  26.7754292
   7.2398911  11.3364328  27.0806670   7.6717815  12.7686513  27.3112965
  16.5999256  44.7371817  52.2504854  16.5442883  45.6907558  52.3123741
  16.1418473  44.5227718  51.4378262  66.3756895  68.2669449  37.4807239
  65.7843065  67.6915789  37.9659557  66.3827896  67.9093361  36.5928626
  58.4744930  71.4904547  40.4222775  57.7829695  71.8280649  39.8530221
  59.2484856  71.4496660  39.8605847  89.2337894  77.6058435  42.5250816
  89.4705772  78.1752777  41.7930269  88.3076096  77.4086571  42.3852921
  54.9354982  40.7618904   5.7659698  55.1049662  40.5328989   4.8521462
  55.5352163  40.2088308   6.2666613  84.5907688  58.1884289  27.2078466
  85.4831600  58.5223198  27.1161842  84.3086052  58.4927511  28.0704021
  11.1004196 100.7900238   8.7649578  11.8085228 100.3243446   8.3200341
  11.4695011 101.0320473   9.6143323 102.0516682  81.9643021  40.9059429
 102.3508739  82.5532341  41.5986681 101.6697121  82.5441074  40.2470303
  62.0655680  33.8279343  19.2125475  61.8720770  34.4027925  18.4720564
  63.0187321  33.8567948  19.2954946 104.8144341  90.0142384  73.1278944
 105.3876781  90.1438999  72.3723745 104.7409630  90.8822727  73.5245657
  86.6794300  58.9892483  25.6671476  87.4310207  58.6281300  26.1371970
  86.7793751  59.9377489  25.7483006   5.9115254  46.3593578  34.3771029
   5.1713883  46.5111494  34.9647927   5.8604752  45.4277325  34.1633248
  92.3585033 101.1091423  13.3488119  92.2042179 100.2069092  13.6288154
  92.9947281 101.0337353  12.6376390  90.2665997  34.5278740  26.8714643
  90.6454086  35.0980520  27.5405169  89.8319721  33.8335109  27.3666310
  71.2196112  57.2925186  18.2064176  71.3027573  58.1423473  18.6389756
  71.1870623  57.5011349  17.2727954   3.5624634  51.2388945  53.8600206
   2.9612957  51.8220377  53.3965731   3.0096184  50.7763433  54.4898176
  78.2950783  73.5783577  24.4224262  78.2476807  73.7660265  23.4850001
  79.2213392  73.6813211  24.6407676  96.7363548  76.5429354  52.8408813
  96.6481590  77.4578238  53.1081343  97.5862980  76.2727451  53.1884718
  74.9438524  67.2410536  16.9760454  75.4135799  66.6433144  17.5576794
  74.7436285  68.0001497  17.5236905  75.5019999  63.8346004  15.1462924
  76.1736012  63.3239460  15.5984187  75.5043507  63.4944677  14.2515647
  69.4738436  55.7409525  20.4267812  68.9144278  55.9478951  19.6781421
  70.2732658  56.2450457  20.2749944 103.5050789  96.7137202  71.7299812
 102.5496260  96.6973218  71.6745787 103.7335888  95.8947762  72.1696906
  76.6520786  72.1458483  18.4817803  76.3553286  71.6942167  17.6917171
  77.2362709  71.5202093  18.9101791  44.2653990  59.8250437  19.2679524
  44.9322557  60.2196932  18.7060010  44.0660334  58.9869356  18.8507509
  83.4604263  65.4143858  55.7370090  84.1705036  65.8596849  55.2746964
  83.3159828  64.6109390  55.2371740 102.3942184  42.9305410  47.5012255
 102.2114849  42.0653248  47.1348381 102.9521465  43.3539629  46.8488026
  60.3798653  32.4881003  83.6916463  60.9398533  31.7132685  83.6439131
  60.6146885  32.9025576  84.5218994  93.8967133  66.8547106  41.7753458
  94.4533730  67.5090885  41.3532639  93.8703632  67.1197891  42.6947308
 102.2531033  42.7307606  11.2895691 101.5886307  42.7163553  11.9784117
 101.8456745  42.2731495  10.5541635  76.4449501  58.3786583  36.3902354
  77.0673275  58.1910276  35.6876135  75.8881807  57.6011133  36.4309835
  91.7723751  61.6421175  19.8456061  91.5194321  61.4181852  18.9500034
  92.5706673  61.1377048  20.0022459  92.2000217  35.8054042  55.9977007
  91.7740345  36.5297318  56.4560890  91.4947605  35.1803851  55.8297825
  72.2146273  78.0995846  68.9411020  71.6079187  78.7289667  68.5512066
  72.2787380  77.3966217  68.2946062  58.0333115   2.0110437  72.9868572
  58.0576397   2.3919079  73.8646858  57.2591854   2.3989508  72.5788371
  58.3238579  36.9170115  88.4650050  59.2531849  36.6892931  88.4380756
  58.3117176  37.8479025  88.6875785  80.2694702  82.0004559  11.9240570
  79.4494486  82.4710178  12.0736122  80.6482887  82.4190617  11.1510801
  71.7881060  91.7749214  44.3366814  72.2295380  92.5974751  44.1250610
  72.4623394  91.2431812  44.7596264  96.1543846  48.8574028  27.0604038
  96.5801239  48.7620258  27.9123926  95.2612972  49.1319609  27.2683263
  69.7799088  31.7992613  82.3995333  68.8236977  31.7620298  82.3769467
  69.9847008  32.1790430  83.2539652  99.2200089  60.1419783  29.0800881
  98.7217617  60.8452415  28.6636829  98.5877991  59.4312239  29.1867423
  88.9009571  64.8891211  46.7950249  89.3568516  65.4901218  47.3842478
  89.5514870  64.2186213  46.5865135  81.3049984  86.3992023  53.4806633
  81.6987705  85.8149338  54.1285753  82.0467377  86.8697262  53.1003189
  10.2614819  68.3050346  21.7745090  10.2224003  69.1345978  21.2985587
  11.1348854  67.9616928  21.5860438  76.1033154  21.7337227  15.1042235
  76.3320351  20.8687377  14.7640443  75.3212357  21.9851804  14.6129501
   4.3483101  65.9718084  33.4508586   5.2891575  65.9765387  33.6269331
   3.9904343  66.6330147  34.0432835  71.9076252  52.2774076  18.7260067
  71.6319609  51.5863037  18.1238317  72.8097153  52.4712610  18.4712875
 106.1034870  91.9902420  22.3719597 106.6702652  91.2843418  22.0609832
 105.9401989  91.7789650  23.2911611  67.3162794  56.3251972  35.5002499
  66.4503765  56.4549828  35.1134682  67.9240036  56.4329290  34.7686100
  80.2492046  62.7327728  44.6819067  79.9542713  61.8589497  44.4256353
  80.0691414  63.2800817  43.9175320  89.6550083  47.2225952  31.8581319
  89.2795944  46.3603687  31.6796231  89.9129772  47.5542259  30.9980726
  98.7428474  25.7941318   4.2634737  98.0211163  25.2233243   4.5271233
  99.5023727  25.4538274   4.7362930  30.6408764   1.1820194  84.5687495
  30.9047962   1.4102575  85.4600884  30.5586840   0.2284214  84.5800604
  64.0971899  75.3117657  32.6985812  64.1205025  76.2139797  33.0174875
  63.9761209  75.3951120  31.7527342  98.8678837  76.2338018  35.4930353
  98.9970875  77.0283365  34.9751091  99.5785427  76.2475920  36.1341286
  97.0531273  64.5231390  26.7769861  96.1288738  64.3125820  26.9098687
  97.5229359  63.7556314  27.1032381  96.8985081  56.7708683   4.0138030
  97.5547028  57.4331713   3.7970051  97.4089622  55.9974861   4.2536831
  78.4906769  83.0833435  42.1656418  77.8531313  83.7644005  42.3799324
  78.8215494  83.3283329  41.3015079  56.6147184  64.1278934   1.3525975
  56.0641336  64.5006418   0.6640147  56.0201025  63.9999056   2.0917085
  75.9015442   6.5777275  67.7751534  76.4788224   7.3398802  67.7292149
  75.6649185   6.4012644  66.8646042 107.5046253  44.2747974   8.9682752
 108.1518269  43.8626814   9.5405710 107.5761890  43.7964249   8.1422758
   3.0212151  40.3142262  46.9295788   3.8497196  40.2982712  47.4086952
   2.4511563  40.8751631  47.4555159  90.7196712  67.3372793  10.1398993
  91.3949299  67.2674036  10.8147156  90.4971123  68.2680178  10.1192427
   6.7300179  71.5539535  71.8964629   5.8680775  71.4226194  72.2914748
   6.5475276  71.9831046  71.0605459  83.1346893  56.8666267   6.6878098
  83.6092091  56.9401169   5.8597606  82.6230717  56.0623932   6.6001201
 102.2932816  66.5018702   5.9619731 103.0824757  66.6556120   5.4425818
 101.6241169  67.0468616   5.5479217  93.8971519  46.2217808  19.2449343
  94.7055721  46.0721207  18.7547398  94.0984154  45.9292984  20.1338530
  60.1717854  57.3690987  31.3980055  60.8215380  57.9901171  31.7272305
  59.6196795  57.8877831  30.8128786  98.0463982  76.0611248  45.0525808
  98.1698036  76.4587736  44.1906786  97.0969200  75.9862900  45.1481152
  85.0792980  82.6750660   8.8938129  85.7812500  82.9521179   9.4826597
  85.0932026  81.7189693   8.9377433  91.5346718  55.0363827  43.7544155
  92.1936703  54.3693066  43.5621786  91.8441486  55.4542065  44.5580816
  65.7190752  26.9589233  44.9835777  64.7663260  26.9611502  44.8913956
  66.0256052  27.5740528  44.3173313  20.1757742  32.4002764  85.0991564
  20.9304548  31.8866274  84.8113324  19.7214199  31.8310377  85.7202469
  35.7369399  74.6150923  24.3183923  35.1706219  75.2135134  24.8056412
  35.1379728  74.1207409  23.7588525  87.0890713  67.6629686  29.1108608
  86.6803551  66.8655872  29.4475555  86.7270279  67.7643728  28.2305932
  42.9466654  54.1539690  72.2072272  43.4515597  53.9251921  71.4268570
  43.5991646  54.2168352  72.9047422  75.1129627 101.5551853  14.9439967
  75.9116936 101.3168526  15.4145861  75.3301764 101.4229870  14.0211892
   1.8949639  59.3619776  25.2238846   1.4268910  60.0745296  25.6591034
   2.8010117  59.6664762  25.1730204  60.0298977  68.3793259  39.0817714
  59.2648697  68.4475946  39.6530008  60.5337524  69.1733551  39.2603183
  64.1715765  50.4013443  29.9015331  63.8214207  49.6544790  30.3871441
  63.4117079  50.9614086  29.7428918  68.5290505  12.8864262  74.4733326
  68.1546570  12.0292732  74.2699830  69.4600655  12.7953741  74.2704551
  87.7747726  75.3545380   8.0056208  87.5059700  74.6468258   7.4198574
  87.6545715  74.9962473   8.8850570  11.8225228  67.2701645  15.3736043
  11.5010296  67.3865509  16.2676573  11.8709217  68.1579447  15.0190139
  31.4239647  90.5940136  83.8782655  31.8207219  91.4643749  83.8424222
  31.0055783  90.5567487  84.7383805  74.0696287  66.8147612  37.9108715
  73.5751104  66.2353468  38.4904957  74.5454693  66.2221766  37.3289347
  88.4661865  75.0468302  39.4399929  87.5631809  75.1484823  39.1392088
  88.9992237  75.2614498  38.6744595  31.7167889  62.7500248   2.1428560
  32.6219879  62.6659155   2.4424857  31.2227951  62.9714584   2.9322636
  99.1139793  86.7118931  23.8275743  98.5983562  87.5182152  23.8131618
  99.9928570  86.9941139  24.0808749  75.7696247  58.6761236  19.5910645
  75.6427622  57.8699207  20.0912380  75.4621220  58.4623671  18.7101650
  91.4516258  20.1027298  14.9492490  91.3931656  20.8850431  14.4007993
  90.5824184  19.7057366  14.8936439   4.0242230  42.7871084  27.5727487
   4.4349896  43.1997776  26.8130112   3.3618294  42.2051144  27.2002506
   3.2501637  44.7118998  21.6572309   3.0642830  43.7843895  21.5109324
   4.2057167  44.7679329  21.6549563  48.1087830  86.1265763  87.4092516
  48.5557988  85.8783849  86.6000445  47.1793034  86.0024818  87.2171779
  20.7748638  43.0196905  46.8695116  20.7066952  42.9959488  47.8239870
  21.2871968  42.2424889  46.6465712  97.3408031  73.8580084  21.2846279
  98.2506371  74.1168785  21.4309978  97.3395252  72.9084873  21.4056134
  11.9290959 101.9183064  28.9668941  11.3935791 101.6972351  29.7288513
  12.4931275 101.1552525  28.8410282  17.7212845  95.2197266  18.7860513
  17.5616871  95.4285336  19.7064662  17.9839932  96.0523319  18.3936357
  21.2413060  76.5937757  27.9409361  20.8182465  77.2564888  28.4868932
  22.1680390  76.6470003  28.1745148 104.2179203  64.1244364  26.2949538
 104.5556736  64.7597694  25.6636810 104.8557854  63.4108686  26.2812471
  71.8264652  25.0196049  84.5878415  72.0290638  25.9269878  84.8155172
  71.4225460  24.6590683  85.3772046  78.4849977  73.9930773  38.8476181
  79.2564487  74.2626905  39.3460202  78.4491491  74.6047449  38.1122231
  52.4600102  11.4378378  64.7770994  52.8822399  12.2500107  65.0569575
  53.1783177  10.8105919  64.6944873  89.0636158  88.2892513  51.2922049
  88.7016392  87.4092960  51.3965034  88.5977650  88.8181877  51.9398451
 107.7763462  85.0361824  50.9514046 106.8852806  84.7045517  51.0620975
 107.8424454  85.7584095  51.5761089   1.5847718  60.9580660   9.0424150
   1.0916363  60.4439926   9.6817720   1.5857827  61.8464136   9.3988878
  94.9621964  58.9520693  61.9163895  94.2972565  58.2664585  61.8529463
  95.3669071  58.8146877  62.7728748  96.4772415  66.8348789  13.1114590
  96.2510872  67.1878576  13.9719772  96.1917686  67.5081491  12.4938428
   8.1223809  62.9453516  43.3850145   8.8790737  63.2510662  42.8848267
   7.4690949  62.7256775  42.7207947  97.2856926   4.5564378  18.9068890
  97.7955316   4.4044221  18.1111574  97.1833156   5.5072702  18.9477694
 103.2262421  72.9388046  24.1789579 103.1039906  73.3123732  25.0517321
 103.9552689  72.3268557  24.2803192 100.4496479  99.0660667  31.0222149
 100.9525204  98.2600212  31.1390162  99.5428181  98.7721825  30.9354615
  28.1820427  55.9350348  17.3932648  28.4154736  55.0143671  17.5120795
  28.0766903  56.0352468  16.4471734  72.9745293  59.7304344  32.2506142
  73.7076426  59.4505787  32.7987552  72.3231316  59.0360117  32.3490334
 100.5858994  91.1289883  28.0959320 100.4997444  90.7031822  28.9488649
  99.7734737  90.9139538  27.6377249  76.8833685  61.7538643  61.6628504
  76.1490393  62.1164036  61.1673117  76.5892220  60.8808136  61.9226599
  44.1343285   1.0236380  85.8329143  44.3236519   1.9545672  85.7156326
  44.9913479   0.5987284  85.7984398  87.2134113  58.4058619  10.3513014
  87.0417595  57.7892065   9.6396112  86.3456249  58.7013865  10.6266820
  83.7586975  56.9849110  22.5027061  82.9965401  57.1578217  21.9500279
  83.4848404  57.2542906  23.3794451  84.4098377  69.2973423  69.5526648
  84.3255043  68.8095427  68.7334156  85.3523922  69.3294668  69.7163486
  82.1772957  55.0207949  25.6896162  82.2988605  54.2538118  25.1299834
  81.5338707  55.5563641  25.2255082 107.0368099  92.6493263  33.0156088
 106.4790916  93.2531071  33.5061526 106.7192078  91.7794514  33.2578325
   8.7385880 100.2297401   7.7056658   8.4879528 100.9371853   7.1115780
   9.5335900 100.5470562   8.1340462  18.9035832  74.8901033  38.3595872
  18.8866173  74.7669792  37.4104905  19.7865616  74.6273184  38.6194515
   7.3241745  94.4460773  33.0231237   6.4598023  94.2321873  32.6719236
   7.7164780  93.5971832  33.2273722 103.9334774  87.4515438  22.4386358
 103.8480568  86.9160748  21.6498303 104.2880630  86.8536949  23.0967164
  13.7742459  78.6396694  16.1408234  13.4212242  78.9833784  15.3201711
  14.1462933  77.7900410  15.9042990   4.3846451  76.2496090  35.4685569
   4.0036141  76.4067030  36.3324809   3.8917195  75.5063629  35.1209283
  12.7503922 101.6845378  74.5230536  12.8836682 102.0774039  73.6604278
  13.0926278 100.7948121  74.4364934   1.5902903  87.2526129  69.5732419
   0.9207203  86.6140040  69.8183637   1.3171866  87.5671633  68.7114375
  26.9591461  78.2746172   8.9909023  27.0765911  78.9365578   8.3095270
  26.5858971  78.7551260   9.7298384  68.5110642  25.3886768  80.6623940
  67.8761269  25.5550787  79.9656938  67.9766632  25.1810238  81.4288967
  10.0388848  65.7214165  23.1560802   9.9552857  65.0786686  22.4517202
  10.1142536  66.5623999  22.7051997  71.4646721  70.7159805  48.7682772
  71.1041021  71.6017389  48.7276459  70.6966877  70.1446438  48.7708426
  83.5297966  55.7087040  14.7450876  83.6180973  54.9855661  14.1241944
  83.7309265  55.3195477  15.5961680  64.0110756  27.2543022  70.2422802
  64.2431332  28.0304262  70.7521944  63.8154198  27.5917170  69.3681495
   2.2384774  95.4867172  36.0067296   3.0519806  95.6566906  36.4816546
   2.4415528  95.7064724  35.0975013  24.6512184  11.4600862  11.3238192
  24.9330959  12.1936143  11.8703640  24.6894798  11.7991842  10.4295123
  79.1852236  92.2938061  26.5798521  78.5666370  92.0480824  25.8919573
  79.8194408  91.5771198  26.5988231  89.8329735  96.6618347   8.7627167
  89.5050430  96.8926334   7.8935647  89.8042870  97.4821568   9.2551446
  99.2841148  64.3178797   8.8418412  98.5688210  64.5181847   9.4455504
  99.0656567  63.4551048   8.4895158 101.5116692  18.7705469  10.8311510
 101.9933701  18.2901752  11.5045321 102.0518684  18.6878812  10.0452888
  94.5663239  35.1853010  64.4537012  94.7326638  34.2906973  64.7507470
  94.4889237  35.1113436  63.5025041   6.5402352  75.3984785  41.9042730
   6.7293202  76.3166666  42.0976877   7.3623024  75.0527525  41.5565395
 104.7506905  63.1560469  47.4210930 104.2977428  62.3256397  47.5677013
 104.3569183  63.5058069  46.6218185  30.8020458   4.8480047  11.1285186
  30.9788952   4.2116464  11.8213415  30.1144085   5.4085172  11.4879692
  30.6078469  83.4192181  37.5950646  29.9716317  83.5417747  36.8904781
  31.4099346  83.1474686  37.1489263  25.2412831  50.7393217  76.6831017
  24.7011219  50.0648737  76.2713099  24.9998223  51.5481806  76.2317991
  90.5259132  60.8348989  14.3152380  89.5885563  60.6995821  14.4540882
  90.6293201  60.8364296  13.3636403  29.6483933  31.4396048  43.3503771
  29.7511040  30.8170080  44.0701342  28.7726532  31.8058276  43.4736013
  73.1505442  72.3621893  24.4111371  72.9008198  71.4408350  24.4816899
  73.2292747  72.6591015  25.3177094   8.2209526  77.1417189   7.2554547
   8.9516960  76.7052794   7.6933831   7.8570401  77.7255344   7.9210043
 104.3183327  74.7495508  16.6994882 104.3555737  74.0533924  16.0435855
 103.4098816  74.7461510  17.0010471  76.7255951  17.2039578  82.3851304
  76.8366219  17.9530737  81.7997013  77.5963188  17.0578072  82.7548681
  80.0861145  39.2808458  88.9684238  80.7210709  39.5941469  89.6125569
  80.6189133  38.8738844  88.2852380  49.0005932   2.5234140  49.5401907
  48.8813171   3.2728590  50.1235676  48.1311855   2.3656190  49.1721487
 107.7123547  86.8581200  29.6188283 107.8363323  86.7853737  30.5651736
 108.3269691  86.2252522  29.2473984 101.7297173  92.2982311  30.9642410
 102.5082016  91.8906307  31.3437867 102.0598888  92.7929497  30.2142620
  17.0156323  91.2059975  15.6083834  17.6376187  90.6474113  16.0745811
  16.9712101  92.0051384  16.1333919   2.7338826  50.5869532  31.0151482
   2.4588524  49.8288345  30.4995394   2.7584015  51.3081694  30.3862810
 101.4217186  68.5087109  15.4985535 101.3133430  69.1434431  16.2067902
 100.5285931  68.2561731  15.2645063  77.2462441  10.0252697  88.0773673
  77.7165962  10.6210396  87.4942248  77.5376679   9.1524288  87.8138367
  63.7977123  52.3373032  38.2002163  63.7933111  52.9789162  38.9105320
  63.7136126  51.4916849  38.6407638  77.1541691  88.3746052  28.9317274
  77.3907137  87.4704933  28.7247133  77.2690201  88.8470173  28.1071877
  11.2534558  53.5953236  10.4681218  11.6177880  54.3337774   9.9800849
  10.3194844  53.6073542  10.2588534  63.8595152  74.9949455  29.9314642
  62.9024124  75.0017071  29.9197316  64.1121101  75.4315138  29.1179323
   6.9448506  76.8678522  36.8509579   7.5263344  77.6116943  37.0084357
   6.2450348  77.2227764  36.3027620  97.5279331  76.8000698  31.6356802
  98.0525208  77.0584536  30.8778691  97.2407627  75.9091425  31.4356494
  88.5462093  76.0560846  24.7941303  88.2215214  75.7148218  25.6274033
  89.4169998  76.3972521  24.9980283  12.9789377  62.8172800  85.8757584
  13.1835009  61.9889471  86.3096319  13.2845045  63.4888956  86.4855062
  72.5674797  10.4052660  80.8097492  71.6927220  10.7466862  80.6240921
  73.1267430  10.8041975  80.1431839  35.7539212  87.7846336  16.8556404
  35.4594456  86.8822479  16.9789684  36.2507473  87.9849815  17.6488996
  18.7011372  66.7563581  54.1580772  19.4195496  66.1278296  54.2292547
  18.9695774  67.3483753  53.4554482  83.3749580  64.1343880   8.6523134
  84.1843128  64.1005993   9.1622603  82.6817417  64.2102718   9.3079931
   0.4156052  83.9759445  26.4053512   1.2796341  84.3851757  26.4524555
   0.5979477  83.0471516  26.2627482  84.9215889  83.9223766  42.7506542
  84.1471386  84.3363667  43.1315327  85.3755379  83.5311222  43.4970331
  14.8606716  74.2506123  23.7593102  15.3102814  74.3417025  22.9191971
  15.0748001  75.0538301  24.2338872  51.3197281  89.0447577  76.9957452
  52.1976521  88.8980254  77.3478060  51.0783246  89.9161824  77.3097162
  28.9076554  62.5925589   6.9217539  29.3571030  61.7554235   7.0376480
  28.0550133  62.3579359   6.5554410  97.5459290  91.2456417  27.1028304
  97.6766491  90.3088474  27.2496867  98.0461979  91.4357662  26.3092232
  79.2570496  54.5500517   3.7054718  79.1258860  53.8193226   4.3096763
  79.8034382  54.1886473   3.0075613   6.5879570  95.0739574  17.5114965
   6.6402279  94.3809509  18.1697083   6.0298668  94.7099590  16.8242705
  68.0759764  50.2772856  25.6888151  67.7954435  50.8579159  24.9814248
  68.3974552  49.4939375  25.2424407   0.3815209  51.4360380  50.2913427
   0.7896935  50.7244015  50.7844877  -0.5312504  51.1655807  50.1916647
  80.1731205  68.6388874  28.3972812  80.5421734  67.8835726  27.9395413
  79.9002981  69.2328882  27.6980186  83.3080101  50.1660919  63.4723759
  83.4952259  50.1279545  64.4103146  82.3525047  50.1490450  63.4179783
 105.4135799  84.9512863  37.2050023 105.5343819  85.1758099  38.1276226
 105.7342911  84.0522671  37.1333003  90.6306839  69.6144199  16.7353165
  89.7500134  69.9746990  16.8394077  91.2073517  70.2786016  17.1128845
  43.3540894  17.6376841  89.0527663  43.2828451  17.7299330  88.1026895
  43.3109928  18.5345671  89.3843906  59.6685768  30.3742907  86.9030273
  60.4182793  30.9690973  86.8835229  59.3932415  30.3059122  85.9888344
  24.1525517  -0.1688849  10.6573570  23.3177528  -0.4641329  10.2937853
  24.2557297   0.7233633  10.3264689  98.3278465  81.5865612  34.1986895
  97.9231071  81.8715858  33.3794332  98.9135265  82.3045254  34.4389629
  96.4216805  94.4968510  41.3055658  96.3945770  94.9771976  40.4780579
  95.8859634  93.7192535  41.1487913   4.0055500  78.5867023  16.4770818
   3.2126652  78.1987381  16.8472779   4.3833958  77.8914738  15.9384489
  12.4368988  95.5243397  23.7047958  11.9584023  96.1328220  23.1417489
  11.7683064  95.1564693  24.2826176  59.1608858  92.7255535  68.7795639
  58.9142036  91.8368244  68.5235691  59.3146038  92.6692009  69.7226572
 106.1534977  87.3659801  41.4123344 105.4798222  87.5048733  42.0779991
 106.3890839  88.2472897  41.1224604  80.8590031  55.6538153  28.2121062
  81.6305542  55.3609085  27.7271819  80.9845734  56.5971613  28.3148575
  87.2778130  50.8842754  35.9206581  88.1041145  51.3615417  35.8453369
  87.2924423  50.2636099  35.1921034  24.8576008  63.2243204  14.9096680
  24.5985924  62.8751183  15.7624292  25.5919014  62.6735163  14.6382999
  83.0767727  97.2687054  69.6528721  82.9583549  96.5464687  69.0359592
  82.2191238  97.6917744  69.6938324  84.5712948  44.2692995  56.9577169
  84.5380688  43.7714624  57.7745914  85.1713085  43.7743568  56.3998222
  98.1455612  65.4930449  39.6295857  98.8372231  66.1534739  39.5886612
  97.3600578  65.9499264  39.3287992 105.3863144  49.3934059  42.6448488
 105.6916714  48.7274837  43.2609129 104.5789337  49.0304947  42.2806120
 107.6631950   0.8016885  67.9339552 108.2896446   0.7078660  67.2163248
 106.8101619   0.8502305  67.5024319 100.9010887  60.0849581  31.7737126
 101.7568493  60.1658010  31.3525581 100.2744102  60.3225946  31.0903120
  14.4115673 102.1669006  51.7257595  15.2191960 101.9023132  51.2853479
  14.5668541 101.9698048  52.6494884  76.5887976  65.9691095  18.8075662
  76.5838671  65.0135231  18.8629460  76.9474411  66.2558460  19.6474397
 100.9453964  53.3863354  29.5046210 101.0228539  52.5047445  29.8693562
 101.5742016  53.4031391  28.7831235  92.8924084  44.4211912  14.6976197
  93.1144810  43.5509205  15.0285876  93.3373642  45.0245190  15.2928019
  85.7461262  78.1202316  54.5987272  85.3442383  77.4157524  54.0903759
  86.6810131  78.0522680  54.4047976   1.3459431  76.4910698  69.9561739
   0.6267105  76.6943598  69.3581676   1.1695134  75.5965614  70.2476549
  72.9341793  69.2281055  14.0558231  72.6985121  68.3175468  13.8781440
  73.8782883  69.2050791  14.2118990  13.0337559  51.8337345  33.4323597
  12.1972405  51.4517260  33.6979556  13.1261288  52.6128483  33.9807034
  97.1165466  91.0775948  32.4271584  97.7553463  91.5843105  32.9285526
  97.1023369  91.4951992  31.5659761  17.4288784  78.3912420  25.3996491
  16.9133602  78.7832069  26.1045146  17.4614941  79.0669775  24.7224855
   1.3317906  78.2273865  50.6590414   1.6403710  78.8642597  51.3035583
   0.3780495  78.3050203  50.6832552  90.4558754  61.2074852   2.5862220
  91.2022400  60.9242249   3.1143749  90.0429726  60.3931284   2.2988833
  16.7246281 100.4376793  41.5199614  16.0975872  99.7335625  41.6850901
  17.2671639 100.1117325  40.8018780 100.6769562  98.1147194  25.4100156
 101.4815807  97.6885033  25.1148033 100.5828190  97.8426266  26.3228869
   1.2706124  87.9387760  35.3037500   1.2550770  88.5568142  34.5729780
   0.6458222  88.2973766  35.9340405  82.8066063  68.5120392  36.7152309
  81.8734169  68.3007145  36.7424750  83.1301117  68.0673552  35.9317565
 102.8103065  42.2897673  32.5907326 101.8866539  42.4725866  32.4184299
 102.8273487  41.3694954  32.8534889  96.7708683  70.6948709  43.7846804
  97.5598812  71.0987663  43.4233570  96.3634872  71.3879013  44.3042755
  11.5548931  88.0971050  18.2633543  11.3080727  88.2572842  19.1742086
  11.4943444  87.1471786  18.1623006  75.6605005  58.9780045  49.9715805
  76.0491610  58.9753389  50.8463192  75.7082701  58.0658102  49.6854877
   9.0559613  99.6476841  16.5075111   9.2677819  99.7188663  15.5767596
   8.4068142  98.9456749  16.5524113   2.1594178  89.2166328   6.3223970
   1.4087426  88.7736893   6.7180330   2.0172821  90.1441097   6.5116096
  90.9885788  66.5381002  42.5396013  91.4235210  65.6873369  42.4824429
  91.5392876  67.0492792  43.1326008  69.1822411  27.5859282  64.8688524
  68.5039784  26.9105074  64.8693006  69.2161347  27.8907177  63.9621084
  89.4829750  47.5239468  18.1064320  89.9001408  46.8625402  18.6584723
  88.5469818  47.3343515  18.1712902   1.2840496  56.3910198  32.8314829
   0.8202874  57.1461344  33.1933618   1.2996613  55.7544804  33.5461903
  93.5590172  78.4215975  55.3567553  93.1186008  77.6125956  55.0964117
  92.9458904  79.1161776  55.1162052  83.4430672  31.8455622  79.7640501
  82.9479290  32.3821756  80.3830211  82.8236653  31.6613218  79.0579145
 101.9414139  75.6208897  29.1067624 101.0716915  75.4398823  28.7503052
 102.0581341  74.9678087  29.7967553  86.5555382  51.7800331  28.5397696
  86.0642624  52.0052290  27.7497268  86.5856075  50.8233070  28.5385537
   7.5806271  40.4003048  28.5365963   7.0035874  39.6399784  28.4647989
   7.0601403  41.0525846  29.0054822  80.1264095  49.3065739  58.6501360
  80.7199669  49.8927546  59.1195107  80.2409077  48.4575891  59.0771580
  92.3739624  32.2632766  43.9757109  92.6980782  32.4570990  43.0961609
  92.3891544  33.1068230  44.4278526  21.1527573  82.0863152   5.9391433
  20.4041039  82.5744629   6.2818754  21.9141232  82.6118183   6.1848933
  15.1950775  54.2902184   0.8046581  14.8641526  53.6827374   0.1430768
  15.3929554  55.0901699   0.3176747  25.5410897  94.4907284  26.6008592
  25.6912457  93.6474514  26.1735725  26.1738144  95.0819397  26.1929893
  25.4230057  64.4038630  53.0417109  24.5850121  63.9665604  52.8908300
  25.9584557  63.7480068  53.4882259  72.6121902  65.5926800  23.2312918
  72.0837164  66.3702631  23.4110284  73.3490562  65.9181595  22.7142572
  91.1531925  64.9235964  15.0439668  90.4481316  65.5374670  14.8383248
  91.1928558  64.3414831  14.2851496  94.2194080  86.7732906   8.6450917
  94.9290466  87.4156475   8.6495340  94.6489716  85.9432602   8.4382969
 108.7778664  74.3996477  51.0766172 108.7536430  73.7812281  51.8068266
 108.0781937  75.0240993  51.2682962 106.8786812  94.9159622  60.9845209
 106.7602730  94.5090008  61.8427706 106.1723518  95.5592346  60.9249783
  89.2996765  24.9159119  75.1571565  89.3241287  25.8722517  75.1247887
  88.5911919  24.7150013  75.7686417  28.6350380  80.4982758  18.8374496
  28.6046158  80.2072430  17.9260743  28.0649697  81.2668037  18.8626170
  26.5041936  18.9614460  69.1286437  26.5820134  19.5397493  68.3698695
  27.2209942  19.2253944  69.7054880  98.9801502  70.0250196  60.4458714
  99.0408516  69.0832615  60.2857256  98.8628292  70.4086828  59.5768118
  17.6464020  59.6206760  39.2409444  18.2189690  59.5244551  38.4799314
  18.2430016  59.6341705  39.9893570   3.7265431  37.6437068  19.0629816
   4.5379769  37.5780225  19.5664597   3.8222157  36.9920540  18.3684123
  76.7321873  69.0190268  44.3659163  77.6662970  68.9787626  44.1608524
  76.7003489  69.1434097  45.3144693  14.9351250  67.9822493   2.7535102
  14.5695244  68.7580204   3.1786588  15.8354317  67.9347610   3.0751130
 104.3966961  68.8560772  38.0898428 104.8563480  68.2798672  38.7005305
 104.0252686  68.2642698  37.4355984  21.0658680  90.3943062   6.2544709
  21.4457165  89.6070671   6.6445893  21.3396965  90.3633976   5.3377956
  87.0024300  55.0389433  17.8697002  87.4171925  55.0487232  17.0070839
  87.5287247  54.4247532  18.3815694 100.0533390  57.4163628  48.1012630
  99.6749210  57.8440094  47.3330498 100.3064728  56.5469360  47.7910233
  18.5436283  80.1340294  78.6103773  18.9713703  79.9698067  79.4507933
  17.7826248  80.6715202  78.8299322  53.7112118  18.4484884  65.0410192
  52.7953316  18.4651920  64.7633235  53.7953259  17.6361820  65.5403297
  77.0732212  80.5667686  31.1423230  77.7231455  80.9729767  31.7157578
  76.4468861  81.2664223  30.9567833 106.9242573  86.6520786   2.6721719
 106.8090820  85.7287884   2.8968886 106.9479275  87.1028709   3.5162449
 101.1420059  39.0494609  38.5752559 101.2311554  39.1549659  37.6280737
 100.3716564  39.5700622  38.8027787  71.0324653  22.0598356  10.2815397
  70.1774486  22.2697393   9.9058874  70.9915909  22.4003974  11.1751707
  70.7422352  73.1594896  50.0124454  69.9629354  73.7095070  50.0925064
  70.6220436  72.4763536  50.6720734  54.2881832  14.2869962  18.4692526
  53.6717568  14.7002996  17.8647470  54.6421490  13.5444177  17.9798496
  32.3096428  10.7253087  38.9763093  33.1244621  10.2814592  39.2114592
  32.4678764  11.6450513  39.1890740  73.8348747  11.6875097  79.0262275
  74.6149327  12.1188852  79.3750088  73.3168961  12.3982355  78.6483447
  12.2995125  35.5782795   5.2340180  13.0593430  35.0677371   5.5137122
  12.0212876  36.0449791   6.0220641  49.5831524  41.9070292  19.8882532
  49.7951542  42.6861906  19.3742561  50.3118550  41.8199062  20.5027723
 100.6839180  95.6253719  35.6156993 101.1737156  94.9324226  35.1728106
 100.1851845  95.1701164  36.2941027  89.6261024  63.2438087  10.2468896
  89.0532780  62.8804541  10.9222209  89.8741055  62.4897146   9.7120345
 108.8009809  12.0631326  42.2227669 108.1291317  12.6748670  41.9217300
 109.5789121  12.6058877  42.3511076  85.7229710  42.8979301  15.8979690
  85.4372597  42.0130587  15.6708050  85.8969307  42.8594112  16.8384409
  88.2466030  84.1104507  29.2457008  87.4193192  84.0848446  29.7265005
  88.0090714  83.8789082  28.3478165  82.1017265  60.8939362  28.0402970
  82.2612000  60.4648066  28.8809204  81.6136074  61.6861868  28.2646060
 103.5429192  96.5392113  20.9606552 104.1790199  95.8244324  20.9870076
 103.8954258  97.1958160  21.5613508  88.0267334  69.5745754  13.8989151
  87.4100876  68.9553642  13.5083294  87.4723053  70.2262068  14.3281257
  54.3000485  42.9839060  83.3361434  53.9960648  43.6152861  83.9882116
  54.8145844  43.5050699  82.7198057  94.4072437  78.6202002  31.6663980
  93.4696960  78.7564516  31.8030643  94.7531128  78.4405947  32.5406671
  82.7686119  74.8688793  20.2633691  83.0306053  74.7771549  21.1794353
  83.5846901  74.7809696  19.7709048  24.8529873   4.3923868   1.8911149
  25.4172478   4.1506589   1.1566655  23.9722405   4.4206155   1.5173237
   9.8361527  68.6399698  29.6039724   9.9368511  68.9341164  28.6986732
   8.9067208  68.4256268  29.6841931  82.0603943  55.1454210  32.8900719
  81.6622353  55.6093311  32.1535301  82.5261784  54.4123125  32.4877977
  96.6169453  41.5034246  43.8493919  96.9820309  42.2383881  44.3421125
  97.3668194  41.1288404  43.3872128  52.6544819   2.3022283   7.4139297
  52.2709332   1.4363874   7.2744483  52.2285805   2.6279462   8.2068622
 108.8959122 103.0641842  21.4221311 108.2346725 103.5775661  20.9579825
 108.4261036 102.2877979  21.7266488  95.6629086  85.7677269  37.2503448
  95.9773350  86.6688442  37.1772289  95.9150219  85.4969597  38.1331563
   8.4789215 102.2373772  46.1596346   9.1773640 102.0989990  46.7993736
   7.8257405 102.7580738  46.6270256  91.3760471  78.4946299  35.8927727
  91.2211132  79.2790842  35.3666043  90.7135105  77.8714705  35.5945253
  55.1340447   8.6901964  52.2442532  55.0135479   8.9593519  53.1548977
  55.2796135   7.7452863  52.2910357  19.1175972  77.4997902  10.9244955
  19.4334923  76.7210197  11.3827109  19.4076954  77.3797989  10.0202394
  79.2273569  89.3696308  70.9892368  78.7739182  90.2101803  70.9251070
  79.0299988  89.0577984  71.8724394 101.1471367  52.6100636  12.7507079
 100.7491112  51.9884253  12.1412992 101.3183117  53.3886671  12.2208869
 105.4753017  94.8251629  17.6571751 105.3085899  95.7204247  17.9520333
 105.9084797  94.9287987  16.8099117  24.4535503   0.4414762  45.4076624
  25.3781281   0.6891931  45.4021215  23.9852486   1.2602437  45.2446938
  95.3889656  83.7804317  48.3806896  96.2345695  83.3366871  48.3152199
  95.0237751  83.7314987  47.4972439   6.9056736  80.3490353  39.2127514
   6.1137616  80.5525017  39.7104645   6.5866123  79.9123240  38.4229946
  99.9124600  56.6022322  88.3005450  99.9274613  55.7245562  87.9188414
 100.4145790  56.5194437  89.1112594  78.1760550  57.3679018  34.4370723
  78.7094069  56.6108370  34.6791768  77.8650284  57.1691799  33.5538936
  68.5844040  86.5831184  33.9438677  69.1866112  85.9164143  34.2741323
  68.9064550  86.7824173  33.0647802 100.0394630  80.2544117   5.3924698
 100.5382824  79.4483423   5.5253392  99.5602798  80.3773689   6.2119180
  94.0125465  44.5181799  12.2385168  93.7401772  44.3341017  13.1374943
  94.5918941  45.2763700  12.3142707   8.5173546  50.6212950  30.6354070
   9.0872132  49.8624420  30.7604098   9.0983616  51.3757467  30.7327223
  36.1826073  59.9252272  30.0361371  35.5759751  59.1964293  29.9054360
  36.8851601  59.7681475  29.4052815  51.0687042  33.6524317  84.5406892
  50.1682163  33.7837813  84.2438613  51.3646580  32.8730604  84.0703498
 106.3558769  90.0261211  33.9616156 107.0862675  89.4905567  34.2713523
 105.9994984  89.5386505  33.2189178  21.2554585  69.5713520  35.8771873
  21.2382065  70.5073118  35.6774044  21.4148461  69.1491556  35.0330424
  87.6835918 102.5060940   3.3199897  88.2139492 102.4447823   4.1144717
  86.9251156 101.9489574   3.4947541  47.3744068   4.2726243  32.4997711
  48.1619988   3.7288965  32.5168371  46.7586861   3.8205064  33.0765820
  29.8925362  18.6426176  48.3745432  29.6215782  18.7366975  47.4613285
  30.8383617  18.5022653  48.3304977 103.1806278  98.1213665  33.2501888
 102.6954556  98.8962746  32.9667234 102.7743721  97.3970413  32.7742219
  30.4658470   3.9570726  35.4134274  30.7976494   4.0136732  34.5173621
  31.0055504   4.5737279  35.9080815  79.8165464  91.7902946  33.6235070
  80.6810951  91.7694187  33.2132030  79.2193747  91.4876652  32.9393768
 100.5363178  68.4182549   9.2494172  99.7155857  68.6916018   8.8396466
 100.4991150  67.4617863   9.2453903  16.0983979  84.8459053  37.5808072
  16.2656914  85.3456593  36.7817545  16.9319855  84.4168663  37.7739167
  94.8560715  48.2923460  42.9355001  93.9273262  48.1067038  42.7968931
  94.8689556  48.9297962  43.6494493 103.6342335  49.3716288  37.5696659
 103.5120296  50.3157854  37.4703455 104.5098972  49.2054319  37.2206330
  93.1821156  64.0364075  20.1767111  93.0408859  64.4181299  19.3103516
  92.7900696  63.1649399  20.1212716  88.2949162  68.5016680  26.3422203
  88.3796883  69.4550753  26.3497496  89.1773224  68.1842566  26.1503005
  93.7871338  23.7658903  86.7369580  94.3879486  23.5899565  87.4610475
  93.0208565  23.2237742  86.9244433  59.2110310  10.1884473  50.9643364
  58.5019455  10.5697740  50.4466248  60.0002918  10.3553880  50.4491329
  98.2596874  57.9832935  61.5257454  97.6471233  57.7282476  60.8358574
  98.4813595  58.8925934  61.3250780  25.7557808  78.8303852  21.8979526
  25.5949627  78.7077570  22.8335452  26.2320744  79.6588802  21.8433666
  90.4241085  89.0100765  34.0145373  90.7223892  88.7514591  34.8865342
  90.3016472  89.9575138  34.0745091 100.2727890  91.1560249  49.5086575
 101.0036945  91.1544800  48.8905811  99.5592499  91.5832043  49.0347290
  12.8419243  67.9647446  30.1473951  11.9179188  67.7154732  30.1651931
  13.3119522  67.1569014  30.3540111   7.5212227  61.7470360  28.4691501
   7.6399933  62.2527933  29.2730999   8.1405770  61.0215902  28.5488439
  68.5285164  39.5110819  80.0857680  68.2968689  38.6063788  79.8758070
  67.8554417  40.0370714  79.6538727  63.3346901   2.3086942  10.0126207
  63.7078247   2.3120893   9.1311502  63.8087998   2.9990972  10.4760647
  13.9426575  17.2962392  88.3121204  14.6582756  17.0539106  88.8998318
  14.3307648  17.2674955  87.4376106  35.1117764   7.6138128  62.9441166
  34.4921646   8.2739366  62.6334000  34.6356354   7.1408285  63.6266136
  74.7769880  73.1458664   9.1284037  75.6083107  72.7244520   8.9103568
  74.8891783  74.0549660   8.8505805   6.9328915  95.5370998   2.9869539
   7.2524487  95.4705143   2.0871276   5.9940754  95.7002544   2.8962669
  55.9850193  15.5282280  85.4024737  55.3729702  14.8625300  85.0886624
  55.4315258  16.2771103  85.6239472  90.2650547  70.2029181  40.5554771
  90.2942467  70.3676653  39.6130157  89.8927021  69.3245840  40.6336689
  88.3472157  63.8732195  22.1604776  87.4585152  64.1194057  22.4170375
  88.2522583  63.0032158  21.7727780  10.2907120  62.0533466  37.9885817
  10.0647007  61.2759256  38.4992409  10.2248894  61.7686462  37.0770741
  75.5938292  78.9467716  24.9873924  75.4946661  78.0204582  24.7675252
  76.0512257  79.3237114  24.2357683  31.3867127 101.9195366  48.6143208
  31.1830460 101.9649220  47.6801395  31.2507473 102.8119278  48.9327288
  60.1480627  74.7414541  33.8217115  60.1444483  75.5076408  33.2479715
  59.6467257  75.0150681  34.5898461  16.7236840  46.3700342  44.4763899
  17.4343430  46.6788912  45.0383615  15.9491097  46.3872147  45.0385046
 105.3419495  81.2120056  83.3775330 106.1593151  80.7217216  83.2894421
 105.3998566  81.8960094  82.7104378  82.0696354  89.1719627  58.8836145
  81.8591213  88.2671356  58.6529636  82.3405075  89.1285419  59.8006678
 105.9300709  88.0332470  49.3277073 106.5866566  87.6868629  48.7234354
 106.2220860  88.9258480  49.5127392  11.8042812   3.8388074  27.0428824
  12.5262413   3.3034910  26.7135978  11.1191425   3.7506307  26.3802814
   6.4114891  69.5105743  25.8271670   6.2413441  70.4459858  25.9380484
   7.2301804  69.4730186  25.3326440  94.2925621  48.4824106  75.8309035
  94.2779518  48.9806673  75.0137393  93.8521839  49.0487024  76.4646284
  23.1116139  70.8827543  14.8032260  23.0628811  71.3654709  13.9780962
  22.2469937  70.4832554  14.8984313  11.7401825  75.4916477  25.7401037
  11.2071739  75.9065914  26.4182997  12.4304329  75.0368834  26.2227869
  75.6766367  93.1536484  38.1827354  76.5885115  92.8758144  38.2694936
  75.6711197  93.7197113  37.4108696   4.3933808  50.7267427  56.4473677
   4.5468079  51.6689062  56.5181684   3.4622704  50.6203938  56.6421843
   7.4931847  52.7100706  26.2060928   7.5621640  53.2062292  25.3904343
   6.8386875  53.1833982  26.7197323  15.1314389  80.5243015  39.3002725
  14.4853245  80.9842682  38.7643480  15.0911747  80.9607887  40.1512098
  39.1051899  71.8136168  10.6439579  39.8243462  72.1581650  10.1144969
  39.5188652  71.1718512  11.2212253 100.0854874  58.8907290   9.7594845
 100.9878254  58.9851522  10.0646341  99.5504570  59.1178703  10.5199969
  20.9952103  75.5755949  67.8983259  20.0489365  75.6079197  68.0388594
  21.3047634  76.4453220  68.1512785  83.1919861  63.5987520  53.2890511
  83.5909367  64.1218090  52.5937271  83.9090824  63.0618858  53.6263561
  34.7415577  88.5268879  54.9821758  34.9009930  88.8589287  54.0986824
  33.9805828  87.9537773  54.8889542  66.9906880  32.0104906  73.8253407
  66.3364865  32.2740004  73.1781809  66.5406777  32.0890543  74.6664982
 104.2335701  81.9770813  60.9390068 104.0735531  82.5411415  61.6956139
 103.6152649  82.2844315  60.2760887  48.9681778   4.3695367  41.3634968
  48.1634865   4.2167390  41.8588352  49.2436943   3.4979928  41.0793829
 103.9723778  74.8053074  48.3672285 103.7818718  74.4966125  49.2530298
 104.6128368  75.5059433  48.4903193  88.3131886  58.1367064  32.9350615
  88.7961006  57.9280090  33.7347293  88.9821434  58.4493256  32.3259735
  85.0900745  74.2463350  18.8424456  85.7168674  73.8454199  18.2402563
  84.2885208  74.3385983  18.3274364  73.5353661  73.5513735  21.1564612
  73.4482479  73.7219810  22.0942974  74.4730091  73.4110832  21.0246277
  77.5525999  66.8739843  21.2340474  78.2635117  67.4080324  21.5884829
  77.7925205  65.9753227  21.4600515  45.0800037   1.2666088  36.9690537
  44.4890785   0.6371965  37.3824310  45.9355688   1.0821580  37.3566365
  58.6529493  31.7090631  34.2934394  58.5464716  32.4369478  33.6810017
  57.7980709  31.2786150  34.3048191  75.5740690  20.1654267   3.6209160
  76.0173559  19.6069443   2.9823023  76.2839985  20.5624104   4.1255289
  32.5133419  66.5507126   5.7661307  31.6435170  66.2570190   6.0370207
  33.0435157  65.7537937   5.7581812   5.2159573 100.2955606  23.1284666
   4.8265101 100.8627059  23.7939835   4.5664717  99.6058558  22.9916787
  49.3085861  12.6989532   2.0597431  48.3696508  12.8849173   2.0532383
  49.3655729  11.7499673   1.9483374  88.4585571   1.9950767  29.2865658
  87.8463173   2.3978689  28.6708117  87.9147720   1.7372060  30.0308943
  11.5667298  95.1077803  86.7848839  11.2036088  95.9154185  86.4214398
  12.4570229  95.0670489  86.4356606  48.8155174  13.3152199  21.6786242
  49.7440147  13.1056225  21.7796063  48.7001324  14.1319025  22.1643710
  87.8209209  48.3564281   1.5742353  88.7616348  48.2651234   1.4226781
  87.7544022  48.7088442   2.4617094  56.8740702  16.9383955  20.9527087
  56.9063330  16.9223142  19.9961889  55.9608746  16.7452478  21.1648369
  69.2138401  75.7159384  75.2590196  69.4498006  74.9683794  74.7097354
  69.5543877  76.4763435  74.7878055  65.8922958  10.3795612  16.9074893
  66.1791849   9.8529667  17.6535630  64.9370813  10.3817058  16.9690216
 106.3886133  45.3068628  81.1751406 106.8266407  45.7929715  81.8737541
 106.3901917  45.9063032  80.4288833  83.5042572  43.2168531  10.2146578
  82.6377201  43.0765724   9.8329866  84.1147614  42.9703188   9.5198691
  63.0271006   3.7018880   5.8932173  63.2461882   4.6308625   5.9655970
  63.1399822   3.3593932   6.7798889  88.2381821  48.7841749  34.1016912
  89.0967941  48.9443493  34.4933105  88.3122730  47.9140520  33.7097359
  25.0971460  46.2567520   9.4608361  25.5811620  45.4526138   9.2728895
  25.7540894  46.8534613   9.8194391  15.0708630  68.8537785  76.3792174
  15.4013588  68.0245312  76.0337357  15.7230618  69.5014711  76.1120860
  76.5830088   3.0024329  10.5422401  77.1058130   2.2105117  10.4166615
  77.0083761   3.6600170   9.9918962  82.3950672   5.6674182  23.3553958
  82.5998306   6.5674800  23.1020331  82.0091343   5.2794331  22.5700593
  56.9920206   0.7034952  41.1975718  56.9659567   1.3372405  41.9144535
  57.1851492  -0.1318173  41.6232347  47.2110605  24.6191549   4.9161628
  46.3432455  25.0051045   5.0351894  47.4934387  24.3872285   5.8008689
  14.7026230  79.6402084   9.9979359  15.2610756  79.8581301   9.2516947
  15.1728178  79.9841200  10.7574570  84.9859428   2.5080663  15.4836988
  85.2634811   2.6987547  16.3797140  84.4252014   1.7366570  15.5656922
   7.4974301  73.2585128  88.0593252   8.2208683  72.6753434  88.2890550
   7.3126843  73.7401065  88.8656566  14.9550188  48.7098408  12.0518064
  15.0967443  49.4494772  11.4609754  14.6156263  48.0146360  11.4881265
  94.4331995  45.2204915  86.9375883  93.6405102  45.0160845  86.4415129
  94.2086331  46.0072448  87.4343991  78.9293003  26.9411588   6.8807524
  77.9895306  27.0674658   7.0115590  78.9887714  26.3221049   6.1531067
  13.7517407  59.5697405  72.2316246  14.2089417  60.1513388  71.6242211
  14.4105484  59.3431779  72.8880303  51.4263725  22.6750183  19.3143415
  50.8313656  22.9475737  20.0128484  51.7775154  21.8359947  19.6126235
  87.9329967  15.3202140  25.2896452  87.4094772  15.9129345  24.7503448
  87.5464630  15.3864992  26.1628199  48.3612251   6.0080528  72.9157209
  49.1960001   6.0200274  73.3839512  48.2351017   6.9121760  72.6278210
  34.2691016  33.9451003   6.3972437  34.4980407  34.6696854   5.8151811
  33.4787512  33.5679722   6.0107845  12.5996329  73.1788312  20.9087658
  12.7146555  73.1944763  21.8588996  12.2833372  74.0557038  20.6913209
  17.7069366  28.9727259   7.7263182  17.8545523  28.1747556   8.2339424
  18.1489456  28.8115144   6.8927288 106.9210259  65.7992252  62.1182172
 107.6928440  65.8340188  61.5531342 106.9235340  64.9100503  62.4726097
  21.7705870   6.3016313  36.1680889  21.5449476   5.3894639  35.9856868
  21.2569261   6.5248054  36.9443464  82.6568413  10.0244796  32.9626298
  82.4215889  10.8105814  32.4697471  82.2303486   9.3092573  32.4906230
  50.1300287  10.1037812  36.7454791  50.3217459  10.3592145  37.6478243
  50.8498144   9.5210695  36.5034294  45.9217427  24.2712434  83.3867543
  46.6188005  24.9131139  83.2513140  46.2974331  23.4430584  83.0880962
  47.9416895  36.1963344   0.4759837  47.4627686  35.3864908   0.6521188
  47.5672340  36.8332314   1.0845695 100.7114220  41.1934328  23.8744044
 100.7859516  42.1130610  23.6195326 101.5694714  40.9754610  24.2383575
 105.3613011  75.8329686  63.1548827 105.0473419  76.3198670  62.3929160
 104.6898523  75.1680764  63.3075540  51.8405485  17.5255811  19.3053627
  51.6241026  18.4561443  19.3639708  51.0217285  17.0756483  19.5135093
   1.6976525  94.3642419   9.3490416   1.2184049  94.2059957   8.5357076
   2.6063181  94.4827681   9.0724373  94.9693791  95.8116063  74.6743243
  94.5356861  95.2879199  75.3480415  94.8573939  96.7165764  74.9653880
  66.0147190   5.8092368  24.8239470  65.7172775   5.2537602  24.1033888
  66.7397547   5.3235602  25.2172351  84.7692108  18.0486500   2.3264115
  84.3152142  17.2835612   2.6796186  85.2416420  18.4134305   3.0747288
  58.5230207   1.9775504  14.6301544  58.1103086   1.2008490  14.2524815
  58.2660151   2.6924449  14.0478265 100.3576723  82.4412759  87.3901810
 100.8314530  82.4875816  88.2206135 100.2196661  83.3553489  87.1418731
  21.5497328  89.6567797   0.8576898  22.3529888  90.1418387   0.6686773
  21.6089464  88.8731348   0.3112223  46.4927340  17.5762820   9.0156323
  45.7901049  16.9675148   9.2435563  46.0396194  18.3532536   8.6881661
  12.7680600  38.3415008  41.9280481  13.0213153  38.0490565  41.0525084
  13.5796034  38.3113217  42.4347210  75.6971685  92.1627101  87.4329938
  75.6848375  93.0803879  87.7049303  74.8106376  91.9958171  87.1129345
  85.9053421  48.5381699  22.4125719  85.3203487  48.9365339  21.7681122
  85.7668781  49.0492964  23.2099462  89.3812752  24.2044067  44.8912382
  88.5616016  24.6738768  45.0460386  89.5030689  23.6699772  45.6759596
  89.5243454  30.7397938  43.2245970  88.8015079  31.1740851  43.6775112
  90.2991867  30.9641838  43.7398624  35.0696017  89.2236303  14.7380602
  35.9813095  89.4958364  14.6335542  35.0684239  88.6905598  15.5330861
  24.1926647 101.9570357  44.1054249  23.9515282 101.9268380  45.0312614
  25.1497914 101.9685954  44.1074657  58.2219839  41.3181305  29.8065042
  57.3711205  40.9647608  29.5469022  58.1118727  41.5556526  30.7272053
  16.0547402  66.4322647  75.7369130  16.9277337  66.1208972  75.4977970
  15.4703953  66.0176691  75.1021843  40.8029461  13.2903755  26.6612792
  41.2682056  12.8050327  27.3426056  40.0558519  13.6818695  27.1138430
  72.3580885  28.0794287  11.3469517  72.2723055  28.6570978  12.1053517
  73.0620766  27.4757719  11.5840888  50.5061913  26.9812870  10.7229042
  50.7781219  27.8581357  10.4519379  50.4656363  27.0275879  11.6781235
  78.6865664  32.9194450   6.1954188  78.6164331  32.0618105   5.7761580
  78.9176083  33.5159612   5.4833657  28.2572079  26.8075776  19.4949770
  28.4186029  27.2068858  18.6401463  28.5918880  27.4461293  20.1246381
 104.4856516  76.4488014  79.3061625 105.1407400  76.4153155  78.6090510
 103.6549297  76.2773164  78.8626234  93.4403133  36.8030238   8.3455056
  93.5879040  37.3081017   7.5459146  93.8535213  35.9568143   8.1739748
  67.2642040  29.9193764  37.1322608  67.5082159  30.5596423  36.4638686
  67.2380447  29.0840697  36.6655612  63.0826187   2.0266947  25.2177739
  62.7902269   1.5712209  24.4282913  63.5357904   1.3552508  25.7277060
  13.5429337  31.6960367  55.4323785  13.8938382  30.9693798  55.9472244
  13.2493355  31.2914141  54.6160977  53.8720703  19.9138224  25.4176760
  52.9274178  19.9701691  25.2738452  54.1314125  19.0983069  24.9888325
  76.4246908  57.6828059  86.2131371  77.3002831  57.4914791  86.5492369
  76.5785662  58.0770942  85.3545974  64.3520403   8.0682695  14.2901206
  64.0099335   8.6186266  14.9946070  65.2287626   7.8206742  14.5838666
  46.5908432  39.1904044  28.9664483  46.9960594  38.3234406  28.9462447
  45.9547520  39.1742039  28.2513547   5.0478722  97.5176727  17.0884907
   5.3493239  98.1918525  16.4795244   5.7724119  96.8937277  17.1328652
  93.0870024  61.5855309  87.2660791  93.3545557  60.6951126  87.0384774
  93.1492726  62.0718559  86.4439829   2.6468327  64.1761919  80.3705679
   3.4617903  63.6747988  80.3444700   2.7645257  64.7868630  81.0982089
  83.6724281  15.3300452  74.4586086  83.6054897  14.4302619  74.1390133
  83.1000137  15.3550696  75.2253866  60.4042196  53.5288763  38.5994601
  61.1719608  53.6222029  38.0354619  59.7091627  53.2341099  38.0110335
 103.4073893  31.6945048  79.9199896 103.6187283  31.2347611  80.7325183
 102.4510494  31.7334064  79.9085872  73.2467881  48.6949127  82.4052482
  72.8997103  49.0130924  81.5718632  72.5231520  48.2036569  82.7941571
  94.0069771   1.0734282   8.2208043  94.3552017   1.1026848   9.1119373
  93.0584240   1.1373720   8.3320957  43.3478571  85.9050309  24.9428368
  43.5106446  85.0871645  24.4729161  42.4807955  85.7894396  25.3315163
  60.1252413  50.9869480   1.6474362  61.0116863  50.8296680   1.9725676
  60.1839304  51.8242598   1.1873318  33.0313923  90.4637345  76.0758393
  33.5684826  90.5600079  76.8622832  32.6432087  89.5924672  76.1560862
  64.8787451   8.3374000  11.4926553  64.8316193   8.0868185  12.4152720
  63.9649343   8.4057343  11.2160504  18.7581685  77.2859725  86.1666088
  19.5074418  77.4213513  85.5865257  18.1618931  76.7323407  85.6624417
  90.4663944  28.6235929   5.9130561  90.0261784  27.8176212   6.1829686
  91.2953854  28.3289695   5.5359471  14.0109001  33.1490850  19.6410310
  14.5193230  33.3876824  20.4161453  14.5759522  32.5437164  19.1609573
  91.1314297  11.0741150  59.3004227  90.5468750  11.7892802  59.0492916
  90.7857704  10.3093660  58.8400841  67.2811842   1.1393255  16.7136490
  68.2382202   1.1214297  16.7135429  67.0567942   1.9473681  17.1751106
  59.1874933  11.4122486  14.1916156  58.6262894  10.8314252  13.6778831
  58.6264515  11.7190742  14.9038780  62.6520348  14.8328650  34.3637013
  61.8613005  15.2881312  34.6530151  63.3631611  15.2621436  34.8393607
  80.4616070  44.1170883  16.3637936  79.7268343  44.7291613  16.4051342
  80.2237701  43.5039854  15.6682611  81.8457603  10.6979394  13.3499467
  81.5756226  11.2771273  12.6373482  82.1118259  11.2908566  14.0527225
  26.6949869  71.1822855  16.4930356  26.5429522  71.0771143  15.5538559
  27.3901440  71.8377267  16.5512145  11.8407013  67.9138776  71.4484506
  12.1159317  68.4504720  70.7051175  11.0394814  67.4837276  71.1496882
  88.5524559  65.6630182  10.4059732  89.3288803  66.2205601  10.3555644
  88.8996506  64.7718811  10.4454625   9.0256249  26.5590978  38.2166672
   8.4060990  26.8036151  37.5291824   9.0644108  27.3261118  38.7879968
  88.4377876  35.1278003  79.2560779  88.4261004  34.1718050  79.3026380
  87.9932991  35.4119476  80.0547801  81.0745907  43.2011604   0.2917001
  81.8629456  43.4148836   0.7907355  80.4810143  42.8146505   0.9355301
  93.6804867  20.0709987  33.6632085  94.2902470  19.5464814  33.1442547
  94.0691376  20.9456253  33.6776352  93.9099503  28.1804585  24.7469473
  94.8407173  28.2912493  24.9409533  93.8879204  27.5377345  24.0379691
   4.2499482  31.3378453   3.9676964   4.8457085  31.8833566   4.4812363
   3.4418236  31.8482828   3.9165598  40.2816607  91.6329097  56.4183331
  39.7653748  92.0995831  57.0755243  39.9623753  90.7314371  56.4587927
  43.7156441  91.8167504  80.6702022  42.9853013  92.2440871  80.2227418
  43.6988308  90.9152087  80.3489946  94.3564892  25.4792666  18.5893619
  95.1315689  25.6962180  19.1074491  93.6948490  26.1104369  18.8723779
  97.4372101  16.9199610  38.5213447  97.0556164  17.5639367  39.1179299
  97.8928471  17.4441493  37.8626680   1.0686051   9.8929530  29.8888540
   1.0649716  10.1363587  28.9631271   0.9890496  10.7248712  30.3555608
  42.4882367  88.1838521  70.3502064  43.0416729  88.6906799  69.7560100
  42.9990437  87.3970803  70.5407219  51.8434788 101.7921311  37.2294641
  51.4752938 101.2363136  37.9162979  51.0839821 102.2224586  36.8367720
  15.4957367 102.3718042  28.1369185  14.9926020 101.5626835  28.2286334
  15.1975752 102.7466104  27.3081517   0.3347399  74.5140275  80.4864054
  -0.6161067  74.5712408  80.3923582   0.6792023  75.0009330  79.7377376
   9.4351723  65.8739420  77.8029184   9.5424607  65.9255513  76.8531506
   9.3928864  64.9358674  77.9885535  33.2039499  47.7948952  22.1986699
  33.1783152  47.1856880  21.4608073  33.2326341  47.2325134  22.9727077
  58.8181400  23.7224174  17.4315357  58.7730598  24.6591568  17.2399199
  59.7269964  23.5749340  17.6931834  41.9141006  24.0108037  30.6282401
  42.1632671  23.2353568  31.1310649  41.0189867  23.8319945  30.3400922
  52.4830770  55.5942392   0.8386865  51.7342520  55.7903528   1.4017427
  52.1058083  55.1298809   0.0915087  83.9238262  37.5141478  11.9711053
  84.6371269  37.7657747  11.3844955  83.2711029  37.1140051  11.3965893
  79.9587250  15.0204480  30.0759506  80.5071259  15.7966268  30.1900983
  79.0648031  15.3612685  30.0447059  73.2703114  15.2745032  14.4451475
  72.8786087  16.0920036  14.1377437  74.1864157  15.3308499  14.1734731
  85.8614231  95.0074374  52.1467495  86.0150696  94.5333265  52.9639626
  84.9125839  95.1297580  52.1155739  98.5750023  80.4715594  85.3863113
  98.3733383  80.5419000  86.3193791  99.5306984  80.5052670  85.3446193
  97.5719181  41.7851403  58.7615173  97.3790470  42.0766731  59.6526067
  98.1397740  41.0231932  58.8764279  77.9305553  29.0435052  27.4517965
  77.8190136  28.2006550  27.0120287  78.8773346  29.1338205  27.5598812
  43.4629345   5.1761001  25.6175780  43.9193821   5.9706551  25.3408599
  43.2297421   4.7367114  24.7997832   5.2342449  14.5896018  22.4258256
   5.6119381  14.2494714  21.6147208   5.4558312  13.9336169  23.0867457
  89.7959423  16.5498924  17.7980113  90.3987598  15.8108854  17.7161074
  89.5424461  16.7531276  16.8976402  44.5483732  37.7296138   5.8705908
  44.4011116  37.3960543   6.7556250  43.6710787  37.9141092   5.5351108
  40.4325581  54.7462702  34.1689110  40.8782721  54.6670389  35.0122929
  39.6379495  54.2218018  34.2677426  26.0311558  84.5660552  80.7324611
  26.1599209  84.1246446  81.5719889  25.0807145  84.6058067  80.6260561
  66.9460440  37.1617198  12.4620354  67.0980453  36.2937617  12.0881701
  67.2372103  37.0854592  13.3706820 104.5294285  62.0442724  23.8240528
 104.9305820  62.1222353  24.6896338 104.9131489  61.2497663  23.4529114
  76.6952085   5.4233986  61.4354658  76.5045166   5.7935458  60.5735731
  77.4836540   4.8975164  61.3011742  90.5017757  31.2934279   3.2344288
  89.5730114  31.5042758   3.1387329  90.7467461  30.9041786   2.3949617
  75.9000984  88.3873137  72.3363166  76.6460100  88.6197742  72.8893189
  75.3520075  87.8345832  72.8933744  62.5089527  98.8505088  26.2203741
  61.5946461  98.7584808  26.4883375  62.7876927  97.9593288  26.0098124
  34.5772053  74.0051233   6.1893350  34.8816324  74.1132318   5.2882969
  34.6101643  74.8867380   6.5606880  71.9285440  10.0301874   5.5500072
  71.7287111  10.1751888   6.4748180  71.8688297  10.8991086   5.1529664
  33.9730358  26.0695124  41.2056398  33.1002140  25.9597063  40.8283424
  33.8434100  25.9535265  42.1469021  77.1659851  27.0553708  12.1037185
  76.6674662  27.7698731  11.7072415  77.6593208  27.4710989  12.8108418
  89.0107981  65.5024036  71.8287389  88.2907835  65.1479312  72.3504286
  89.0281502  66.4343508  72.0464628  69.8452282   9.5408654  59.8284245
  69.8600626  10.4676294  59.5894241  69.2288828   9.4917935  60.5591345
   5.3829705   8.8660330  11.9616342   4.7738777   9.4334215  12.4341881
   4.9420201   8.0171359  11.9273889   1.7926266  67.6804074  75.1179557
   1.5926602  67.9102644  76.0253768   1.8378308  68.5210022  74.6623378
  87.0412699  74.2946943  85.5944525  87.4969736  73.5040315  85.3056343
  86.4438215  74.5027121  84.8761098  49.8193073  21.5722013  36.3250971
  49.4006968  20.9731436  35.7069302  49.3745661  21.4076734  37.1565819
  93.0151001  59.8394390  65.0764792  92.5906006  59.7072061  64.2288082
  92.5135103  60.5429872  65.4883759  48.8218666 101.1627476  30.6146049
  49.2015816 101.9280696  31.0462618  48.2250763 100.7924677  31.2649679
  81.9570732  31.3558245  32.5342202  81.0789299  31.4093757  32.1570826
  81.9098854  31.8890858  33.3277154  47.6218748  62.0392275   8.0576527
  48.2478571  61.5066147   8.5482657  47.8781700  62.9424715   8.2439142
  72.2682524   7.1022230   5.6605339  72.1410799   7.9872531   5.3188026
  72.9822779   6.7425483   5.1341903  95.3738403  29.1145015   6.4915264
  96.0416698  28.6754036   7.0182431  95.5571461  30.0475097   6.6016489
  75.3723503  86.7804240   3.0530751  76.2844635  86.9857334   2.8478092
  75.4029633  85.8984982   3.4238851  74.4594336   4.6745884  10.8098018
  75.1643372   4.0951729  10.5206275  74.1719484   5.1186496  10.0120604
   6.8216708  55.3347164  81.9781070   5.9359219  55.0773069  81.7223428
   7.0220664  56.0879137  81.4224391  33.6814905  96.4386593   3.2824594
  33.6788584  97.3952573   3.2486215  32.8035332  96.1864625   2.9964116
  86.6929022  45.0664636  84.5212440  87.5909153  44.7894146  84.7030379
  86.2965504  45.1763924  85.3855638  93.1418133  31.1716652  14.9870908
  93.1716347  30.3216124  15.4261279  93.5736179  31.7709494  15.5958867
  99.7157860  32.2667122  15.0249732  99.9125099  31.6580725  14.3128705
  99.0491676  32.8508329  14.6635127  81.1615658  48.9726448   8.5656518
  81.3945103  48.6225128   9.4255233  81.1583042  48.2087469   7.9888642
  32.8599980  98.8515004  86.1294584  32.9290249  98.8857659  87.0835512
  32.2432950  99.5494803  85.9087162  43.5402371 101.4511851  20.2309799
  42.8764654 100.8035714  20.4681253  43.2581259 101.7820860  19.3782496
   9.0438225  62.2427138  75.3226678   8.6449578  62.3999187  74.4668476
   8.5761120  62.8300294  75.9164159  83.3021927  30.7957602  21.8546915
  84.2361259  30.8399487  22.0597434  83.0324459  29.9269652  22.1524501
  92.9688835  27.9902411   4.3338394  93.8724709  28.3046842   4.3638840
  92.9062271  27.3716640   5.0616229  81.6006533  40.1645526  81.4220338
  81.7556397  39.7411915  80.5776547  81.2091271  39.4802006  81.9648074
  71.2536001  17.3966098  10.6293237  70.7950497  17.3455560   9.7906601
  72.0179892  17.9445839  10.4513896  95.6749264  93.0104931  65.8376257
  94.8681275  92.6628073  65.4575961  95.4772345  93.1108197  66.7688005
  76.2176323  56.3160419  29.2782378  76.9231367  56.6031408  28.6985278
  76.0045576  55.4328203  28.9769888  11.6035321  74.4573315  88.8252671
  12.4159005  74.8076471  89.1907236  11.6611626  74.6463140  87.8886794
  57.3226547  34.4512200  35.4263544  56.7629766  33.8652205  35.9358597
  57.1893883  35.3129745  35.8211327 101.8745327  11.3375044  42.5082111
 102.1669197  12.2446764  42.5964355 102.5192070  10.8291435  43.0003452
  69.8424911  28.6898971  24.2407584  69.2778921  28.8499427  24.9969625
  70.4046535  29.4631934  24.1936469  40.0315049  38.2025226  80.8496373
  40.1052811  39.1428836  80.6868135  40.8486798  37.9710480  81.2910824
  94.9287128  68.6658764  11.3843989  95.0558472  69.5934677  11.5834856
  94.7334862  68.6465549  10.4475176  84.0428257   6.1347932  28.7955260
  83.5673428   6.0092568  27.9743147  83.6357689   5.5186802  29.4045734
  26.3972317  35.9095168   6.2849581  26.0555970  35.1743102   5.7760495
  26.6642891  36.5521646   5.6277561  59.7121954  26.0472131  16.5796673
  60.4877329  26.4374423  16.1765659  59.1653156  25.7825160  15.8400106
  18.2478167  96.9623773  14.4035971  18.2695557  96.4821552  13.5758626
  17.3160006  97.0855027  14.5846677  71.8813086  23.3497500  32.2721767
  72.1209288  23.2862830  33.1967235  72.1487856  22.5106192  31.8972778
  72.4674416   3.4424087  25.5309033  73.0723143   2.7767760  25.2033448
  72.1829748   3.1094807  26.3820601  84.2126671  96.4765795  71.8914430
  83.6855332  96.7287310  71.1332993  84.1239468  97.2104128  72.4995940
  77.5549332  88.1525715  57.4679558  77.2121874  88.5304245  58.2778852
  76.8304888  87.6317652  57.1212928   1.1190703  77.2069915  75.0271182
   1.4474871  78.0330571  74.6721690   1.9063809  76.7261156  75.2823357
  80.2635002  50.5075979  24.4124746  80.5155849  49.6100521  24.1954660
  81.0778046  51.0068321  24.3500471  11.2062775  27.8805733  42.0850754
  12.0280205  28.1927514  41.7062330  10.6304966  27.7479243  41.3320065
 107.8423372  30.2648243  77.2537796 107.8403488  30.8634409  76.5068619
 107.2230164  30.6518539  77.8725533  69.5356417   8.6096042  27.5732207
  70.1433325   7.9418737  27.8911543  68.8332558   8.6232787  28.2233715
  31.4031174 100.8338507  81.0641687  30.4938748 100.7283314  81.3441168
  31.3422062 101.0895880  80.1437782  93.5875130  32.4363256  22.2017145
  93.8385201  32.8715920  21.3869929  93.1612492  33.1208134  22.7174735
  32.5293019  59.9280258  87.3176541  32.6520588  59.4415673  88.1328347
  32.6665547  59.2784639  86.6281180  50.2785826  18.9669180  27.4376154
  49.5952559  19.3436861  27.9920030  50.6564760  18.2647157  27.9670858
  57.1203995  13.4588027  30.9986401  57.5795031  13.3430064  31.8305349
  57.5653267  12.8641760  30.3947401  82.5865650  10.5252111   0.3911732
  83.3493614  10.1588666  -0.0562149  82.6387024  10.1740134   1.2800905
  84.4092083  36.7291021  43.0888081  83.6898327  36.3565969  42.5789356
  85.0313473  37.0419908  42.4320936  35.4067662  97.3219164  82.5103508
  35.7446721  97.3861607  83.4036170  34.8534539  98.0961665  82.4073188
  42.7713871  21.6361117  26.7255187  42.5399637  20.8083177  27.1467447
  41.9435883  21.9672394  26.3771844  53.2033777  11.8267596  51.3004637
  52.8408861  10.9654236  51.5076542  52.5377607  12.4454045  51.6012287
 100.2388540  84.2459210  81.7833369 100.9762970  84.3381127  81.1800854
  99.9397198  85.1424869  81.9347225   5.3080012  97.5490414  29.4152188
   6.0984350  97.0903527  29.6999097   4.9621702  97.9483478  30.2134585
   4.5780900  55.9867366  86.7667361   4.0299561  56.7609038  86.8949767
   4.1125538  55.4699125  86.1091624  81.4326954  38.2037091  23.4353113
  81.0597420  38.9521980  23.9010358  81.1969090  38.3499432  22.5192046
  95.6698513  44.8096800  21.7898989  95.1466274  44.0113592  21.7181826
  96.5601444  44.5328283  21.5731716  90.6443024  14.1331923   6.8127924
  91.2973881  14.4501531   6.1889023  91.1574459  13.7238204   7.5094479
  68.2286787  21.8701577  19.3353426  67.5824308  21.1780262  19.1955316
  68.8610220  21.4880395  19.9439144  63.6202240  59.7267771  22.9037309
  63.5479975  60.5974293  22.5126100  64.5505142  59.6326160  23.1084847
  94.2777729  39.8229885   8.8602453  93.3626556  39.9379969   8.6042088
  94.6069336  39.1421938   8.2733870  91.1185265  19.4082284  33.0675983
  91.9384480  19.5923769  33.5259080  90.9324741  20.2095747  32.5782537
  68.6778927  31.1386681  16.6162491  68.0032778  30.4712439  16.4910626
  69.1192770  31.1949873  15.7687593  60.4345751  31.5560675  25.6226850
  60.3545427  31.2293196  24.7265482  60.3248882  32.5036049  25.5428243
  76.0806274  18.7273371  10.4714561  76.8642473  19.2021239  10.7484961
  76.3968182  17.8511333  10.2511823  35.4327226  50.8399963  17.5547004
  36.0310817  51.5705109  17.3980212  35.5836797  50.5985165  18.4685552
  72.8434753  11.7724335   0.1704828  71.9442320  12.0998383   0.1506545
  73.3557510  12.5005007   0.5222301  70.3756046  68.0283594  50.5977917
  70.3374672  67.4492598  51.3589907  71.1284447  67.7154207  50.0962591
  45.6154060  17.5164199  26.9843745  45.1546144  18.1654334  27.5160527
  46.3750744  17.2701979  27.5121164  14.7017243  40.2189096  87.0456144
  13.7748291  40.0596830  87.2238206  15.1478817  39.9661716  87.8538813
  40.5618477  13.0074847  12.4917018  41.2920094  12.9579663  11.8747365
  40.4724216  12.1161580  12.8289986  84.2873096   6.0088980   8.5241610
  84.9468136   5.8410454   7.8510249  84.4322491   5.3244495   9.1774255
  43.3472824  19.2691851  19.5754027  42.4034691  19.2235160  19.4225490
  43.5186005  20.1963592  19.7404194  58.5314989   1.6908449  31.1746335
  59.1845703   1.0638070  31.4853716  57.7434683   1.1660118  31.0339570
  29.1800858  88.2487868  25.5122590  29.5498253  87.3962962  25.7420063
  28.2607819  88.1890391  25.7721424  29.9933007  97.8890046  87.1734941
  30.3222706  97.0466765  86.8596409  30.2754357  98.5185917  86.5099837
  27.7355480  24.9149370  21.5028715  27.6592970  25.6484365  20.8926272
  27.1734881  24.2349529  21.1314654  64.3916512  18.6359513  10.5406106
  63.8194561  19.1093647   9.9367011  65.2233171  18.5601580  10.0728321
  97.5667763   6.5562308   7.0978719  98.2710266   6.1907047   6.5624684
  97.8222752   7.4677086   7.2398639   6.4105736  38.0050182  32.3750734
   5.6824147  37.9076838  32.9886985   7.1177231  38.3799171  32.9000688
  37.7885866  53.0747890  30.5758953  38.0791020  52.7080727  29.7408175
  38.3212042  53.8618803  30.6900835  12.6524117  96.6903313  61.7822950
  12.2855237  96.8268307  60.9088008  12.7257111  97.5704106  62.1515005
  47.4186016  97.5304775  12.1020782  47.3723866  97.2806906  13.0249548
  46.7670418  98.2255029  12.0091438  53.6044480   2.0280382  83.7114613
  53.1653095   2.7303812  83.2317649  53.0870510   1.9234869  84.5099615
  33.2505083  23.9836740  33.7445855  32.4423885  24.3278003  34.1250491
  32.9691100  23.2298446  33.2261372 107.7387905  15.1736307  13.6609066
 107.0197487  14.5922112  13.9082038 108.5303688  14.6841121  13.8845372
  52.5524378  23.4917212   7.5638992  51.9461632  23.4290051   6.8258440
  53.3866978  23.1767607   7.2159868  88.6158180  27.9533434  44.0837049
  88.3262634  27.1020484  43.7555504  88.3433533  28.5753655  43.4091043
  79.4862747  23.9570546   0.8631252  78.5932064  23.9417243   0.5189915
  79.6256304  24.8664999   1.1271697  61.6059090  91.0680007  12.6931345
  61.7381932  90.3622769  13.3261335  60.6889225  91.3195621  12.8030443
  90.9408665   4.1309044  27.5834608  91.4223766   4.1385913  28.4106970
  90.1008892   4.5400620  27.7914429  41.6024519 101.1607606  37.9067087
  41.6246487 100.5983894  38.6809683  40.6704069 101.2850740  37.7276182
  39.9393678  37.5558543  35.6883812  40.2757215  36.6773653  35.5113196
  40.3582907  38.1099582  35.0298214  85.5000877  56.2335443   8.6000234
  85.5513859  55.5423784   7.9398048  84.9094486  56.8840981   8.2203299
  32.8805497  57.8015801  85.7679118  33.4145501  57.0217391  85.9193240
  33.1301167  58.0964103  84.8921122  90.9734058  12.4163938  46.8588066
  91.4487934  12.5713110  47.6750422  91.4115715  12.9749346  46.2167215
  53.5412693  49.4492006  12.0805252  54.1048813  49.9187088  11.4655972
  52.7649307  49.2223549  11.5685952  57.1955395  14.1260815   3.7487784
  57.1330166  13.1711531   3.7279606  56.3924789  14.4279981   3.3243120
  97.4089543  90.2691349  85.0830056  97.8991238  90.8367499  84.4882111
  96.6426436  89.9975737  84.5777814  28.9568259  88.8383268  11.5460575
  29.0755297  88.8104903  12.4954605  28.7439038  89.7524010  11.3579988
  89.9118233  25.3727698   3.8312542  90.6618214  25.2746940   4.4178718
  89.2464542  25.8083797   4.3639445 106.4275551  15.6441629  32.0789409
 107.2127724  16.1643994  31.9085550 106.2469578  15.2040243  31.2483430
  72.6915359   5.5408943  22.8982854  73.2823324   6.2500638  23.1518006
  72.4916935   5.0906980  23.7190270   0.9726273  14.3356979  18.3633959
   1.4988648  14.6564090  17.6309705   1.5716301  13.7821651  18.8644159
  28.1119683 103.0037650  71.6665475  27.8337433 102.0921334  71.5785198
  28.6422875 103.0164679  72.4633138  62.6647043  24.2054582  25.3007364
  61.9677210  23.7651420  24.8143506  62.7753305  25.0446725  24.8538423
 100.3491020  13.4892607  21.6499043 100.3489780  13.4693134  20.6929111
 100.2476692  12.5732720  21.9085717 107.7561569  30.8107924  43.6508989
 107.7505970  31.5500689  44.2589045 108.4641552  31.0098648  43.0382490
  86.5773869  50.0595140   3.9239267  85.9318829  50.7518530   3.7816986
  86.7123413  50.0488615   4.8715055  65.4875088  22.3699117  44.2401218
  65.5351686  21.5515399  44.7343159  65.4602432  23.0530334  44.9100685
  69.9978924  42.3572111   8.1299430  69.1111755  42.5193691   8.4519118
  69.9060106  42.3320675   7.1774954  69.9913502  35.7130194  26.7615938
  69.7766972  36.5536022  26.3571477  70.9457731  35.6599903  26.7116904
 105.3268623  14.6335590   1.4420013 105.8816624  14.6923292   0.6641956
 105.9424400  14.5356715   2.1684390   3.7044560  11.9329977   6.0522139
   4.1806160  11.4663303   5.3653961   4.3813835  12.1993339   6.6743600
 103.3055019   6.5603435  29.0365386 103.7170887   6.0850728  28.3147693
 103.1756973   5.8986253  29.7158837  13.4553578  36.9412907  88.0075045
  13.1183770  36.8595108  87.1153234  13.1010487  37.7730056  88.3220596
   3.0383240  36.9774270   3.7446281   3.2384526  36.7637444   2.8332990
   3.8749062  36.8874741   4.2009979  44.7842312  16.7480755  20.4194856
  45.4562855  16.5746319  19.7603238  44.3132257  17.5117862  20.0861216
  63.9036751  16.6904807  30.7567668  64.6037626  16.7450309  30.1062822
  64.2640829  17.1191049  31.5330505  69.2254305  18.9080942   1.4796887
  69.2032766  19.6339095   2.1033347  68.4673643  19.0551078   0.9140442
  73.1492758  37.5599408   6.6363221  72.3943043  38.0859828   6.3726389
  72.9950190  36.7032051   6.2382740  72.1229792  42.6133537  14.1773260
  72.0433187  41.6705418  14.0324223  72.5827169  42.9367542  13.4025443
  42.7377796  25.6048632  24.0129590  42.8218889  26.2190723  24.7422791
  43.5639906  25.6845188  23.5362434  99.1502476  28.7883353   4.2040333
  98.7681103  27.9136038   4.1330034  98.4060001  29.3603420   4.3914837
  66.2904263  12.9042494   3.9504030  67.1843672  12.8077149   3.6220932
  66.0813236  13.8273990   3.8079149  94.2037693  72.6752099  71.4158456
  94.6894041  73.0696663  70.6914191  94.8775355  72.2782835  71.9678621
 101.7696190  20.7444644  21.9434142 101.7303085  19.7880745  21.9458747
 102.4040794  20.9563351  21.2587214  68.5495567  10.8907783  44.4857836
  68.8199520  10.2116024  43.8678503  69.0701962  11.6564488  44.2430592
  80.0522772  97.5454959  87.3896448  79.3417278  98.1541022  87.5919937
  80.3497091  97.2320708  88.2437714  46.6851403  13.1794426  79.1654818
  46.3273312  12.5483057  78.5410910  47.1913315  13.7880776  78.6273675
 101.8911472  69.2940589  86.5346654 101.3440958  68.6362489  86.1054154
 101.2675492  69.8996254  86.9354789  65.6212139  41.3622713  25.9352160
  65.1915455  42.2172260  25.9611487  66.4381886  41.5190649  25.4617190
 108.3015981  69.3895017  31.7919350 107.8072061  68.6670386  31.4048243
 109.1931882  69.2724740  31.4639068  99.7315216  27.4867034  18.4438050
  99.6785641  27.9616904  17.6144588  99.1115093  27.9367828  19.0176058
  14.6462109  97.9399928  79.8649721  14.2917969  98.4015473  79.1049795
  14.0497353  97.2031554  79.9973075  88.8195196  92.9023989  85.3809641
  88.5422198  92.9344185  86.2965585  88.0043999  92.9545745  84.8818760
  89.8353481  10.9446430  38.0538344  90.0196362  10.0865257  37.6718640
  90.5408955  11.5062308  37.7328134  59.4827797  84.9155458  84.1604959
  60.0898030  84.4946917  83.5516898  58.6583378  84.9702366  83.6772446
  59.1855049  31.4489126   6.7492533  59.4380093  30.9175467   7.5043178
  59.8131037  32.1716332   6.7443466 104.9832535  16.4603031   9.2142856
 104.4736004  17.2445679   9.0107685 104.3964577  15.7329392   9.0072751
 100.1481262  71.0548016  79.7858261 100.0174204  70.2422031  79.2971204
 101.0839668  71.2372466  79.7012900  64.3410683  34.9051070  14.4809163
  64.4670391  35.7938170  14.1484141  64.5386839  34.3397546  13.7342179
  66.7412258   4.6752379  58.3869521  66.7999626   5.0065491  57.4908416
  65.8182408   4.7762177  58.6196272  92.3265553  43.2605648  20.1019502
  92.7039433  42.8311300  19.3342292  92.9306221  43.0515337  20.8144403
  49.4371178  87.0919260  80.8083634  49.3827870  87.3984583  81.7135255
  50.0636628  86.3688668  80.8375494  46.0830094  14.0618631  81.8749194
  46.5273262  13.4017155  81.3429265  45.3677632  13.5868094  82.2979854
 107.5500870  61.9080353  46.4017916 107.2832775  61.7827749  47.3124838
 108.0321789  61.1109447  46.1816502  97.2052017  95.1709660  73.8169067
  97.4195973  94.2413529  73.7388651  96.3498369  95.1842602  74.2463343
  70.5608034  11.2263441   8.0902189  70.3346443  12.0365095   7.6333618
  69.7304535  10.7570255   8.1708223  93.1358544  86.0369834  76.5159778
  92.1819273  86.0408410  76.4369671  93.3046929  85.6154307  77.3586051
 106.1793137  18.8459885  12.6460433 105.8034420  18.2960689  13.3334589
 106.2598801  18.2636011  11.8906844   9.3362938  10.5832946  24.6248341
  10.0998246  10.0182700  24.7431278   8.7051712  10.2720356  25.2737021
  93.5804939  55.8445597  18.2048130  93.5573959  56.7990303  18.1363928
  93.6344528  55.5407143  17.2987223  96.0151768   7.8198636  24.7386336
  95.7909012   6.9505847  24.4065356  95.2172184   8.3349597  24.6195555
  74.6349525  79.8255634  11.6740870  73.6962080  79.6386147  11.6807771
  74.7201443  80.6044006  11.1241925  70.5090904  64.9182034  42.0998573
  70.8197880  64.1672421  42.6055813  70.1054525  64.5327902  41.3221931
  58.8657141  18.0301511  10.8929205  59.3855047  18.6792994  11.3669038
  58.3660316  17.5798428  11.5739274  91.8408012  52.0758057  23.7780333
  92.7782249  52.0343447  23.9671016  91.4514160  52.4356222  24.5749927
  95.2810478  82.6278782  29.6972132  94.6060276  82.3933125  29.0603781
  95.5466080  81.7931747  30.0831842  90.1008034   4.2786497   3.4796920
  90.2246380   4.8874199   2.7514783  89.8794079   3.4466618   3.0613470
   9.7804104   6.6375816  44.2390919  10.1117836   7.2790092  43.6106110
   8.9303719   6.3740098  43.8866758 108.1738281  74.4286633   4.9950120
 109.1102600  74.3572807   4.8100209 108.1183624  75.0647783   5.7081091
  90.2892303  20.5100036   1.3045456  89.3474674  20.6796384   1.2809889
  90.6902504  21.3775420   1.2517561  60.2473211  44.4223452  19.4188786
  59.7472143  43.9336157  20.0725365  61.1518097  44.3812513  19.7294319
  89.0381908  43.3055782  34.0301847  89.2465305  42.4597359  34.4268894
  89.4620705  43.9479542  34.5993185  86.0231018  35.2533555   3.8691393
  86.8756771  35.5900669   4.1447768  86.2303638  34.5654202   3.2366705
  70.2347708  22.1591067   6.6292048  69.4719410  21.8047857   6.1722863
  70.8019114  21.4013028   6.7717564  51.0048199   6.8234068   3.9818701
  50.0536537   6.8451726   4.0869030  51.3061619   6.2127471   4.6545666
  44.8088242  11.3222906  82.3781268  44.3724324  10.4766724  82.2745906
  45.7295490  11.1414167  82.1889745  67.9628706  20.1914930  39.8686957
  67.0190954  20.1890302  40.0284290  68.3290529  20.6820655  40.6045485
  71.4023352  26.7172670  27.5704384  71.6509914  25.8195591  27.3501635
  72.2279644  27.2015905  27.5694394  78.9304590  89.6647739  30.5264974
  78.3817530  90.2101040  31.0902095  78.3083963  89.1620350  30.0006390
  94.8426819  37.2256374  19.6786809  95.0707150  37.3461699  18.7568855
  94.4057655  38.0406427  19.9258792  86.1963272  45.2276325  52.3698521
  87.1278572  45.0356007  52.4776220  85.9215164  45.5665255  53.2218266
  98.8913536  67.5914955  14.9932826  98.6948681  67.0312500  14.2424500
  98.3217716  68.3523846  14.8799288  50.0192692  72.7165969  88.9653848
  50.7096722  72.1767863  88.5804441  49.4081166  72.0869406  89.3478315
  19.3644574  74.0953239  87.7251470  18.6845925  74.7683486  87.7573705
  19.0106728  73.4252938  87.1402350  90.5236721  18.3505189  25.9636188
  91.3860893  18.6170459  26.2821007  90.3413010  17.5310266  26.4234090
  26.2298847   7.6114866  75.8037226  25.8954836   6.8876240  76.3332789
  25.8633639   8.3959934  76.2117021  88.7271690  57.1095276  15.9149754
  88.3731365  57.7850580  16.4933825  88.0052948  56.8989468  15.3227055
 103.7086296  34.9887276  22.5256252 103.6651802  34.0483904  22.3520970
 102.9595661  35.3540349  22.0547867  88.0083824   2.5042364  76.8283884
  88.0102326   1.7556879  76.2318127  88.9341618   2.6738617  77.0027201
  24.8561035  39.4609785  43.0068541  24.5656430  38.8002133  42.3781633
  25.5823838  39.9050760  42.5692129  97.7101421  66.4116859  43.3344126
  97.0104122  66.8918562  43.7771893  98.0301285  67.0171928  42.6656771
  98.1538200  16.0432315  24.2606664  98.1332111  16.9869447  24.1018820
  97.2550392  15.7541382  24.1030192  99.2106152  19.8248088  24.2630672
 100.1459312  19.8594165  24.4636250  99.1612053  19.3527293  23.4318447
  54.8770475  35.7277250  11.4826500  54.9018192  36.3536954  12.2063756
  54.9990654  34.8747301  11.8994761  24.6703564   7.2609985  14.0222514
  24.5744740   6.3585019  13.7180483  25.5625664   7.3043025  14.3662238
 102.7345085  17.0646763  24.4984221 102.0237732  16.6495967  24.0097451
 103.5170746  16.8940759  23.9743018  86.7453766  48.2583714  11.4695013
  87.2819233  47.9861927  12.2139955  87.2638607  48.9359760  11.0356164
  76.8602419  34.2742085  43.6833477  75.9919167  34.6101165  43.4610796
  77.3032475  35.0130081  44.1006708  65.1521540  20.3281021   0.9581722
  64.6344995  19.5688832   1.2262195  65.2572012  20.8412957   1.7593139
  55.3744961  19.6380732  86.6126453  56.2611843  19.9845526  86.5127812
  55.4855419  18.6874792  86.5962534  23.9988457  31.2370777  34.6251464
  23.3341061  30.5672932  34.7856045  23.5017144  32.0490456  34.5261621
  86.9563770   5.6666142  24.3772984  87.4699306   4.8589420  24.3899298
  87.1176147   6.0663545  25.2319574  88.9830303  53.9565134   6.4916140
  89.4817352  54.7496367   6.2954295  89.3317986  53.2992172   5.8894902
  22.5415169  50.6444025  18.8496661  23.2548844  51.0732079  19.3223870
  22.9362141  50.3630781  18.0242538  34.3955208   5.7770464  81.1473285
  35.0093008   5.5097506  80.4631846  33.8495756   5.0046846  81.2944035
  97.4860001  22.8010464  13.6392939  97.0955944  21.9371247  13.5071635
  97.4678326  23.2071638  12.7727079  29.4774678  91.6333350  68.2254832
  30.3824666  91.7495211  68.5148184  29.5523121  91.2250002  67.3629920
  98.1173801  30.5807710  17.1344304  98.3007050  30.2433562  16.2576318
  97.8567123  31.4906025  16.9912779  66.3522959  15.4516995  10.1731682
  67.2441435  15.1663208   9.9746811  66.4475393  16.0222578  10.9358120
  92.7010250  70.2116299  42.0745897  91.7927456  70.2988434  41.7853355
  92.6357937  69.9432421  42.9910755  70.5117750  31.9702768  14.6307206
  69.6795750  32.3642135  14.3690085  70.8151960  32.5128484  15.3585839
   0.7344471  17.4563265  17.1808815   0.3021752  17.8482091  16.4220619
   1.6496121  17.3662925  16.9151831 107.5980854   7.5894660  25.8375669
 107.2360229   7.5526476  26.7228842 108.2595158   6.8977642  25.8203387
 103.1780624  54.2393208  39.0575051 103.0279827  55.1107454  39.4240093
 102.4102974  53.7326670  39.3222141  96.4586067  66.3630009   0.9821767
  97.3676872  66.5027475   0.7170551  95.9456921  66.5846109   0.2049800
  31.0405877  52.6686887  56.2860291  31.0356667  51.7772260  56.6346018
  31.0549691  53.2291421  57.0618622  80.9802628  19.5818210  22.8180814
  81.9015884  19.8354673  22.8734136  80.7182121  19.8236120  21.9297719
  19.1236832 102.2083672  88.1922320  18.5717251 102.9705580  88.3672679
  18.5151150 101.5384158  87.8807019 106.1312485  27.2251320  44.0838051
 105.8894920  27.9471970  44.6638107 105.2957821  26.8857980  43.7627459
  59.5809698  47.9502201  30.8861971  58.8403559  48.2268620  31.4258194
  59.6101713  46.9990158  30.9890628  56.6072416  33.2481766  23.4950471
  57.2911644  33.5136271  24.1098785  56.9213057  32.4209499  23.1299543
  98.9334393  58.7780666  17.5765908  99.0655994  57.8664684  17.8368890
  99.6633530  58.9669943  16.9868791 106.5300751  21.9877958  21.2897444
 107.3058891  21.6427517  21.7316628 106.2465572  21.2775207  20.7141066
  28.1999066  46.5148156  86.5351685  29.1485741  46.4062055  86.6020490
  27.9001763  45.7276257  86.0805021  85.9289265  11.8000436  22.8143668
  86.5377426  11.0884392  22.6164007  85.1537800  11.3614607  23.1651330
  17.4838593  76.5557464  88.6589656  17.3275425  76.5918501  87.7153073
  18.4346154  76.4816984  88.7415818  62.2116280  62.0596504   7.4872404
  61.8167496  62.7811909   6.9976723  62.7940798  62.4868345   8.1153303
  80.4005432  34.5205188   0.5341559  80.0458050  33.6688542   0.7892250
  80.0547981  35.1292324   1.1869678  26.5148118  80.8940061  81.0982721
  26.4278367  80.0544366  80.6468378  27.4589303  81.0453399  81.1427723
  92.7482605  13.2426953   8.4084773  93.2020760  12.4252689   8.2033145
  92.9812527  13.4239841   9.3190157  72.5867510  29.0287066  33.0000830
  73.2493591  29.6862245  32.7883005  72.3377943  28.6581850  32.1533442
  23.8024094 100.5051812  88.7529284  24.5993855 100.0479230  89.0212033
  23.6476662 101.1447247  89.4481072  78.1828117  50.8152342  22.4274135
  78.1166458  50.2097940  21.6889739  79.0179062  50.5975819  22.8415084
  85.2968788  63.8738012  14.2198229  84.8682880  64.5877981  14.6917868
  86.2299728  63.9980507  14.3934464  75.9718704  15.4947972  13.1420171
  76.3746452  14.7656083  12.6705480  76.6811419  16.1274266  13.2557786
  89.0996647  54.2910385  45.9821367  89.6116066  55.0642061  46.2195349
  89.7423744  53.5832262  45.9356451  80.9447479  54.0828037  15.8510220
  80.9540844  55.0156593  16.0653138  81.2424946  53.6502218  16.6513062
   3.0234848  42.7066231   3.1376007   3.9248310  42.4029064   3.2451135
   2.9091011  42.7868032   2.1906482  85.6007004  62.9320288   9.7635812
  85.7737350  62.1662426   9.2159909  86.0417080  63.6527205   9.3137449
  47.4928166   7.6321957  76.1786477  47.1636559   7.5042746  77.0683222
  47.9542042   6.8187115  75.9746973  77.7656364   5.7411987  17.4619699
  76.9750786   5.5343097  16.9635260  77.7868414   6.6977155  17.4912703
  75.6880665  63.2582378  24.0059280  75.8539820  64.0969276  24.4363999
  74.7349977  63.1697035  24.0131760  95.6879870  86.9689544  76.5065353
  96.1719671  86.2329396  76.8810778  94.7694460  86.7060193  76.5646593
  98.5711193  24.6495581  18.5370982  98.7944317  25.4826188  18.1219196
  98.0429077  24.1904807  17.8840482  84.3918778  21.3245413  75.3358989
  84.1791607  20.4641792  75.6975119  84.4030167  21.1899683  74.3882720
  10.0200131  76.9164952  82.1926682   9.7101262  76.0127553  82.1338879
   9.6449330  77.3486932  81.4253692  12.5008904  26.2895989  26.1847305
  11.8667637  26.7196965  26.7584252  12.7298771  26.9569755  25.5378842
  71.0833025  45.4475021  11.5193188  71.4104605  44.6657753  11.0742319
  70.5327511  45.1084948  12.2251534  10.8334194  12.4294484   5.8241546
  11.5698086  11.9763362   6.2348205  11.1276375  12.6031995   4.9300188
  76.5263891   1.0879738   6.8933123  76.8690920   1.8991069   6.5180117
  75.5804396   1.2266132   6.9400400  87.7153301  32.1737623   8.2967019
  87.9146099  31.6324782   7.5328094  88.4294415  31.9962621   8.9088893
  66.4419937  60.6626511  31.1965370  66.4481163  59.7130251  31.3165593
  65.6247711  60.9502459  31.6035676  96.9672680  57.7900648   6.9614863
  96.8985081  57.2121334   7.7214223  96.7346954  57.2353363   6.2168914
   5.0284230  57.1074152  13.9820862   4.1438900  57.0016670  14.3322849
   5.4627549  56.2761641  14.1734433   5.8721879  83.1125458  74.7761469
   5.0529625  82.9275044  74.3169527   6.2774756  82.2540291  74.8983126
   3.9391266  43.3218765  36.9920921   4.2756020  43.4312105  37.8815079
   4.5582043  42.7236414  36.5736604   3.7014138  28.7135124   3.5791829
   4.0820347  29.4557548   4.0486848   2.8311764  28.6077619   3.9635587
  96.8184757  13.8483584  48.3657742  96.0867214  14.0806341  47.7940989
  96.8809032  14.5772576  48.9830589  72.4596357   6.1144668   8.3192068
  73.2716846   5.6195235   8.2103968  72.4411297   6.7117095   7.5714159
   9.9523213  93.1429251  87.7556153   9.3914940  93.7059649  88.2891840
  10.5342247  93.7494095  87.2975807  57.5044298  57.4435568  18.3943534
  58.4357119  57.5503683  18.2006121  57.3392773  58.0486441  19.1174221
  74.8706484  67.4438953  34.8362637  75.7145882  67.7379751  34.4934630
  74.8332739  67.8043127  35.7222295  50.4941059  97.2892790  28.0560780
  50.9235073  98.1307676  27.9020071  49.9572827  97.4334519  28.8353491
  47.4227953  45.6100273  37.3626757  47.5777578  45.4441404  38.2925677
  47.0871592  46.5059233  37.3318839  93.9651394  29.4349909  21.9279575
  93.6887550  29.2483544  22.8251815  94.0010548  30.3904247  21.8822432
 104.8854256  60.5795908  19.5204437 105.3345299  59.9757242  18.9289331
 104.2124557  60.9903955  18.9776933  20.3417733  85.1393636  89.0889225
  19.5387700  85.0487479  88.5758838  20.7242062  85.9648713  88.7914052
  21.5699267  45.4588938  24.2353535  21.0572505  45.4074240  23.4286666
  22.4509072  45.1881075  23.9769387  47.1954346  20.4170895  45.2703619
  46.6937828  20.5624485  44.4682121  46.6755009  19.7850645  45.7667971
  87.6776314  40.6068563  23.2860112  87.0666313  40.0298786  22.8277469
  88.3854103  40.0286674  23.5705972  67.8204823  19.5618105  27.9642820
  67.2631073  20.1203609  28.5061169  67.2481251  19.2675519  27.2557259
   4.1190436  72.6327141  89.1983455   3.1933787  72.8338226  89.3359506
   4.3418648  73.0777725  88.3807238  78.5993958  75.9297466  34.6763492
  77.8997564  76.4626741  34.2985535  79.2651939  76.5632868  34.9438810
  94.9862671  60.4213095  27.6148081  94.6798611  61.3249063  27.6913691
  95.4195595  60.3867769  26.7619920 107.2317410   0.3225817   7.2992027
 106.9184208  -0.4826134   6.8872291 107.0713615   1.0038242   6.6461951
  61.0298204  23.9520574  28.5424900  61.4680624  24.7838354  28.7222695
  61.6685295  23.4491277  28.0371761  95.5659739  72.0050105  68.7560241
  96.2963072  71.8072160  69.3422978  95.9758154  72.4067863  67.9899709
  75.1687336  33.1450033  11.6401720  75.2610159  32.6850176  12.4745154
  76.0257435  33.5442877  11.4907312  81.9022274  42.2103357  12.5530696
  82.6757908  42.7406931  12.3618746  82.2356415  41.3155079  12.6189816
  21.5962445  23.7969875  37.6373935  20.9241329  24.0628076  38.2649565
  21.3902031  22.8836823  37.4382639  92.9634094  35.1041079  15.2455270
  92.8702164  36.0387492  15.4299068  92.3580933  34.6786571  15.8528328
   9.1594460  76.9304284  79.5590596   8.8436558  76.0571345  79.3269752
   9.8579171  77.1078118  78.9290480  65.1850080  33.2305694   7.7744168
  65.6444645  34.0652657   7.6826924  65.8817720  32.5859118   7.8976023
  35.3055336  88.7826642  65.3601854  35.8993199  88.9075526  64.6198766
  34.9032643  89.6411666  65.4920499  13.1877854  71.9091853  87.7874302
  13.5874131  72.4728402  87.1249886  12.2873642  72.2257885  87.8597121
  21.3715031  83.5314020  76.6515379  20.4612210  83.5394724  76.9474189
  21.3927414  84.1542896  75.9250455  93.4180832  31.8915009   7.6980215
  93.1315231  31.1670756   8.2541871  93.3299446  31.5574884   6.8053293
   5.3488638  94.5563944  82.4409782   4.8932888  95.2794846  82.8720491
   4.6874144  93.8688668  82.3633723  91.3264370  61.7482185  16.6576588
  90.5968380  62.3320913  16.8650377  91.1947632  61.5176535  15.7380211
  82.2099400  72.0406723  13.2050347  81.3890743  72.0891380  12.7150810
  82.8671360  71.8086052  12.5489318  95.0596905  11.5407121  14.6149468
  94.1528034  11.2540329  14.5072389  95.5629253  10.7282531  14.6687973
  44.9588919  27.0524716  12.0200109  45.8645582  27.1887803  11.7417634
  44.5858908  27.9330420  12.0612574   3.6853825  33.2100916   0.7959928
   3.2315575  32.3816442   0.9507377   3.7385403  33.2796645  -0.1571947
  78.4357691  62.4983501  52.4023914  79.3678570  62.5076628  52.6200151
  78.3982086  62.1147966  51.5262032 101.2913609  54.5173073  19.1559923
 102.2482586  54.5135355  19.1799152 101.0505104  53.5957861  19.0610313
  95.6122875  54.3818140   5.0672293  95.3672218  53.4763861   4.8764944
  96.3841629  54.3078756   5.6284499   7.1359192  16.4802623   4.5781660
   6.9041573  16.2007833   5.4638344   8.0796467  16.6358662   4.6153688
 108.4345627  34.9906373  27.6811624 108.5061741  35.0860810  26.7314291
 108.1493282  34.0860748  27.8101468  79.3458271  48.1033802  17.0190656
  80.0772572  48.7027550  16.8707526  78.6599684  48.4112358  16.4265680
  46.7248799  16.7259094  74.5420258  47.6640202  16.5724060  74.4386272
  46.3226296  15.8746311  74.3695323 107.9039097  38.1184125  16.3750863
 108.7004757  37.9347754  15.8770919 107.2190094  38.1968331  15.7110107
 101.5766588  93.8617142  74.9675934 100.7973782  94.1619595  74.4998221
 102.3067728  94.1091355  74.4001894  75.5171824  39.7634006  14.5630670
  75.1201391  40.0719118  13.7485683  75.3846025  38.8155150  14.5501363
  34.3549277  10.3327343  72.4056773  34.5414091   9.5597431  72.9385357
  33.4000946  10.3552696  72.3422842  89.4733238  12.1476936  20.0392675
  89.9148083  12.8717852  20.4831314  88.5487843  12.2589719  20.2608013
  62.7657938  53.6250353  27.0081401  62.7912426  52.9293442  27.6650977
  62.3027420  53.2366848  26.2658501  97.6811409   9.8964125  20.8016968
  97.3776531   9.9710441  19.8969567  96.8989277  10.0537908  21.3304734
  65.9139134   4.1818688  77.2646491  65.7910515   4.9504540  77.8217964
  66.8036534   3.8861200  77.4573414  69.0010691  62.4620247  27.5689363
  68.8558817  61.7577744  28.2007480  69.8399496  62.2482157  27.1605253
  27.2035267  80.8733090  39.4191162  26.3610508  80.6289157  39.0360443
  27.6216938  80.0386222  39.6304505   3.5428082  34.7400165   9.9155909
   2.7185761  34.4050622   9.5624852   3.4514653  35.6919861   9.8750299
   2.9156147   9.2098218  42.6870108   3.5258709   8.4734708  42.7271318
   3.0891453   9.6187830  41.8391466  74.9281311  39.2675138   1.9417372
  75.2015543  39.7988653   1.1939815  75.6958199  38.7354326   2.1509543
  69.5509434  15.1431394  18.2390165  70.0363159  14.9753177  17.4312520
  69.1248798  15.9874797  18.0914021  55.0199890   4.9708265   0.7901250
  54.9601555   4.8470539   1.7374009  54.6652365   4.1624689   0.4200741
  95.1758829  64.0191504  76.9524054  94.9196592  63.9904710  77.8742294
  94.4405047  64.4457623  76.5125732  63.9609385  57.4716187  17.5035882
  64.1780472  56.5406990  17.5534678  64.2874670  57.7481651  16.6473567
  73.9094782  36.8261385   0.9791281  73.7484932  36.3237405   1.7778225
  73.9545345  37.7358651   1.2734051  89.3097019  36.0399055  31.7050314
  88.7652397  35.2944660  31.9582438  89.1875553  36.6760540  32.4097490
  77.1551752  11.6098607   8.7392020  76.6295481  11.5283883   7.9433918
  76.5157175  11.5937746   9.4512880 103.2902256  37.0923372  80.1701348
 103.5711113  36.7674371  79.3146961 102.4988047  37.5983211  79.9860983
  66.1493301  25.1219749  33.3458996  66.8941498  25.6972218  33.1710649
  66.3240385  24.3386698  32.8242278  69.8044538  37.2965121  32.7210045
  69.0229464  36.8713665  32.3678374  69.8629856  38.1243587  32.2440624
   1.3695275  33.1140971   9.4701928   0.9270607  32.7930617   8.6844492
   0.6621109  33.2747960  10.0946689  59.1752386  19.7258317  23.6809516
  58.2656574  19.4300950  23.6431479  59.5967722  19.2999804  22.9344964
  97.9527760  20.8170271   9.8515636  98.4560394  20.6052685  10.6377625
  98.3004379  20.2307725   9.1795015  56.1548185  36.2198377   9.0831864
  55.8178473  36.1566448   9.9768794  57.0367050  35.8510351   9.1331005
  28.9788376   1.9832896  62.3222876  28.0540501   2.1493956  62.5050688
  29.3036972   1.5457816  63.1092310  84.5755768  40.5830145  15.0217950
  85.2125835  39.9153852  14.7673917  83.7620926  40.3124857  14.5960140
  66.5954256  42.7768183  32.6640153  66.8056679  41.9384480  32.2527194
  67.4442339  43.2003307  32.7920365  63.6566426   8.1294462  69.6015303
  62.9052807   7.6503012  69.9509649  63.7391068   7.8206179  68.6992805
  93.2639217  79.6029377  16.1188948  93.0192184  80.5224705  16.0149157
  92.8652573  79.1626501  15.3682613  36.9834280  27.3552275  49.0282822
  36.5455437  26.6490126  49.5034122  37.6298571  26.9102979  48.4801960
  67.9425001  41.1130524  24.1528058  67.5438452  41.6803837  23.4929252
  68.8019800  40.8941460  23.7927890  74.5011282  15.8096957  40.7774401
  75.2584648  15.4297507  41.2227631  73.7965107  15.1781738  40.9221220
   1.3558041  10.9155381  44.2521524   1.7766606  10.2106404  43.7599802
   0.6303631  11.1969030  43.6946630  24.8253762  42.9084682   4.7994313
  24.1972004  42.4785328   5.3797674  25.6644856  42.8277540   5.2528679
 108.0722809  59.9059963  20.2760339 108.2494259  59.3222523  19.5384061
 108.3967686  60.7596254  19.9892271   4.3728577  23.7966609  30.9214687
   3.8338028  23.0412269  31.1559415   4.7488819  23.5679865  30.0714445
  90.9849262  23.2788181  14.2586589  90.1864243  23.2540536  14.7859299
  91.4645290  24.0398192  14.5859051  95.3940010  52.2867537  22.0544720
  94.7153568  52.7653217  21.5783978  96.1555767  52.8662014  22.0328927
 105.0053596  54.9757576   3.5784021 104.0655136  55.1472998   3.6373758
 105.3589630  55.7355881   3.1159604  80.9639931  47.3046684   0.8196196
  80.5052662  46.6281033   0.3215501  80.3023338  47.9791021   0.9731711
   1.0606419  69.3397427  49.8957968   1.2549721  69.3817902  50.8321190
   0.8468663  68.4204006  49.7365952  66.9331337   1.6448757  87.4295303
  66.3638569   1.2110588  88.0651031  66.6505791   2.5593636  87.4399184
  16.0169270  82.6470169  84.3034114  15.4046967  82.1258267  84.8228099
  15.6370690  83.5255893  84.2958801  61.9346383 101.5964182  88.8640098
  62.0019581 100.6461867  88.9576068  61.7388966 101.7325076  87.9369728
 102.1996975  70.9393644  14.1993666 102.1556091  70.0755262  14.6093321
 101.3363171  71.3224363  14.3544734 103.7392902  70.1011562   7.7684033
 104.3974018  69.4481087   7.5303996 104.2329502  70.9160089   7.8608733
  26.7065670 100.0688275  89.2681744  26.6817811 100.7634839  88.6100934
  27.5712349  99.6715315  89.1646214  93.3680248  50.1779842  38.3417916
  92.6602840  50.7980490  38.1661415  93.5980320  49.8270655  37.4814534
 104.3911934  41.8835974   9.7170115 103.8525772  42.3546886   9.0812445
 103.7720394  41.5924788  10.3864408  12.7182137  37.3315144   2.9284209
  12.4513375  36.8542695   3.7140718  12.4877201  36.7491627   2.2045641
  61.7864561  45.5831146  14.5083165  60.9466839  46.0047483  14.6906257
  62.0779181  45.9756899  13.6854136  98.0821896  32.6434517  33.3936191
  98.5300922  33.3242488  32.8914905  98.5281372  31.8326640  33.1487036
 101.7388439  17.7880681  20.9736991 102.4872780  17.2202003  20.7903624
 101.1226940  17.2274911  21.4452338 108.2030869  37.8596663  -0.2128664
 108.5583305  36.9877172  -0.0404209 107.3680210  37.8748584   0.2547563
  79.0060234  24.5525193  36.9150567  79.0262699  24.6942973  35.9686327
  78.1665659  24.9181366  37.1941090  91.3819122   9.6341139  22.7917576
  91.8209839  10.4225838  22.4727631  90.9649563   9.9062777  23.6092591
   1.4085804  74.0470123  12.4894035   0.8404766  73.3137846  12.2530377
   2.2905289  73.6750031  12.4935985  87.5220871  31.2892890  11.1936450
  87.7043247  31.8295789  11.9624805  88.2869053  31.4083362  10.6305134
  92.3252487  36.0389018   5.8014417  92.2231007  35.6449366   6.6678071
  92.3716164  35.2931499   5.2031654  99.1466999  37.9304004   5.0830787
  99.6066952  38.1638360   4.2767638  98.4574318  38.5895157   5.1650089
 100.6122494  49.3747616  48.9737701  99.8803902  49.5778799  49.5563126
 100.5442524  50.0198412  48.2698631  45.2854111  91.5083703  87.1725486
  44.9525883  90.6223925  87.0293673  45.9191945  91.4141282  87.8836563
  72.4875212  87.7692604  31.5864682  73.2157326  87.4910450  31.0310078
  72.8305483  88.5183525  32.0737267  91.2280537  23.6094591  60.0474112
  91.4487816  23.3933136  59.1414349  90.7288815  24.4237778  59.9845712
  99.1997242  53.0034304  45.1746702  98.3207607  52.7866125  44.8638105
  99.7609711  52.8840065  44.4085264  15.4420807  88.4216531  70.6979828
  14.7472718  88.9392313  70.2910678  16.1921265  88.5251649  70.1123552
  90.7780266  31.7651558  16.4053094  91.5375423  31.5835023  15.8517981
  90.0641441  31.2712407  16.0020185  74.6536398  38.5104632  21.1891079
  75.5186462  38.9093757  21.2832308  74.3674421  38.7634277  20.3114223
  32.5094845 101.1580762  68.4275262  32.6702454 100.6294545  69.2091577
  32.1670392 100.5370482  67.7846472  33.6940361  16.5885660  57.9888432
  33.0297686  16.8129656  57.3372094  34.5140482  16.9127342  57.6163881
  74.5220518  45.6930876   3.7537822  73.8697243  46.0493565   3.1506452
  75.3605509  45.8494997   3.3194053  97.7997494  43.0005932  20.1894879
  97.9709625  42.6882648  19.3010223  98.3257389  42.4297333  20.7495666
  70.2855635  85.3470421   3.6994576  69.9358320  85.2972794   2.8098273
  71.2148476  85.5434990   3.5808507  67.7068806  85.2983379  51.2962008
  67.6108122  86.1033821  50.7873631  68.4830713  85.4474545  51.8361282
  49.6634197  29.2300868  17.0239401  49.3605423  29.8860168  17.6518345
  48.8691139  28.9479733  16.5703726   9.6648537  49.3874359  65.2144623
   9.3037068  48.5010910  65.2287531  10.5582367  49.2873812  65.5432081
  26.6707757 101.8396195  77.6865094  26.7902615 101.3637885  76.8645971
  27.0565751 101.2694892  78.3515971  84.5234871  52.5406313  19.3786967
  85.1778126  51.8535995  19.5055079  84.6761036  53.1525803  20.0987387
  79.1620350  16.0382748   6.2516308  80.0842476  16.2646067   6.3721341
  78.7063074  16.5116644   6.9476551  96.3777542  57.7741194  26.2983108
  95.9713936  57.9965830  27.1359348  97.0363808  57.1155453  26.5190411
  17.5481068  48.4375525  42.8899336  18.4593331  48.3460045  42.6115274
  17.3282181  47.5883389  43.2729769  58.0508614  42.2996473  12.6356971
  58.6338329  43.0102301  12.3684108  58.2352924  42.1759272  13.5667765
  10.1444565   4.3182561  30.4484010  11.0564553   4.0608931  30.3132939
   9.6385323   3.6807725  29.9445271  74.4173574  79.5510292  21.0285616
  74.3874931  79.9168301  21.9126034  74.3359756  78.6060524  21.1574936
  29.9130299  78.3406266  77.5673776  29.8145058  78.0606493  78.4773974
  30.0521615  79.2861184  77.6214032  60.9701325  97.6372038  49.6283484
  60.5823590  96.8792819  50.0658560  61.8634297  97.6796453  49.9696064
  91.9478703  71.8893290   2.0524371  91.3855743  71.3677073   2.6251218
  92.7349567  72.0513630   2.5725073  75.5251671   0.9039137  83.8299589
  75.5887963   0.7596323  84.7740810  76.4285637   1.0480282  83.5482733
 102.0455837  16.1397684  50.6409454 102.2101307  17.0810330  50.6972933
 101.9553375  15.8574927  51.5511131   0.9302189 102.1988019  81.0859291
   1.3671162 103.0477627  81.0179626   1.1181834 101.9033440  81.9767742
  96.5770721  80.1286602  30.5585122  97.3610306  79.9303532  31.0706902
  95.8861256  79.6066666  30.9663677  68.0285025  54.9993324  22.6739931
  67.6531267  55.7608795  23.1160021  68.5254335  55.3673220  21.9433212
  21.8940388  55.2512407   4.3640435  21.0853802  54.7859907   4.5781496
  21.9998394  55.1261139   3.4209734  30.3179314  90.3897031  86.5003722
  30.6292012  89.7719296  87.1619590  29.5973256  89.9329623  86.0663881
 105.5966949  39.3571639  21.3137770 106.3713646  39.9004984  21.1691618
 105.8385944  38.4981751  20.9675741 107.9949760  40.5774355  31.1863256
 107.6428127  39.7309279  30.9112978 108.9375210  40.4304934  31.2652946
  81.8883991  54.6420956  20.3384876  82.7196121  54.2331219  20.5794501
  82.1352577  55.4980040  19.9881923  75.3553177  34.0358851  69.5400159
  75.4491688  34.4931337  68.7043445  75.4830815  34.7163221  70.2010147
 101.4680195  60.4787350  26.0714889 101.0259247  61.1561108  26.5832901
 102.1925545  60.1928043  26.6278362  99.8003578  25.4627275  15.0741291
  99.7802830  24.5061970  15.0445032 100.3800201  25.7125330  14.3545330
  83.6250496  57.3637724  33.6512685  83.4046936  57.8448868  34.4488907
  82.7984715  56.9688988  33.3736587  86.2279606  93.4501553  39.8851824
  85.5342102  92.9932594  39.4095826  85.7697487  94.1217136  40.3904533
   0.3672411  88.1760534  85.7089140  -0.4403684  88.4625014  85.2823563
   0.0873187  87.8723653  86.5724234   1.1517083  39.5559072  31.4833546
   1.8023907  39.8408628  32.1249509   1.5680252  38.8233590  31.0291648
  75.4093266  66.1615372  22.7345920  75.5075979  66.6062212  23.5765147
  76.2175226  66.3615513  22.2623134  87.0045853  55.6225920  31.6742802
  86.5565491  56.4315462  31.4271355  87.2404099  55.7505083  32.5931144
  96.1839771  37.5264454  12.1548128  96.8188095  37.3948741  12.8590155
  95.4802036  38.0342937  12.5585854  96.9250202  42.7060270   5.4953575
  96.5771675  42.3459244   6.3111752  96.7380142  43.6432838   5.5483043
  86.6228962  39.3885851  18.1282783  86.0756397  39.5765972  18.8907719
  86.3748074  38.5014033  17.8683007  46.7784455  95.5968197  86.0120122
  47.1005108  95.4181870  85.1284985  47.5649502  95.8058795  86.5159331
 107.5753307  60.5472517  30.6720924 107.6925373  61.3956547  31.0995317
 108.3182240  60.0233555  30.9718752  80.7568932  63.6729431   5.3265148
  79.8247242  63.4591341   5.3662890  80.8491516  64.1946936   4.5293337
  91.2649822  64.7212887  39.2455268  91.9776726  64.8915434  38.6296439
  90.4899597  65.0919437  38.8233972  93.7020302  86.4148712  11.4777708
  93.8426781  87.2409534  11.9404006  93.8114166  86.6365814  10.5530500
  11.6364338  98.8821276  80.0987898  12.2287133  98.8871392  79.3468557
  10.9102013  98.3204850  79.8279052  74.9205923  35.4531980  21.9973898
  75.6976128  35.3005004  21.4596605  74.3311691  35.9508681  21.4306974
  11.7935311  24.5938897  17.2128963  12.7261387  24.5628214  17.4262500
  11.3947331  25.0577521  17.9491150  35.9927679  20.1876232  87.6572877
  35.7074333  20.1424572  88.5698533  35.3271414  20.7222006  87.2243960
  88.5536149  87.9143914  87.3948397  87.8814080  88.4321269  87.8379290
  88.0675271  87.3721822  86.7735700  48.3849217  17.9076931  78.2292251
  47.9710270  17.9134008  79.0922921  49.3240715  17.9193852  78.4139018
  12.4618851  72.8385878  23.7053895  13.3652054  73.1517792  23.6590028
  11.9567524  73.6040926  23.9793801  13.9200451  99.2722472  74.1195826
  14.0107396  98.7614592  73.3151572  14.6599057  98.9985999  74.6617608
  42.5746132  20.0339815  79.6386723  42.9367138  19.4439003  78.9776747
  42.8939892  20.9004995  79.3869184 105.5140877  45.9462881  37.8180432
 105.5455971  45.7289553  36.8863750 106.3724136  45.6875134  38.1535125
 103.1721592  66.5939903  41.7102289 103.3943844  67.0423126  42.5262308
 102.3013973  66.2287378  41.8670845   9.1654240  57.2468710  17.0138240
   8.9614998  58.1352282  17.3061717   8.5930287  56.6853571  17.5366068
  83.4027863  52.8745127  34.7898388  83.9810276  53.5105276  34.3686986
  82.8908920  53.3913851  35.4119635 105.8592224  59.2275906  29.1726089
 106.1455059  59.7524023  29.9201679 105.6999779  58.3572817  29.5379019
  74.1742325  14.1066813   1.0575434  74.5956326  14.4843328   1.8295753
  74.4375467  14.6790099   0.3368943  95.0286579  91.4794159  24.3109131
  94.5613575  91.4998722  25.1460409  95.2949810  90.5658150  24.2077851
  65.8111668  32.3377180  15.0071180  65.9421015  32.0360804  15.9060633
  66.6963673  32.4645185  14.6656978 108.6902809  33.6383629  11.9712925
 108.7255287  34.3275285  11.3079381 108.5665512  34.1066933  12.7968776
  50.2602577  47.8777122   6.5727371  49.9983549  46.9572592   6.5526068
  49.4350576  48.3605766   6.6187519  89.8120117   7.8015441  29.2429805
  90.5551815   8.1960177  29.6993899  89.8842430   6.8659168  29.4317007
  87.0164585  68.0914545  17.6411366  86.3812828  68.0688190  16.9254041
  87.4148369  68.9596939  17.5804532  19.9006878  36.5856767  28.3548903
  18.9820229  36.8492436  28.4080362  20.0000321  36.2410641  27.4674201
  46.9220616  35.1327822  73.4376757  46.7714287  34.8242209  74.3311708
  47.0638825  34.3342707  72.9292421  78.2949352  29.6174455  17.6175714
  77.8940487  30.0759292  18.3560264  78.2703781  28.6937189  17.8672922
  88.6332035  52.6937675   4.0153933  87.9289055  53.0601072   3.4806100
  89.4103050  52.7502823   3.4593800  93.8117409  36.2915039  43.7722111
  94.5654297  36.8014812  44.0690565  93.0531311  36.7619586  44.1177607
  23.0388485  14.0121663  24.8395133  22.8208004  13.9292610  23.9111733
  23.8157688  14.5711029  24.8540783  63.5227753  12.7999804  86.8190879
  63.2464577  12.3290035  86.0329174  64.4478108  12.5755760  86.9200193
  75.7196569  43.0689478  14.0033960  75.1363516  42.9569674  13.2527649
  75.1337433  43.2617331  14.7353613  48.4237626  99.1771229  61.5422480
  48.8914540  99.1318472  62.3761861  47.8379300  98.4202393  61.5547912
  89.6232700  48.1123066  29.1917539  89.8713684  47.8124666  28.3172393
  88.6987209  48.3467102  29.1112518  89.2069530  57.7012682   4.4365415
  90.0020885  57.4956179   3.9449209  89.5207977  57.9538059   5.3048486
 106.2829748  72.7789839  73.5640650 106.8840567  72.0429119  73.4494870
 105.4400555  72.3712047  73.7626438  65.9242131  33.7278006  79.5272117
  66.5249230  34.1538164  80.1386748  65.2720429  33.3061335  80.0867628
  82.3770332  69.9355268  43.6993742  82.6427650  69.1601467  44.1937447
  83.1970882  70.3913879  43.5098219  59.6226454  75.4117155  41.4707375
  59.2399549  75.1713991  42.3145533  59.2488337  76.2706947  41.2741470
  77.8666878  44.4450378  15.3174770  77.5243711  43.6223125  14.9679458
  77.6793718  45.0909948  14.6363854 103.5626125  66.0216093  28.1475902
 103.6735630  65.3093052  27.5178766 103.3854103  65.5811024  28.9787221
  20.9349762  22.6535773   4.4467488  20.7626473  23.3266997   3.7883872
  20.1569592  22.6591444   5.0043225  99.9356937  38.3165622  28.3233428
  99.2768383  37.6223063  28.3357978 100.7616997  37.8600359  28.1635904
  77.5370789  29.9527502  37.5043035  77.5919533  30.7392836  38.0470586
  78.1152582  29.3234158  37.9354405 101.3356400  65.9307575  47.2430563
 101.7045403  66.6789865  46.7736959 101.0946560  65.3111649  46.5543842
  27.3920777  71.9018015  58.6711614  27.2551014  71.1994573  58.0354063
  28.3391526  72.0405587  58.6744325  92.9528522  57.9012775   4.9278110
  92.7815342  58.7998056   4.6458060  93.3419228  57.9932642   5.7975167
  89.5446682  87.7758121  20.7458735  89.0941334  88.5919285  20.9631586
  90.3558636  87.8076935  21.2530136 101.1025524  66.9439888  33.4607267
 100.4477787  67.2832346  32.8504705 101.9151020  67.3825169  33.2083559
  88.0566883  55.2004290  12.0755279  88.5419083  56.0048294  12.2592127
  88.6370754  54.6953773  11.5060413 109.3600178  37.9268312   8.1691027
 108.4087467  38.0291820   8.1977975 109.6927547  38.8152146   8.0414569
  25.3295948  68.4410533  66.5570538  24.4916012  68.8144001  66.8301813
  25.4996350  67.7446290  67.1913354  15.9786927  61.8946171   8.0306023
  15.1514756  61.4772892   7.7902222  15.9372746  61.9772959   8.9833248
  92.0312119  53.1923246  21.0412502  91.7305470  52.9356670  21.9130063
  92.6887608  53.8685751  21.2041497   0.7749783  67.1778011  39.2986178
   1.4831482  67.3462057  39.9202013   0.2339970  67.9667425  39.3323755
  17.5859978  90.0830468  65.1261966  17.1231701  90.0476583  64.2890756
  18.1513360  90.8521732  65.0549905  92.5922298  81.8528366   6.0133672
  91.6583157  82.0120907   6.1500257  92.7431488  80.9822941   6.3816005
  95.6559944  51.1369705  17.4018764  96.3969898  50.9141254  17.9653513
  94.8858356  50.8601141  17.8983009  14.2822300  44.1298056   6.5812653
  14.9161850  44.8242474   6.7604083  13.7714516  44.4569778   5.8407992
  79.8362637  62.7618837  28.4840059  78.9459181  62.9763794  28.7624073
  79.7722721  62.6599503  27.5344014  87.4233150  73.0394220  24.6963549
  87.4651814  73.5346079  25.5144429  86.5153599  73.1306410  24.4073582
  42.8134800   9.9300882  85.3071346  43.6130406   9.9284622  84.7808893
  42.1892906  10.4420540  84.7928302  60.0934935  72.4285889  35.6180096
  59.9371004  72.4562931  34.6740770  60.7637072  71.7544270  35.7300568
  86.2305737  28.9262271  19.3770730  86.5235806  28.2548261  18.7609577
  85.5382347  28.5010982  19.8831952   8.5503517  31.4228988  15.0051534
   9.2165314  32.0119214  15.3594017   9.0237747  30.6132364  14.8139560
  59.0481617  95.5451926  82.7330284  58.5093262  96.2411078  83.1093131
  59.9123623  95.9426507  82.6261996  96.8548203  24.2793107   5.3735960
  97.3606110  23.5062790   5.6242502  96.0381985  24.2015171   5.8668655
  51.9445374  99.7709473  78.2561331  52.8058197 100.1872595  78.2228129
  51.9408371  99.1683873  77.5124018  66.3333607  85.5674171  12.8018582
  65.4385471  85.8178616  13.0316877  66.2760735  85.2849865  11.8890691
  53.1740427  81.2771606  10.1226926  54.0661049  81.0927677  10.4167199
  52.7176428  81.5701675  10.9114110  81.4533424  43.9110374   8.4084547
  80.7658577  44.5036602   8.7124103  80.9805584  43.1743860   8.0210900
  67.7692795  87.7698517  41.0364532  68.1279469  88.6496735  41.1525965
  66.9808483  87.7590466  41.5791225 104.6914673  47.2571754   2.5545663
 104.7879887  46.8297720   1.7035434 104.8618698  46.5634489   3.1916958
   6.2028633  78.6393213  11.3956046   7.0602261  79.0294743  11.5657222
   6.1939465  78.4830475  10.4512894 108.9051437  40.6680059  47.0132685
 108.1453991  41.2290382  46.8574667 109.3845272  41.1041594  47.7176762
  89.4691658  22.2094178  27.0831227  90.3115273  22.2149754  27.5376892
  89.0922070  23.0698800  27.2668004  77.9768515  38.9732409  30.7248998
  78.4645224  38.1584907  30.8457065  78.6038876  39.5691824  30.3151321
  56.8310404  30.9737659  41.1170006  56.2264013  30.4945087  40.5504704
  57.1832371  31.6672707  40.5591106  14.7361790  48.2843399  23.0784678
  14.0363442  47.8395462  22.6003242  14.8216950  49.1327333  22.6435542
  26.9074109  97.8671893  87.3880786  26.8314793  97.8762253  88.3422193
  27.8227093  98.0901536  87.2185275  89.5881271  64.5354080  26.8833590
  89.7870255  64.4870663  25.9483027  88.6596107  64.3105173  26.9426584
  87.4754715  51.1810923  16.8955159  87.6713562  50.5050421  16.2468076
  88.2719803  51.7102528  16.9379628  58.3258677  74.0866280  22.9625130
  58.5890818  73.6968803  22.1288204  59.1062927  74.5493364  23.2675886
  88.2925892  30.6139684  19.8565400  88.8471889  29.9475265  20.2621245
  87.4913025  30.1469922  19.6196616  26.3166859  79.3999847  70.1380019
  25.7849267  79.5083626  70.9264986  25.9465649  80.0224503  69.5120816
   7.4192097 103.1376608  77.5620644   6.9559147 102.3140010  77.4098413
   7.5379899 103.5106286  76.6885548  88.6401176  65.1714516  34.9151397
  89.4872856  65.5754662  34.7272372  88.0091476  65.8857441  34.8263073
  83.6166954  52.8021431   7.0668238  84.4392586  53.2813406   7.1667355
  83.8652420  51.8809986   7.1439564  90.7451788  91.0868343  74.2661695
  90.1955668  91.8011340  74.5885675  90.2727762  90.7450088  73.5070746
  80.4223347  46.5873575  13.4312952  80.9182549  46.7617893  14.2312133
  80.0708008  45.7056665  13.5548913  14.0114914  17.9584336  12.5740480
  13.6893784  18.5014534  11.8546021  13.5242211  17.1386266  12.4921072
   8.8406216  31.2722301  30.9216237   9.2409073  32.1365666  30.8271432
   8.4720455  31.0833454  30.0586581  78.6809158  51.5983391  32.5241113
  79.5511866  51.7901278  32.8735089  78.7967777  51.6081190  31.5739989
  10.0234940  69.7920962  80.8508496  10.1966240  70.5472633  80.2887295
   9.6208146  69.1476079  80.2688526  72.9566526  62.9882288  44.0460682
  72.3988724  63.4890223  44.6413136  73.3481359  63.6475182  43.4730816
  84.0421200  73.5862923  46.0785055  83.2662582  73.1152582  46.3824606
  83.7310600  74.1080046  45.3387165  28.4535363  81.5884408  86.3194423
  28.5470822  81.0718235  85.5190765  28.4615567  80.9412035  87.0246026
  22.8615414  20.0619292  11.3549316  23.6772667  20.0573134  10.8541334
  22.2345196  20.5100846  10.7872725  71.1663008  49.1754103   7.0964158
  71.3926268  48.4643602   7.6959264  71.4011955  49.9727726   7.5710416
  62.8687334  83.1360912  32.5624251  61.9190025  83.2101631  32.6560140
  63.2111692  83.9413071  32.9504967  83.0886055  93.6784833  34.2067432
  84.0247132  93.7030410  34.4050908  82.8814389  92.7460753  34.1440964
  75.3461027  52.8589582  20.9376144  74.7307825  53.3073807  20.3575039
  76.1823654  52.8944635  20.4732418  23.1618096  20.3874609  85.4294022
  22.4540497  20.2165148  86.0507576  23.9227797  19.9450895  85.8055194
  31.0629227  75.7211646  76.0822909  31.5586236  75.3415521  76.8078296
  30.6908085  76.5264352  76.4418738 104.4216156  34.9494338  34.4452691
 104.6018887  35.2318716  33.5486293 105.1573658  34.3796444  34.6694040
  88.7568474  76.1117887  64.6227646  88.5980129  76.3604212  63.7121677
  89.6953678  76.2513971  64.7489500  95.4951382  55.7242107  13.7369680
  96.3220119  55.2424908  13.7157726  95.0469303  55.3964710  14.5166647
  68.3081127  17.3114607  84.9302201  67.7456928  17.9553196  85.3607540
  69.1627289  17.4235222  85.3465359  69.4408489  28.4828684  79.7215913
  68.6236168  28.6822435  80.1783405  69.3286968  28.8661501  78.8516800
 106.9768810  43.0445671  15.4671419 106.2080383  43.4377766  15.0542140
 107.7054977  43.6043119  15.1987433  18.3951428 102.0243081  47.3890488
  19.2056515 102.5332888  47.3731081  17.7689888 102.5853070  47.8466933
  65.6940651  38.6313438  29.3776369  66.0022497  37.9799843  28.7475705
  65.4045296  38.1172419  30.1313615  62.5835657  35.0417161  32.9863548
  62.1689320  35.1729465  33.8390517  61.9595003  35.4051352  32.3581028
  92.8017902  48.0227089  23.5681581  93.5981464  48.4982014  23.3316183
  92.1510315  48.3123589  22.9287434   8.2238041  99.0897179  46.8318129
   8.8561760  99.1256046  46.1141491   8.5976445  99.6536732  47.5088882
 101.2785339  76.2649298  18.8027346 101.4249325  76.0616732  17.8788912
 101.8172932  75.6307459  19.2757952  84.3621922  66.7506933  18.6826611
  84.0933704  66.4070559  17.8306770  85.2220535  67.1399498  18.5234392
   3.6977017  30.7433817  80.8456157   3.0939782  31.4765951  80.7266848
   3.2707226  30.1844427  81.4948569  81.5126324  82.5854492  20.4939485
  81.8998528  81.8378067  20.9492683  80.5815029  82.3722839  20.4322720
 106.5163231  31.5934467  18.9973938 107.3140335  31.6587543  19.5223939
 106.7993641  31.1793137  18.1821561  79.5478821  52.8272915  14.1061187
  79.9759483  53.3906078  14.7508430  79.3156862  52.0375919  14.5946753
  76.8255806  74.8372984  16.8394184  76.6283703  73.9486647  17.1355116
  75.9689045  75.2532768  16.7429852   2.3022972  48.5725117  54.8172998
   2.1320568  47.7014446  54.4588375   1.4842259  49.0509415  54.6827984
  12.3899685  32.2950673  27.0260048  12.0072590  31.4179373  27.0460987
  12.2397171  32.6015162  26.1317205 100.0435925  34.0000010  47.6341152
 100.2937698  34.3900347  48.4716845  99.5610809  33.2085967  47.8730488
 106.5212536  31.4875865  12.4321246 107.3341179  31.1166143  12.7754283
 106.6365337  32.4342561  12.5143063  95.6502914  46.4690399  12.7945721
  96.4877129  46.0187483  12.9050016  95.8614159  47.2426414  12.2718883
  82.1032619  73.7985563  23.1279039  81.6589355  74.3951893  23.7302589
  81.4902210  73.0722284  23.0145073  68.8551760  76.0412502  20.1306772
  68.0481529  76.3446236  19.7148490  69.0482759  75.2086115  19.6997917
  31.7129948 101.1955269  86.1303915  32.2958901 101.4829930  85.4276656
  30.9899285 101.8225201  86.1133538  21.0366665  85.5094910   1.9376542
  21.3339840  84.8846531   2.5990266  20.5506646  86.1690617   2.4326277
  94.8070526  69.5028210  19.4612539  95.5046177  69.6251011  18.8172948
  94.0404987  69.9177647  19.0657067  76.8261099  71.4818621  57.4884033
  77.5386477  71.1090231  56.9692516  76.5237999  70.7570362  58.0356407
   8.5040985  80.0503159  51.6605091   9.1523014  79.6548367  52.2433138
   8.9808117  80.2113914  50.8462381  96.6982174  66.8829060  55.7872391
  96.4455509  66.0055685  56.0747671  96.5852070  67.4312162  56.5636492
  72.7292204  93.6357307  19.8764622  73.6233473  93.7088585  19.5426738
  72.2231150  94.2472744  19.3415666 105.1715946  44.8378229  26.4558315
 104.9998093  43.9313078  26.2009764 104.3122578  45.1872396  26.6917968
  13.1991993  65.2766991   8.7583888  12.6120220  65.8716488   9.2247504
  13.6334835  65.8293247   8.1085867  57.3231865   0.9363243  84.4754420
  56.5813137   0.4517052  84.8373796  57.1471382   0.9768602  83.5354440
  99.0278912  29.0631151  31.6649389  99.5736885  28.3733702  31.2873197
  99.5365524  29.3922997  32.4059749  81.6697121  83.9594650   1.3099688
  81.1585522  84.7553349   1.1631753  82.2561455  83.9088249   0.5551393
  97.0350361  65.2116966  18.5215843  96.7317200  64.5874548  19.1807938
  96.3312435  65.8577061  18.4617233  58.9413525   6.4303133  87.7036292
  58.9160706   5.8287451  88.4477482  59.2124439   7.2670767  88.0812060
 109.2444420  67.1771908  24.6165609 108.5847759  66.5268612  24.3754148
 109.6515274  67.4246502  23.7863302  87.3302174  55.9813261  41.9927216
  87.3574162  56.7858505  42.5106287  87.3381901  55.2780914  42.6420498
  72.2602059  13.0967829  87.0512006  71.7009045  12.5894425  86.4629708
  72.1049095  12.7171251  87.9160570  83.9217472  76.4602518  52.5559378
  83.3038807  76.2558317  51.8540239  83.7230206  75.8239079  53.2428217
   0.9117352  76.8363380  24.3932486   0.1183735  77.2460842  24.7380853
   1.1019074  76.1277008  25.0079846  38.3813416  69.5569658   6.0597736
  37.7154766  70.2422857   6.1163402  38.5582768  69.4716787   5.1229435
  92.9314995  72.7623367  22.9937434  93.8047600  72.6510906  23.3696246
  92.4619579  71.9649839  23.2386780  18.9825760  29.2776990  22.3115778
  18.6031472  28.7672019  21.5962744  19.9111115  29.3474150  22.0897913
  96.2575340  63.2441902  20.1205063  95.3643990  63.5518265  19.9659312
  96.1505604  62.3466969  20.4356122  12.9830681  69.0206671  12.0031154
  12.7455937  68.1935120  11.5840065  12.3235928  69.1409683  12.6863778
  85.6724167  72.1422863   8.5981554  86.4063644  72.2764683   7.9985422
  86.0836029  71.9412136   9.4388247  57.1149040  33.0742666  86.7044026
  56.1742092  33.0116293  86.8699661  57.2022988  32.9310057  85.7620274
  38.3119729  83.4870919  81.5586011  39.2141297  83.8057049  81.5874116
  37.7765133  84.2764052  81.6392337  13.2961499  55.3521395  21.3012123
  14.2455231  55.4422712  21.2186813  12.9403435  56.0273695  20.7235503
  94.3458271  55.9813690   3.3929268  95.1371670  55.7569456   3.8824508
  93.9912224  56.7451811   3.8479948 106.9530106  55.3266859  14.8742688
 107.6816177  55.3684711  15.4936421 106.9784737  56.1674547  14.4174469
 104.9526215  28.3474350  22.9871511 104.8760223  28.8745689  22.1918583
 105.7287216  27.8063011  22.8419995  26.1881497  97.3607691  69.9079101
  26.5734150  96.6404351  69.4089882  26.5222123  98.1513079  69.4840209
  61.0282898  75.4589367  30.6108665  60.7105970  75.9700441  31.3552260
  60.2889299  75.4355240  30.0033879  79.9699783  79.1549397  29.8247719
  79.1070127  79.5667744  29.7810221  80.5321980  79.7200537  29.2948723
  90.7471825   9.3550512  87.1455169  91.6416146   9.0151903  87.1189240
  90.8534313  10.3031656  87.2231381  51.0592533   8.2478020  77.2564142
  50.2436520   8.5454294  77.6594500  51.4589287   9.0446875  76.9078939
  63.6998345  32.9733965  84.4159807  63.3456208  33.1134817  83.5378377
  64.3098236  33.6993620  84.5468117   5.8153378  72.3035431  26.3803220
   5.7508122  72.5964737  27.2893095   4.9264370  72.0308208  26.1528969
   0.5901181  25.6041741  24.9276590  -0.1437153  26.0310435  24.4855070
   1.2677323  26.2787318  24.9727726  98.5718632  35.4047179  26.7975020
  98.4949398  35.9030581  25.9838843  99.0927601  34.6375418  26.5601397
  14.8407971  31.1195540  36.5896702  14.2357384  31.4335513  37.2616315
  14.3055664  31.0497141  35.7991767  22.6022850  51.5169191   2.1951756
  22.1005570  51.7833614   1.4247797  23.0910336  50.7457304   1.9077405
  61.8752171  20.6439564  73.1953435  61.1465431  20.8145592  73.7921338
  61.6473843  21.1201498  72.3968701  22.8571179  96.0755309  83.7867688
  23.5800602  95.8446177  84.3700896  22.7505734  97.0200595  83.8996874
  92.9528046  96.2649250  32.8158140  92.9982281  95.6925774  33.5817075
  93.1916332  95.7005119  32.0805359  62.9823303  67.2906780  41.9109011
  62.5415564  68.1232357  42.0806026  63.9045429  67.4652672  42.0987225
  59.7401787  18.8185284  82.3898314  60.0491501  18.6237118  81.5050648
  60.1786972  18.1730816  82.9442094  99.3403721  43.5006905  28.3577061
  99.5305061  42.7872992  27.7484846  99.6333408  44.2896128  27.9016376
  88.1563854  82.5307369  26.5772915  87.7174950  82.5545120  25.7269764
  88.4322453  81.6198158  26.6790533   7.8479992  84.1996670  13.6760151
   8.0813347  85.1279831  13.6719787   7.4391495  84.0517616  12.8232539
  94.4179440  67.1218634  58.8561535  93.5071564  67.0165443  58.5811853
  94.6618557  66.2664318  59.2096663  28.1471589  92.7030572  78.8875084
  28.6050847  92.1252450  78.2770448  27.2446969  92.7211674  78.5689621
  23.1794319   2.8789915  45.2249193  22.7252255   3.0611719  46.0475588
  22.4777565   2.7681745  44.5833540  78.6586142  70.1223755  18.2528520
  78.8822746  69.4823074  17.5771892  79.3957043  70.0941658  18.8628817
  89.9692917  72.6819897  10.5938196  90.7059574  73.2931376  10.5860400
  89.6294022  72.7279234  11.4874613   4.3174683  65.9965277   5.0196242
   4.9303089  65.4859495   4.4905025   4.1629063  65.4566908   5.7948124
  94.9693298  59.8618460  55.2155828  95.5979252  59.3473101  54.7092676
  94.8261261  60.6492186  54.6904421 102.6821709  59.3564749  10.3442729
 102.9527569  59.0327454  11.2034678 103.4535408  59.2382574   9.7899747
  19.7675549  44.4138384  10.9084153  20.6845032  44.6555376  10.7779372
  19.7952973  43.7098646  11.5563989  13.0430065  61.1120462  17.6800811
  13.8962113  60.6834888  17.7479827  12.9128681  61.2390089  16.7403066
  80.5586243  69.0013504  34.0762949  80.4127026  68.4779692  34.8643398
  81.1873531  68.4928608  33.5640788  97.8726292  58.9150715  49.3164825
  98.5989761  58.3943272  48.9737368  98.2359505  59.7946978  49.4188786
  92.1144772  68.0821085   5.7749248  91.4570236  68.5579395   5.2673978
  92.2073650  68.5890102   6.5815544  14.1451966  40.7738352   0.2113337
  13.6319195  40.5155563  -0.5542149  14.4284188  39.9462676   0.6001193
  53.5029961  28.3795044  79.5258449  53.8112618  27.8948900  78.7601035
  52.9605557  29.0800211  79.1635399  47.9536202  76.2805637  71.2337034
  47.8398468  75.3674396  71.4973121  48.7324765  76.5715178  71.7080026
  79.9451208  82.4126148  79.4032717  80.3412151  83.1924915  79.0145254
  79.0063477  82.5187588  79.2494488  20.7570206  78.5758829  20.4962444
  21.5584599  78.1168938  20.7477617  21.0632168  79.3690872  20.0565767
  75.8164549  58.4163237  44.8913860  75.1084852  57.8474760  45.1937580
  76.5260410  58.2685518  45.5165958   0.9276329  87.2127819   4.5611322
   0.8810936  87.0675755   3.6161548   1.0515152  88.1575203   4.6524748
  37.9259855  66.6684702   0.9667928  38.1284504  65.8213129   1.3637407
  38.7378891  66.9294718   0.5321367  12.3044550  58.2058048  30.2270055
  12.5946140  58.5392332  29.3779683  12.4152362  58.9448643  30.8251262
   5.7974392  50.8480072  65.0620079   5.2394056  51.5237999  64.6771193
   6.3562202  50.5592346  64.3404770  85.9874270   3.5071842  18.1333311
  85.6653318   2.6074211  18.0793150  85.4984877   3.8933889  18.8599832
   6.5936518  24.5121598  60.9966850   6.2757808  25.1218057  60.3307104
   7.2349000  25.0169206  61.4969349   8.9561504  37.3902106  86.1357403
   9.9029940  37.2504640  86.1219501   8.8306338  38.1205606  86.7416000
  22.9194856  61.2113428  42.4209404  23.3824635  61.4868402  41.6297483
  22.3692870  60.4821873  42.1348524  75.6412882   3.4263650   3.5915811
  74.7936249   3.0774967   3.3159120  76.0429112   3.7460653   2.7836664
   3.8707733  58.8064051  50.4241896   3.7410772  57.9503775  50.8323908
   4.1325670  59.3785429  51.1455441   6.0381263  29.9316382  61.1286783
   5.7828879  29.6839285  60.2400160   6.1341792  29.0990901  61.5911388
   5.8958018  42.3980236  80.2351284   5.4509974  41.9108772  80.9287167
   5.7024419  43.3159924  80.4253197  46.6669546  95.6792953   4.5465143
  46.8360029  95.6760290   5.4886682  47.0960711  96.4738014   4.2289407
   1.9536074  34.2363063  15.3586919   1.0350856  34.4874183  15.2612646
   2.3576602  34.4779292  14.5252664 108.0167537  66.0438299  82.6711941
 107.9770107  65.1538610  82.3210430 107.1019028  66.2853336  82.8159523
  79.1117004  31.7728034  19.6648367  80.0444416  31.7441646  19.4517477
  79.0283797  31.2301628  20.4489477  19.5921922  67.7450943  57.7437305
  19.4955242  68.6804962  57.5651026  20.2106547  67.7031946  58.4731007
  38.4087241  95.9477928  22.7122171  38.6260942  96.7662695  22.2660310
  38.8186810  95.2675608  22.1779401  80.7799448  80.9747505  69.4487333
  80.7743014  80.7127762  70.3693676  80.8818568  81.9262505  69.4710970
  44.1946385  31.1595813   7.2660120  43.6428425  31.9247333   7.1038778
  45.0695488  31.5209857   7.4079759  11.9891417  62.5494671  49.1705942
  12.3372090  61.8545437  48.6118793  12.7653456  62.9888773  49.5179558
  28.1843424  52.6661539  50.6037951  28.7156248  51.9571066  50.9660387
  27.3502159  52.2517252  50.3830767  13.4722507  47.0718479  85.3758335
  13.1065118  47.8123236  84.8919201  13.1737316  46.3002157  84.8944759
  21.6866112  49.9943829  63.6444521  20.7302713  49.9576235  63.6273050
  21.9034839  50.8043671  63.1827974  22.5046039  56.3170385  73.0113029
  22.3507094  56.1723948  73.9449120  23.4229994  56.0810614  72.8805637
  29.3669819  92.2663525  23.3567007  28.8209270  91.5448263  23.0445154
  29.4443338  92.1177843  24.2991312  18.3885109  70.2678061  47.4258757
  18.0211258  71.0097647  47.9062510  18.4333766  70.5686378  46.5182877
 101.9654955  90.9081650  76.3801241 102.0972873  89.9747372  76.5461588
 101.5461249  90.9416294  75.5203342  15.4436266  86.6770554  72.5611067
  15.4756844  87.5390911  72.1462536  15.5958843  86.8523407  73.4897232
  99.3051220  72.2938490  67.3236036  98.6667002  72.9761410  67.1159220
  99.0455533  71.5496302  66.7804718  17.7633175  49.2561809  27.2846182
  17.5220140  49.9346248  27.9152639  16.9270834  48.9288703  26.9532354
  61.4637802  20.1538221  10.4278238  61.2632999  19.9781219  11.3471563
  61.5938423  19.2878429  10.0413091  37.3276685   2.3679365  36.3751459
  36.3783165   2.2457326  36.3805795  37.5240985   2.7559198  37.2278571
  58.3281145   8.6798898  25.1967199  58.2459149   9.3213025  25.9024580
  58.6220894   9.1903058  24.4422109  12.4546051  77.4572802  55.2448988
  12.3600721  78.0171585  56.0155058  11.6339588  76.9663095  55.2034330
  91.9696809  82.0695972  83.5807896  91.7487825  81.3357830  84.1543388
  91.5672840  81.8470001  82.7412891  87.5575397   8.6907760  16.0917623
  86.7044160   8.2732288  16.2103613  87.3966668   9.6180908  16.2662370
 106.7031653  66.5471363  87.0506096 106.1522708  67.3026276  86.8457222
 106.9471617  66.6703701  87.9679489  31.5011311  66.9187117  62.9755592
  32.0364451  67.6538277  63.2743454  30.6005573  67.2367287  63.0393171
  71.8160302  12.7358667  25.7051332  71.6311791  13.6425773  25.4603155
  72.1683698  12.3396722  24.9081857   8.2944709  36.4153409  80.9561920
   7.3707891  36.5573144  80.7491016   8.7407339  36.4714146  80.1112461
  88.2887305  71.3590097  77.4572515  88.0322159  71.5520906  76.5555048
  88.3544768  70.4045820  77.4884319  20.0995111  61.1717463  74.3330765
  20.1670504  61.4485931  75.2468777  20.2983809  60.2356052  74.3511057
  64.5996509  10.0676528  19.8000009  64.7135482   9.1482393  20.0406892
  63.7097195  10.1153318  19.4507368   2.5085720  68.3294821  65.3297615
   1.9418386  67.5931025  65.5595303   2.1801007  68.6291170  64.4820833
  52.0010961  89.2416096  54.7540426  52.2837843  90.0445557  54.3163252
  51.3378538  89.5311260  55.3805590  15.9599960  56.1433601  60.2456665
  16.5541363  56.8938112  60.2383614  15.2381504  56.4148760  60.8126354
   2.3968937  56.3818502  64.0266085   3.3466774  56.2881994  63.9533186
   2.2699091  57.2589207  64.3883467 108.4273079  89.1968727  50.8596230
 108.4867608  89.9643993  50.2907610 108.7735219  88.4787273  50.3298759
  18.0779970  67.5385523  81.1503696  18.0838764  66.7336750  81.6684246
  17.7004313  67.2795868  80.3097725  97.9801465  48.4675741  81.2340355
  97.4978043  47.6460838  81.3274670  97.5960542  48.8844490  80.4627228
   0.1213992  70.1596451  71.7057610  -0.5946570  70.6082058  71.2559938
   0.6224554  69.7444963  71.0037422  97.3890653 102.0940418  69.3908501
  97.1688499 101.5556889  68.6306429  96.5484490 102.4394650  69.6913147
   1.7055792  70.4377842  86.3397026   2.4664083  70.1092434  86.8186951
   1.6372867  69.8644257  85.5762768  20.0624323  89.6546364  75.0013971
  20.5091524  88.8362694  75.2180719  20.7008886  90.3376293  75.2066278
  14.4546235  83.8243103  74.6627235  13.7022603  83.3182812  74.3559456
  14.1187358  84.7147942  74.7649336  63.7108186  23.1771127   5.5584009
  64.3546251  23.8846818   5.5914648  63.8136414  22.7205316   6.3933904
 102.7077581  61.7566967  82.1226978 102.9123355  61.9862652  83.0291653
 103.2622505  62.3344517  81.5983200 107.5499290  46.2860584  48.7198734
 107.7320592  46.9100523  49.4225073 106.6720284  45.9572029  48.9131975
  18.8647758  90.7438066  19.0720518  19.5013188  90.1178124  19.4172723
  18.9289795  90.6511333  18.1215150 106.4616586  76.9414806  72.2966480
 106.9358088  77.7183342  72.5931501 105.6208770  77.2778797  71.9865656
 103.3540819  11.2992278   1.6609914 104.2991827  11.3282482   1.8098982
 103.1916258  10.4180900   1.3241823  12.8676748  65.8244419  56.1094999
  13.4267354  65.8489275  55.3329134  13.3025193  65.2076435  56.6983128
 105.6760962  59.9195719  84.2046165 105.2803446  59.3449879  84.8599529
 106.4356587  59.4319677  83.8859558  50.3977177  25.6622068  26.6599996
  50.8984063  24.9685756  27.0894487  50.2226684  25.3229228  25.7822378
 100.6120552  60.0786495  80.9168339 100.3625960  60.7126808  80.2445221
 101.1772705  60.5708218  81.5122604  20.4871392  95.0571442  84.8064041
  21.3119936  95.3476620  84.4172382  19.8470485  95.7119846  84.5276642
  98.2977403  91.7522717  82.8462315  97.7443982  91.7124462  82.0661926
  98.4671212  92.6858902  82.9723167  81.7728985  78.3750439  77.2936773
  81.3816203  77.5115395  77.1613884  82.2962059  78.2814646  78.0896807
  89.4323657   7.9713766  19.2117269  88.8018153   8.6668388  19.3987329
  89.1345713   7.5943414  18.3838422  96.2325622  76.8169880  74.8136091
  96.7175068  76.1256981  74.3628550  96.7776061  77.5972605  74.7119570
  48.7640975  44.9696628   6.0732134  49.7047207  44.8560802   6.2094362
  48.4845564  45.5358497   6.7926080 101.4365003  21.5957919   0.3081567
 100.6491015  22.1399585   0.3189714 101.1676190  20.7771341   0.7249696
 104.0797422  15.3564159  26.1203344 103.6418436  15.2420799  26.9637830
 103.5074494  15.9478799  25.6315763  20.2418542  68.0003214  75.3218031
  19.7446990  68.1258440  74.5135260  20.0565147  67.0971966  75.5791903
  71.6692262  22.1850006   3.7631471  72.2115926  22.2388593   4.5500143
  72.2966739  22.1034233   3.0448969  13.4401940  10.6131853  76.4364195
  13.5725139  11.1262525  75.6392431  14.1456507   9.9663270  76.4247894
  52.3410151  16.1254350   7.9294927  53.2589695  16.3745586   8.0368669
  51.8486807  16.8814412   8.2493265  18.3170915  59.3903923  62.9798079
  19.2265344  59.4029617  63.2781172  17.8691459  58.8163090  63.6010981
  24.7433352  26.9706678  43.4414721  25.2900481  27.7555180  43.4781933
  23.9469934  27.2542882  42.9924393  50.2505921  12.4005140  68.5431433
  51.0746764  11.9488252  68.3612299  50.4320191  13.3191122  68.3444166
 104.2042563   6.0735456   3.1543024 104.2538450   5.4648057   2.4172742
 103.8092706   6.8638603   2.7860315  89.2053947  27.4148742  36.4710004
  89.1821811  28.1460039  37.0883615  88.6268780  26.7571060  36.8568666
  99.0317703  60.6980038  74.2697382  98.9824392  59.7452641  74.1917229
  98.6181654  60.8911657  75.1110792  88.9090476  10.2926675   0.5167253
  89.7393045   9.8263065   0.4197176  89.0062616  11.0713521  -0.0313895
  66.5273032  15.5971662  19.2153700  66.7941639  15.4626600  20.1247175
  67.3019711  15.9652654  18.7903650  12.7244329  81.3617611  51.6180182
  13.1553745  82.2075272  51.7413378  12.9055810  80.8806610  52.4254560
  25.1651955  32.3026252  70.5030775  25.8442020  32.8456283  70.1026630
  24.3970776  32.4304199  69.9463987  88.0155863  61.8030643  65.5834198
  87.1637882  61.3682032  65.6229782  87.8165902  62.7312469  65.7063580
  83.5309519  45.6419182  77.7932644  84.1757549  44.9434996  77.9058456
  83.2809366  45.8831263  78.6851931  83.0165908   3.5626260   2.8254469
  82.7533064   2.6583425   2.9962785  83.3135042   3.5578004   1.9154699
  27.2293377  75.0242662  74.5788860  27.4181151  74.3990755  73.8790798
  26.3241625  75.2931643  74.4220877  78.8655523  23.2452146   3.7365301
  78.5259298  22.3750440   3.9455564  78.5446635  23.4214727   2.8521116
   9.2283338  49.1663456  34.9725342   9.7636604  49.9598217  34.9650764
   9.5904619  48.6397982  35.6851649  51.3729069  14.7349969  44.2820413
  51.6957686  13.9341442  43.8689668  51.2934635  15.3606407  43.5619791
   4.3090358  69.3427467  48.2854414   3.8625538  70.0706148  48.7179852
   5.2253246  69.4346380  48.5466003  75.2995898  23.7020580   3.7345464
  75.4014689  24.5687572   4.1278513  76.1927516  23.3656446   3.6616094
 104.9040220  30.2910129   4.6619566 105.8587668  30.3116504   4.7272737
 104.5988224  30.5865947   5.5196912  43.4613464  19.1083995   3.6887605
  43.6656711  19.9164049   4.1595228  44.0483162  18.4547798   4.0688665
  66.7163882  40.0260059  18.4607370  66.5719537  40.1672546  17.5250967
  67.6185713  40.3092662  18.6092622  47.3436533  10.8520902  81.7982674
  47.7448283  11.1240686  80.9728432  47.8703879  11.2802900  82.4731159
  81.6395391  64.2734337  85.4816437  81.5351118  64.0288401  86.4011478
  82.2054638  65.0451565  85.5018616  58.5488508  18.9315359   8.1500585
  59.4950209  19.0761844   8.1415994  58.3398256  18.7676135   9.0696581
  91.5829799   7.2906724  10.0760229  90.7822869   7.4287168   9.5699937
  92.2031698   6.9217864   9.4471128 103.6045811  63.4775249   6.9686945
 103.2836435  64.3204013   7.2892912 102.9389236  62.8472701   7.2442205
  42.3612432   4.7242082  66.6323614  43.0267732   5.4083551  66.5599442
  41.5518545   5.1459230  66.3437796  21.1622405  43.4842014  52.3043728
  21.8146896  42.9130745  52.7097845  20.9559774  43.0590820  51.4719296
  18.7894988  48.0244017  86.6481972  18.0544925  47.5662565  86.2406445
  19.5507908  47.4785900  86.4513302   8.7545735  46.1442947  63.0967522
   8.7056518  46.2523413  64.0465736   8.7985945  45.1971769  62.9653883
  13.8755858  95.2590275  50.4883718  14.2977107  96.1132431  50.5798340
  14.5206308  94.7210312  50.0293398  41.8072300 102.1950081  31.3756712
  41.3701646 101.5185955  30.8583028  42.0990394 101.7408111  32.1661050
   8.6138791  46.5634394  68.3512592   8.2014006  46.8880558  69.1517067
   8.2926798  45.6660461  68.2632589  60.5840825  99.0664366  28.9884145
  61.4474725  98.8750532  29.3546922  60.5912970 100.0119617  28.8395364
   0.8282173  47.6012754  60.2517843   0.5451519  48.4798336  60.5052519
   1.7749885  47.6792336  60.1344013  96.7583869  54.6977226  18.7800176
  96.9574258  54.0334884  18.1201608  95.8021638  54.7189990  18.8176115
  95.2587296  70.9326649  75.2716160  95.0692214  71.7233133  75.7767820
  95.5557836  71.2570763  74.4214725  27.6899179   3.0836049  13.4099634
  27.7182325   3.7430660  14.1031702  28.5083088   2.5970642  13.5086591
   7.0627970  61.1072206  59.7575903   7.9014277  60.8342266  59.3855619
   6.4247882  60.5018234  59.3798637  93.9564718  75.4483080  51.7439747
  94.1269137  74.5216036  51.9124937  94.7740699  75.8883762  51.9765759
 107.3875148  99.8226166  82.5633240 106.9516205  98.9704418  82.5594521
 107.7453395  99.9046040  83.4473324  97.3655642  54.1744804  82.9345036
  97.4807335  54.9745131  83.4472561  97.8019048  54.3582726  82.1026039
  91.0432086  38.5736171   5.3982504  91.6327069  37.8281967   5.5125768
  91.2636933  39.1658012   6.1172254  32.4496531  50.9833145  72.0420647
  33.3428645  50.9730339  72.3860121  32.2765684  51.9054651  71.8525648
  99.0292014  72.3551464  63.3456278  98.7924124  71.4712000  63.6263466
  98.6063815  72.4569750  62.4929380   1.8561275  51.5502310  87.3802471
   2.3412329  52.3579645  87.2115231   1.1400643  51.8168783  87.9567814
  87.3723576  13.5750715  18.1531389  87.4437664  14.5252983  18.0625494
  87.4829302  13.4148351  19.0903242  18.9339256  76.1388731  80.5877399
  19.5394397  76.2701273  81.3173676  18.5487831  75.2773762  80.7481289
   9.3336010  41.5332031  66.2866688   9.9318147  41.6221714  67.0285988
   9.0616745  40.6156635  66.3069439  14.4412720  70.4040194  84.3683243
  14.1354847  69.7746944  85.0215340  15.0896835  70.9342003  84.8316860
  29.8745894  70.2440643  63.0073595  30.5030775  70.9623146  62.9342079
  29.0712309  70.6597281  63.3205223  11.9947004  25.2056503  52.7773237
  12.2390771  25.9886765  53.2706642  11.2873340  25.4963160  52.2016716
  12.1452308  80.9982204  73.2116079  11.3760543  80.7113838  72.7193451
  12.0213902  81.9409943  73.3214998   3.8110933  71.3341045  60.1553154
   3.4854743  71.0753012  61.0174227   4.3682554  72.0931149  60.3276825
  24.6950054  24.5587492  16.9305956  24.6344876  23.7396598  17.4221873
  25.3566718  25.0696206  17.3968983  63.8114737   1.4570440  82.7266026
  64.0824984   2.0283712  83.4451866  64.4261931   1.6533578  82.0196247
  17.0936131  94.9422646  77.9702616  16.3927317  95.5124664  77.6542473
  17.0002222  94.1403770  77.4559736  53.0154130  44.8587123  10.5600031
  52.1528552  45.0070659  10.9475763  52.9406128  45.2032939   9.6701105
  13.2434177  99.6502209  84.8763752  12.9825020  99.1251373  84.1197777
  12.4170589  99.9295235  85.2705288  27.0018196  74.7576046  81.3381100
  26.5103436  73.9870787  81.0535526  27.5539994  74.9797869  80.5884743
  74.4216942   8.9200796  70.8837223  74.1235851   9.1494287  71.7639256
  74.4603776   7.9636587  70.8855677  13.1892537   6.4456476  78.7036324
  14.0042042   6.0329069  78.4177351  12.7499794   5.7731546  79.2242289
  82.0184836  48.3060924  24.8938520  81.5526412  47.6121990  24.4272382
  82.8786538  48.3404533  24.4753320   9.1108191  96.8270874  72.8795195
   9.3530619  96.0602760  73.3987141   9.9456906  97.2386074  72.6562023
  94.4034947  61.9948673  83.5575008  93.8886608  62.4235773  84.2411613
  94.5960809  62.6917362  82.9301929  95.0839235  92.7849388  82.7578449
  95.4282547  92.0781708  82.2118282  94.7447265  92.3428059  83.5361099
  95.4307700  99.5915222  45.0353003  95.0929905  98.9042664  45.6096029
  96.1305739  99.1666794  44.5392990   8.3107933  59.3828479   9.1533907
   7.4679884  59.0250675   8.8742788   8.0844959  60.1689330   9.6504743
  78.3911918   5.2260793  21.9277978  77.8971266   4.9553979  21.1539340
  77.7263807   5.3495992  22.6052928  95.2253149  72.5922386  24.6667535
  96.0861847  72.2251312  24.4658430  95.0449703  72.3041145  25.5615671
  95.6229494  19.8264829   1.6364153  95.2977059  20.7096664   1.4619787
  94.9182818  19.4044773   2.1279295  14.4641113  64.8793268  65.5748844
  14.3956423  64.4221258  64.7367287  15.0748312  64.3496752  66.0874462
   2.6057965  77.0780039  84.6962357   1.9868600  76.8356752  84.0074444
   2.0775235  77.5557423  85.3357029  62.6059340  96.1397961   3.6939771
  63.2806586  96.5423038   4.2407568  61.8192743  96.1481741   4.2392500
  51.4609621  48.9811794   1.1850984  51.0034034  49.7742454   0.9059484
  52.0765922  49.2824737   1.8532713  51.8772696  18.5063470  88.2954597
  51.3777481  19.1693700  88.7720108  52.7910792  18.6965288  88.5076237
   8.9922464  99.7191620  87.6802254   8.5603505  99.7647858  86.8272209
   8.8141209  98.8317680  87.9917240  61.3547753   7.6760782  74.6866512
  61.3125848   8.5245813  75.1276588  62.2906278   7.5147737  74.5666790
   7.3751377   1.3002695  85.1740360   8.1795858   0.9290517  85.5363846
   7.3228501   0.9403146  84.2886448  83.5062239  32.2975627   3.7523897
  83.0497382  31.5160743   4.0640504  84.2450533  32.3986808   4.3525083
  31.5772009  54.2511988  62.6715422  31.3054156  55.1469612  62.4716043
  32.1980691  54.3448973  63.3940220  77.9684124  63.7460700   9.0139063
  77.2560609  63.2721034   9.4430215  78.7048433  63.1347362   9.0269144
  37.3569987  46.8335906   1.5595396  38.1899760  46.6283790   1.9841249
  37.3822067  46.3476554   0.7352502  90.2522252  50.6350318  16.2924154
  91.1313305  50.6743137  15.9157617  90.3921232  50.7149497  17.2359522
   5.3179294  51.5856028  62.2684479   5.0008166  50.6835985  62.3138618
   6.2714815  51.5037155  62.2521973  84.6596429  51.6545001   2.8676088
  84.7337065  52.3141376   2.1779497  83.7981555  51.8089000   3.2552011
  34.3113542 101.8645859  77.3273325  33.7924314 102.3827171  77.9425478
  33.7433052 101.7594147  76.5641212   6.6422325  79.5247126  16.9082260
   5.6923598  79.4506550  16.8160927   6.7724937  79.8347378  17.8044116
   0.1161894  38.0105392  14.0504606  -0.0036303  38.4261791  13.1965692
   1.0346183  37.7410022  14.0588720  48.3268605   7.9295553  71.0298777
  49.1881536   8.3133996  70.8653545  48.2754337   7.1887792  70.4258585
  62.0872448  20.8265964  27.0189436  62.7767942  20.3561012  26.5505560
  61.2724755  20.4446832  26.6925676 103.3312054  83.4916210  86.7861843
 102.8139819  83.0559254  86.1087704 103.7506111  82.7763462  87.2644329
  29.7705770  62.8149843  65.3818703  30.1364708  62.9542112  66.2553549
  30.3366065  63.3236074  64.8012304  43.7918167   3.1891359  72.3662567
  44.0107130   3.9474786  72.9077625  43.4059100   3.5636438  71.5743923
  92.3114190  38.5727493  30.5607946  91.7983434  39.2830745  30.1755197
  92.0830259  37.8026573  30.0401933  87.4944708  36.3671485   8.0660494
  87.0424650  35.9056846   8.7724359  86.8107674  36.8871585   7.6437147
   3.3537516  63.8960743  70.0864649   2.4721746  64.0110826  70.4411888
   3.5724992  64.7475195  69.7077465  63.4702538   1.3978590  78.1316996
  64.0117143   1.5796483  78.8998175  63.4017252   0.4434217  78.1074190
   3.9096534  89.6104908  81.5291691   4.2676547  88.7370872  81.6880512
   3.2486793  89.7262287  82.2117805  76.6324351  18.6461774  34.9317415
  77.4047962  18.5432140  35.4876955  76.3280404  17.7520172  34.7766550
  28.8883281  80.8108807  64.6759367  29.3871093  80.0610733  64.3515301
  29.4680929  81.5605354  64.5413446  60.5144428  10.3776849  60.3861189
  60.7937788  10.6638731  61.2557745  61.2128733  10.6717981  59.8013735
  55.5820560  83.4566975  72.6375055  54.9162865  83.0422115  73.1863070
  55.3211117  83.2429028  71.7417240  15.3409561  11.9107143   5.6020887
  15.3752025  12.7547351   6.0523088  14.6885427  11.4063255   6.0880716
  54.2827665  22.6653970  82.9120541  55.1441239  23.0621828  83.0418873
  53.9108049  23.1386102  82.1677780  93.0226351  73.2427692  83.8753510
  93.7647821  72.6914358  84.1232967  93.4183301  74.0754747  83.6179352
  28.4837835  22.6821245  68.8417435  28.3317541  22.2849954  69.6993017
  27.7440088  22.3911966  68.3085251  88.4228171  69.1209269  59.9662113
  88.4454168  68.5766792  60.7533073  88.5748781  70.0103712  60.2855921
 100.9484456   2.3498670  20.5692251 101.8959806   2.4457828  20.4732664
 100.5978773   3.2163183  20.3628500  46.6292166   6.6574014  54.9623489
  46.7662596   6.9314111  55.8691931  46.5695881   5.7030977  55.0068951
   6.7021710  66.5987921  75.1530218   7.6324487  66.7123413  75.3477573
   6.3080919  66.3663960  75.9938097 108.9173195  41.0444347   3.2351453
 109.4559715  40.9010021   4.0132959 109.1928456  40.3612987   2.6238783
  88.0872859  73.7204266  75.1219177  87.7640713  74.4994211  74.6692181
  88.8535274  74.0261459  75.6073475  33.9960170  75.8972168  83.9309311
  33.4128189  75.1755714  84.1661739  34.5902395  75.9778976  84.6770000
  27.8059840  87.6701355  46.0568094  28.5706568  88.0310917  45.6082392
  27.4660873  88.3994198  46.5753174  43.4407573   4.7618211  77.8163099
  43.6199068   5.6791032  77.6096058  43.5145770   4.7122301  78.7693691
  12.4187922  94.0743637  62.1922684  12.4445307  95.0191116  62.3440123
  11.5494549  93.8074017  62.4909544  60.3439854  20.6852067  46.7870808
  60.7622813  20.7484163  47.6457214  61.0722350  20.6764425  46.1659479
  23.8711858  77.9545879  62.5756550  24.0369582  77.2280645  61.9748878
  23.5994148  78.6766434  62.0090723  57.7161549  29.1806520  76.2443018
  57.5711344  28.4345067  75.6625175  58.5683559  29.5277990  75.9807158
  26.4025283  98.6685658  49.0240002  26.3061190  99.3724155  49.6655035
  26.7212200  99.1060448  48.2345200  93.7845136  66.6288042  64.7751951
  92.8697957  66.6394520  64.4933987  93.8320507  65.9116268  65.4073572
 105.0398944  90.9615517  61.0852766 105.6884940  91.3836575  61.6486406
 104.2501272  90.9130478  61.6239309  99.1175522  84.1727257  62.4987316
  98.5851575  83.9826584  61.7262936  98.7494672  83.6172581  63.1859064
  72.5580370  33.3369914  19.6127470  71.6264886  33.5468665  19.6790941
  73.0014442  34.1782657  19.7217710  75.4656032   7.4031249  26.2960870
  75.5408812   7.2689334  25.3513391  74.5589443   7.6806871  26.4270933
  19.9850678  71.7452478  68.8035583  20.7468271  72.3029709  68.6457729
  19.9981248  71.5832186  69.7468567  58.9641571  69.8374939  49.1864824
  58.6845016  70.5583954  49.7506809  59.5431662  70.2471447  48.5437012
  40.3501089   0.3329957  83.1179714  40.5552973   0.1432432  84.0334606
  41.1433603   0.0916208  82.6397228  71.6496076  35.8423320  11.9479520
  71.9801004  36.6336719  11.5227564  72.0155268  35.1231471  11.4330633
  14.5135903  95.4253006  54.6191549  13.9820671  95.5954742  53.8414907
  13.8788342  95.1935482  55.2970982  90.7535169  80.9500400  10.7395227
  90.6729565  81.8961326  10.8605821  89.8912177  80.6047145  10.9706552
  75.0698150  95.5301094  54.6107674  75.2999033  96.3705540  55.0069284
  74.1324891  95.4343796  54.7795391   5.3519195  89.6145058  57.9144907
   4.4636557  89.3104458  57.7280235   5.4652202  90.3816509  57.3533487
  74.5339028  60.1060382  21.7203767  75.2192775  60.0353614  21.0559232
  74.0828372  60.9244625  21.5130956  63.8427845   6.3724891   5.6971223
  63.9037708   6.4834348   4.7483308  64.3482361   7.1015970   6.0565050
  35.7365179  72.4846268  70.2958441  36.1923647  71.6447115  70.2412844
  35.9643960  72.9341221  69.4820499  25.5503212  21.4142908  75.7790089
  24.8602902  21.0482133  75.2257681  26.0422443  20.6520189  76.0842562
  37.6607466  94.1458702  50.9776974  37.9605818  93.3271503  50.5826998
  37.8267407  94.0350342  51.9138527  95.9666897  96.9414330  18.2127786
  96.6729726  97.5854492  18.1613708  95.1812948  97.4605751  18.3856261
   2.1247034  84.7657871  60.5198622   2.3755531  85.2481651  59.7320700
   2.8091878  84.9733925  61.1559534  81.9912018  70.9836674  51.8626690
  81.1912550  71.0465479  51.3407898  82.6769031  70.7805395  51.2264395
  65.0276241   3.7255327  27.0720728  64.9290160   3.8192264  26.1245783
  64.4747738   2.9773847  27.2975881  27.4603462  97.4624252  84.0522194
  27.2756743  96.9065475  84.8092651  26.7698336  97.2493744  83.4245014
  29.6439171  89.7317886  61.8702602  28.8074636  90.1715565  61.7179918
  29.4315481  88.7987232  61.8477297  39.9676355   0.5868066  63.4412527
  40.1319976   1.4026655  63.9141083  40.6837617   0.0088705  63.7046576
  70.9750353  45.3787795  22.6941164  71.2159528  45.9702197  23.4071405
  71.2247645  45.8486549  21.8984563  16.7378569  99.3323135  64.7481871
  16.2836874  98.5667419  64.3962526  16.0588431 100.0036049  64.8156071
  48.0590057  99.2553234  72.0727539  48.5948563  99.8768616  71.5800238
  47.7828026  99.7408199  72.8500795  95.1411427  92.2262192  85.9385967
  94.4148852  91.6365910  86.1413765  95.7436157  91.6941929  85.4187870
  11.3031420  63.8904086  11.5572508  11.5186008  63.5615627  12.4299867
  10.3483852  63.8399211  11.5112455  70.4551624   6.8635667  72.6615906
  69.9099921   6.1443437  72.9805565  69.8306369   7.5081838  72.3289251
  55.5927705   3.9425004  68.0472469  55.0893198   3.6631978  68.8119411
  55.0566005   4.6251119  67.6437664  21.3859463  87.9582024  72.5213718
  21.7189145  88.0023861  73.4177017  21.2576866  88.8723564  72.2681808
  64.8155705  58.7936393  11.6520364  65.5942962  59.0047733  11.1370237
  64.1645286  58.5263912  11.0032327  13.0820354  13.8312999  43.7848528
  12.2232565  13.7794486  44.2044313  13.5019811  14.5891944  44.1916425
  16.4906788  94.9736214  85.0368404  16.9375443  95.5228424  85.6809616
  17.1228015  94.2855072  84.8291016  55.7473609  12.4727479  24.4076307
  55.9124730  12.3601095  25.3437288  54.8459265  12.7911512  24.3600233
  96.3411463  68.6828947  72.8423023  95.8083869  68.5153389  72.0649195
  95.9562362  68.1279469  73.5206175  74.4101397   3.9952604   5.9482153
  75.0796074   3.8074724   5.2903516  73.5894117   4.0145008   5.4560049
  97.1140120  30.3778831   4.2670210  96.4117215  31.0206214   4.1674955
  96.6608832  29.5386592   4.3482740  15.2859247  84.0644360  77.3599339
  14.4960093  84.6038723  77.3955011  15.4431260  83.9312649  76.4251709
 103.6792777  31.6396324  14.0953024 102.8264353  31.2085239  14.1504247
 104.2067811  31.0579006  13.5479791  17.5715336  21.5996496  27.9664381
  17.2434601  22.4780313  27.7739675  16.8686851  21.1859266  28.4675081
   5.3331274  63.5867596  59.4352961   5.8393198  64.0434027  60.1072216
   5.8002543  62.7618551  59.3027925  10.7002854  85.1998615  53.8316250
  10.3409100  84.4410992  53.3718824  10.0085044  85.4614925  54.4392633
  70.2446679  20.1970712  17.4045236  70.9838099  19.6180860  17.5907476
  70.3785806  20.9494010  17.9809816  63.3219740  29.6975414  11.6078622
  63.2529155  29.0174667  12.2779043  64.2626706  29.7911445  11.4576681
  58.5868739  18.8299860  68.5328245  58.9119600  19.6770013  68.8380003
  59.3382953  18.2423604  68.6120939  87.2045932  15.8488170  21.9528349
  87.2958241  16.5452520  21.3025434  87.6270506  16.1973230  22.7378805
   3.7784671  28.4923280  74.9201250   3.1237267  29.1835226  74.8210859
   3.4803103  27.9865278  75.6760979 101.3838280  87.9464245  60.4976749
 100.9728296  88.0724430  61.3529110 100.6497056  87.8610134  59.8893976
 102.2581847  64.3733072  57.9199123 101.3520409  64.0864515  57.8065538
 102.1932907  65.1685858  58.4486389  60.1167630 103.2639673   2.2324045
  61.0573648 103.3391836   2.3931558  59.9239157 102.3363521   2.3686750
   3.1464895  46.3183013   0.4032858   3.0323657  45.4128734   0.6920965
   3.9504131  46.6077987   0.8347185  24.0154219  47.5717449  45.2743244
  24.9031734  47.3794508  44.9724102  23.4501243  47.2718763  44.5624590
  81.3333795  28.6450759   2.9434354  81.7574505  28.3597461   2.1341283
  80.6451539  27.9971877   3.0945070   9.6414918  92.2375011  56.1289883
   9.0115356  92.6941586  55.5714464  10.4509366  92.7401161  56.0372782
   9.7903093  64.5749179  20.6804330   9.4634088  63.8224594  20.1873071
  10.4676088  64.9529258  20.1195295  36.6071415  83.1296921  75.5118656
  36.8944931  82.6873970  76.3106346  37.4190450  83.3578110  75.0590849
  17.1119583  72.5144577  51.7283630  17.8350806  73.1376457  51.7988300
  17.5284290  71.6554356  51.7980766  11.5516266  23.1630508  14.5616682
  10.6912788  22.7441303  14.5849283  11.6172298  23.6220781  15.3990610
  74.3644153  24.1934339   0.7733781  74.2241000  23.6918918   1.5764959
  73.5758180  24.0385524   0.2534158  73.4618074  57.0041076   4.7364481
  74.2887541  56.5390865   4.6093900  73.6489002  57.9033939   4.4671590
 107.8368876  35.5536643  10.2291830 108.1287692  36.4217082   9.9507482
 106.8815134  35.6125156  10.2345426  24.0230584  92.8044796  49.7676563
  24.4361258  92.8359890  48.9047432  24.0613484  93.7068653  50.0846195
 105.5874358  68.5009241  55.3187084 105.3719453  67.5698519  55.3725338
 105.8360700  68.6367559  54.4043970  91.9874928  37.1908275  10.8264310
  92.5429401  36.4597598  11.0970647  92.2227726  37.3444549   9.9113996
 101.0268296  79.5082617  69.8453522 100.7037355  79.6067524  68.9497280
 101.1294378  80.4053783  70.1629734  28.9541410  24.0047182  52.1061087
  28.9083712  24.6341527  52.8257895  29.7704970  23.5280431  52.2563744
  73.7365275   8.1414930  15.4535349  73.5529746   8.7753288  16.1469324
  74.4076443   8.5621349  14.9160440  21.3148642  94.5723820  63.0958080
  22.1937227  94.3521214  63.4045553  21.3018227  95.5292225  63.0729866
  82.8612385  17.3913041   4.6463163  82.3106066  17.2275344   5.4119642
  83.0636463  18.3257238   4.6923120  86.1823902  34.4221584   9.3399770
  85.6498597  34.2776576  10.1221235  86.7088089  33.6268894   9.2583521
  86.4754519  24.4456092   0.9484918  86.5133188  25.3822557   0.7548769
  86.8018649  24.3730441   1.8453844  76.9609926   7.9790965   0.6806810
  76.7354265   8.1729356  -0.2291434  76.8300161   8.8076917   1.1416681
  59.0217699  79.5288515  65.7661963  58.1672443  79.5999098  66.1915970
  58.9215721  80.0110912  64.9454451  10.3932794  20.3466216   5.5920370
   9.7517761  21.0167304   5.8279665  10.0213131  19.5305959   5.9266718
  37.3215620   6.0571969  86.6813278  37.2346539   6.5144456  85.8448982
  37.1261458   6.7236341  87.3400402  89.0480278  27.3113910   0.9882791
  89.5629404  26.5262119   1.1742647  89.6846435  27.9404537   0.6488092
  10.9254670  95.0992584  48.9968967  11.5685427  94.9129105  49.6809721
  10.7905340  96.0456085  49.0463877  22.6977396  78.8377810  78.0019617
  23.5018873  78.3426857  77.8455639  21.9965696  78.1942081  77.8999615
  96.0924575  73.0017845   3.5519464  96.1122725  72.0960227   3.8608511
  95.3082678  73.0513183   3.0052908   0.3018390  57.7283478  66.6271400
   0.1523803  56.7845726  66.6835070   1.0165530  57.8204536  65.9971142
  55.8144497   0.0728715  44.4714069  56.6632532   0.5062688  44.3823671
  55.7861041  -0.5498396  43.7450027  27.1971178  97.3508644  72.5226307
  26.6583419  97.5314331  71.7523432  27.6639271  98.1704140  72.6858711
   9.2131716  74.9745464  75.7230616   9.7891736  74.9065161  74.9616003
   8.3329368  74.8455572  75.3698206  31.9013429  74.5709896  68.9493418
  31.9674063  75.4009819  69.4215488  32.4300218  73.9604092  69.4630766
  38.3345485  91.4194965  68.1664324  38.2739472  91.6864014  67.2491932
  38.2720923  92.2380447  68.6586857 101.7606184  23.1119815  33.4425218
 101.9172928  22.2143594  33.1493242 100.8293960  23.1328288  33.6630209
  24.0760207 100.0621796  75.9358978  23.8734055  99.2976189  75.3967905
  23.6469722 100.7913876  75.4882383 104.8382319  94.0202618  84.4461346
 104.6045752  93.8729572  85.3626156 105.7894958  94.1262817  84.4555473
 100.0255747  70.7693768  83.6657333 100.8889259  71.0733461  83.3856297
 100.0154419  70.9155941  84.6116447  56.1379515  95.2930525  10.8599432
  55.6480252  94.5916727  11.2892110  56.4898657  95.8153036  11.5808065
  16.4952695  81.7519188  79.0898371  15.7453609  81.3483429  78.6528063
  16.6155016  82.5867271  78.6372137  25.6494665  80.6445503  67.6445055
  26.0852814  79.8845148  67.2589540  25.3028417  81.1278915  66.8945312
  87.0619593  10.7611791   8.5841138  88.0153654  10.6771175   8.5976560
  86.7409704   9.8688880   8.7145670   9.6660161  91.4663982  81.4192581
   9.6803927  90.8106327  82.1163940   8.7359494  91.6341305  81.2673569
  84.3292226  67.0586824  64.4197989  85.0557007  67.6797056  64.4726562
  83.6985267  67.4771833  63.8338709  13.0112016  60.6753492  67.1919775
  13.4681976  59.9041605  67.5276184  13.4861195  61.4171505  67.5666952
  82.8879354  17.2519246   9.1706998  82.5517366  18.0332462   9.6097143
  83.4206901  16.8145505   9.8348577  20.2455378  93.1669235  58.0334902
  20.4949570  93.2333946  58.9552307  20.9162498  92.6061630  57.6437092
  50.2243683   9.7125093   6.5895708  50.1605818   8.9960281   7.2210939
  49.4891713   9.5720474   5.9929330 101.6431377  48.6115066   8.9496095
 101.5864203  48.4047691   9.8824937 101.7882774  47.7658550   8.5252817
  37.1312881  95.0568104  30.1237750  36.6799068  95.7514954  29.6443033
  37.0841742  94.2963123  29.5444202  48.8750839 100.6970692  81.2282276
  49.2215347 101.3175964  80.5870152  47.9453230 100.9148407  81.2941647
  35.8629656  76.0846376  86.2210655  35.7366633  75.1409149  86.3193893
  34.9990988  76.4607668  86.3898659  93.7873504  40.9127132  24.8067720
  92.8664587  41.1604778  24.7242696  94.0327809  41.1931888  25.6884344
 104.3711955  78.8689375  74.9365664 104.5212234  77.9985905  75.3056479
 104.1501261  79.4143677  75.6914616 106.9893062 100.9282759  26.4844377
 107.3755443 100.1504305  26.0819395 107.6470077 101.2238481  27.1139581
  24.4280958  78.5193205  75.0921106  23.7570143  78.1692314  74.5061731
  24.1445613  79.4155645  75.2726221 108.0927491 100.2889729  66.1332989
 107.2875002 100.6445408  65.7572985 107.8193353  99.4776440  66.5613413
  19.5413315 100.9778881  68.9291000  19.6938848 100.4079533  68.1753540
  19.6515274 101.8643761  68.5852575 106.2089226  41.0353462   0.9053381
 106.9785330  41.4896861   0.5625303 105.7940934  41.6723338   1.4870508
  33.0778909  99.3005085  70.5800343  33.3133960  99.0528107  71.4741373
  33.8931227  99.2162323  70.0855398 104.2526457  72.8370944  14.4974001
 103.3709857  72.5126258  14.3140371 104.7379181  72.0632926  14.7837026
  56.5094481  19.4676629   1.7781980  56.5983150  20.2039901   2.3833044
  55.5688593  19.2922155   1.7509515   9.3723902  26.1776153   2.7605875
   9.2580208  25.7050458   3.5851057   8.4956535  26.2066213   2.3775442
 104.9083898  15.1466886  17.5903280 104.5670841  14.3355838  17.2136934
 105.8232520  14.9505798  17.7923257 101.6828344   6.6059009  13.5810335
 101.0397742   5.9227220  13.7707002 101.6540835   7.1808521  14.3457849
  11.3444769  90.7693195  43.3420324  11.7955208  90.9817219  42.5249195
  11.5641904  91.4908123  43.9314461  90.5845079  40.9798614  16.5591962
  90.4033933  41.8221465  16.9763048  90.7612119  40.3848258  17.2878511
  12.5746024  95.6493378  81.2164307  11.8333220  95.0528431  81.3209629
  13.2241416  95.3368568  81.8462658  22.1750164  88.8106251  79.9460983
  21.7655540  88.1857204  79.3477058  21.5383196  88.9180470  80.6527138
  82.0492209  66.5568209  73.2479572  82.1243943  67.1711302  73.9781618
  82.2387589  67.0834398  72.4714375  78.1911681  12.1430150   2.3516424
  78.2785991  12.3758212   3.2759721  77.2469310  12.0753662   2.2099645
  29.8977184  83.3497143  82.8949928  30.7080102  82.9127693  82.6328278
  29.9761271  83.4506416  83.8436222  95.8861829  72.1977663  82.5728416
  96.5786744  71.6994190  82.1388626  96.1029292  73.1131458  82.3958302
  27.2526145  63.7937832  57.5215340  28.0212712  64.1058636  57.0440388
  26.8763065  64.5827723  57.9115582  62.2737597  79.0506080   3.2708128
  61.9882535  78.1500867   3.1166132  63.1570791  78.9637711   3.6292036
  69.3256353  39.4397748  72.9697275  69.0401219  40.3206075  72.7271461
  69.8540329  39.1463579  72.2274780  90.3890063  74.6292543  61.9517326
  91.0965456  74.4226408  62.5624132  89.8392845  75.2540779  62.4246311
  22.1079826  98.2502747  81.1412525  21.2764025  98.7149239  81.2351227
  22.6348805  98.5502338  81.8819523   1.6638740  34.5834819  29.2408235
   0.7909902  34.4846813  28.8606413   1.5468558  34.3729392  30.1672228
  51.7684041  21.2054933  62.6135349  52.6902150  20.9511484  62.6560116
  51.2882720  20.3954233  62.7852535   3.3205402  95.7817459  88.4571075
   3.7882170  96.1590958  87.7120495   2.6334506  96.4178944  88.6557198
  13.3923697  56.8775702  66.1656046  13.6518240  56.0568905  66.5844107
  13.2969868  57.4962902  66.8897057  98.0533875  63.8363218  68.6112595
  97.9317917  63.1247902  69.2398834  97.4883474  64.5389700  68.9325762
 106.8524263  25.7400934  17.4827345 107.2344968  26.4874784  17.9428060
 107.2584651  24.9749843  17.8901346   9.5041442  99.9276447  68.8571835
   9.9961132 100.5349445  69.4098091  10.0004566  99.1102314  68.8987732
  41.4356232  96.9556522  65.2697134  42.0142794  97.7047729  65.1275158
  40.6990194  97.1061420  64.6772623  19.7913837  85.3438854  84.4646645
  20.3570175  84.7241688  84.9253654  20.0604010  85.2782059  83.5483932
  97.5196788  17.1051160   6.8685491  98.1386778  16.3904086   7.0177515
  97.2826049  17.0276348   5.9444101  70.6225489  20.9210218  76.3884926
  70.4281400  20.9721769  77.3243475  71.1026000  21.7272104  76.1991692
  22.2279978  88.0503082  60.1592588  23.0596733  88.5146713  60.2536726
  21.6470933  88.6829090  59.7366571  68.1472549  52.2915832  23.7383993
  67.9083470  53.1831924  23.4850748  69.0985504  52.3185245  23.8410814
  29.8870397  98.8915253  84.7523403  29.7573185  99.7632694  84.3788719
  29.1303635  98.3876038  84.4527912  83.7426828  10.7731451  63.4863043
  83.6321567   9.8604024  63.7526083  82.8652738  11.0551179  63.2277107
  50.0482178  97.1706486  84.3719769  50.7215166  97.7228832  84.7693920
  49.4542885  97.7874851  83.9441967  87.7366230  35.2742473  20.7535799
  87.9111538  35.6787483  19.9037893  88.5843096  34.9282447  21.0327680
  78.1406466  66.6473476   9.8522527  77.5975750  67.2383777   9.3307264
  78.2184873  65.8580772   9.3163355  19.6045669  43.1788150   8.2806165
  19.8094639  43.4488765   9.1757829  18.6491522  43.2126037   8.2329996
  22.2043252  64.6600962  78.4277916  22.2439766  63.8115692  78.8689995
  21.2845206  64.7596312  78.1822634  22.6660858  43.2855905  65.3673744
  23.5146164  43.3562292  65.8046818  22.1085273  42.8305448  65.9984732
  80.0927458  30.6759826  15.9526308  80.7877133  31.0069553  16.5215833
  79.4180295  30.3636829  16.5555055  35.5175996  74.0538979  54.9276257
  36.2901378  73.6094427  55.2767324  35.8613706  74.8519945  54.5262623
  21.3473487 101.0704899  83.0819416  20.6162047 101.5143967  83.5116005
  20.9448695 100.5937195  82.3560333  70.8292125   4.1058935  70.8835411
  70.8907555   4.2113317  69.9341583  71.4488744   4.7445978  71.2361288
  97.1340606  65.2344600   3.3806379  96.6734431  65.7012168   2.6833494
  98.0427597  65.1945964   3.0824621   9.6001649  80.5730724  80.0887775
   9.1269332  80.5847931  80.9207344  10.2970040  81.2197304  80.2004719
  51.6304754   1.3644613  85.5927181  51.0229896   2.1036542  85.5648136
  51.0873901   0.6174959  85.8443928  37.9626203  73.4610510  64.9173355
  37.2724438  73.7587070  65.5100298  38.7513781  73.9079142  65.2245903
   9.2537189  75.6029797  60.4733181   8.4861022  75.1127100  60.1789808
   9.8849100  74.9297523  60.7274771 105.9211866 102.6734924  56.4410925
 106.3607747 103.5114002  56.5857267 105.1845629 102.6808357  57.0522928
   2.2754773  46.3300697  13.7717302   1.5352639  46.2962333  13.1657846
   1.8747267  46.4469139  14.6331079   1.0481508  95.3135681  77.9202366
   0.6469710  96.1824608  77.9029751   1.6836464  95.3573227  78.6347008
  48.0761122   0.8749021  80.6283760  48.6879073   1.5326417  80.2977467
  48.0315720   0.2183450  79.9332571  27.2049356  76.9942331  56.1209822
  26.7830038  77.6981211  55.6282902  27.9133034  77.4268484  56.5977335
   2.6781839  88.7099171  52.8532028   2.2413304  88.0859756  53.4329319
   2.4679908  88.4045601  51.9707060  68.2329607 101.9340801  69.6050167
  68.6955547 102.5476456  70.1757860  67.6110363 102.4784565  69.1222095
   6.6178203  83.7238216  71.3468456   6.3508797  82.8814602  71.7148256
   6.5292734  84.3412304  72.0729256 101.7375619 100.9447002  89.3596458
 101.3209696 101.6721344  88.8975811 101.7158873 100.2200890  88.7345886
  71.8084834  93.1237022  11.3510187  72.2372036  93.9681236  11.2117632
  70.8874265  93.2862560  11.1473901  69.5759759  52.4867813  26.7013128
  70.4991365  52.2338001  26.7039640  69.1421143  51.8044368  26.1890657
  44.0343874  19.1168130  68.2552767  43.7872754  19.7739423  67.6046228
  43.8001423  19.5115388  69.0952492  24.2137408  76.9859457  66.2757063
  24.8260093  77.2241783  65.5795717  24.7681665  76.8366003  67.0415640
 101.1627314  24.8497573   2.3705919 100.4017160  24.2783538   2.4734457
 101.0998580  25.1729194   1.4717825  58.7203120  72.8267959  25.5182035
  59.0480827  72.1576884  24.9172933  58.0603598  73.3006671  25.0120981
   3.4142264  63.1544868  11.7964800   2.4726375  63.2704727  11.6692407
   3.5912784  62.2684757  11.4804514  75.4750680   6.3579381  87.1303654
  75.0194024   7.0922101  87.5419998  75.2207659   6.4045633  86.2087345
  77.0317272  37.3107997   1.9775827  77.0651386  36.4604846   1.5393026
  77.1252186  37.1047107   2.9076440  33.4279585  82.8874493  84.2710686
  33.5246873  83.8150215  84.4866562  34.2148924  82.4753475  84.6276474
  95.1109101  64.4962502  49.2948532  95.1171936  64.7831154  50.2080345
  94.2263437  64.1577911  49.1562033  87.4346150  67.0565748  85.4085445
  87.1847428  67.9370070  85.1281166  86.6878570  66.7476273  85.9215069
  26.5127087  62.7710009  55.1624107  25.6510782  62.3951149  55.3427744
  26.8760896  62.9627895  56.0269356  32.0812941  92.2269630  68.6129761
  32.5268126  93.0126190  68.2959700  32.2490907  92.2202396  69.5553303
  32.9071903  82.2588444  49.2422533  33.2052517  81.5030289  48.7361479
  33.7040973  82.6109600  49.6387196  45.1047461   5.3688253  69.2624235
  44.1799794   5.3939546  69.5082045  45.2108650   4.5294679  68.8147211
  82.2521607  47.8930560   5.0975855  82.2567449  47.4345771   5.9378202
  83.1290469  47.7495281   4.7416265  26.7631245  93.6833000  41.2303686
  26.7739058  93.2992077  40.3536701  27.6837587  93.8557816  41.4276314
  13.4733486  79.7284889  84.3581295  13.5571766  80.5820465  84.7831535
  12.6943159  79.8103380  83.8080025  97.8947518  82.0184986   9.0491350
  98.3345125  82.4770633   8.3332021  97.1746919  81.5499679   8.6269720
  22.4597822  13.0065740  49.1028118  22.2369837  12.6302064  48.2513809
  22.6752852  12.2510828  49.6496487  14.0844091  24.6429912   4.6734197
  14.1198095  25.2836696   5.3837068  13.7282022  23.8533632   5.0806387
  99.2367408  58.0425731   3.9718111 100.0028608  57.5538818   4.2725999
  99.2352602  58.8375465   4.5049627  51.0767566  17.4637521  78.6665440
  51.5274094  18.2758344  78.4348631  51.2637876  16.8701662  77.9392862
  34.6572638  82.9366589  71.6529131  34.5893359  82.7094269  70.7255602
  34.5831156  83.8907909  71.6717720  65.4911278  10.8688272  83.0308819
  65.6116031  11.4315904  82.2660160  65.9566640  11.3194383  83.7354851
  48.5030578  12.6996244  83.4614563  49.1253518  13.3726324  83.1857014
  47.7064465  13.1842054  83.6778259  58.4128475  72.2150564  71.9874811
  57.9194212  72.7567434  72.6033783  59.0466547  72.8154373  71.5949726
  95.7690499  61.1119930   7.9877622  96.1050198  60.5989257   8.7226923
  96.1287448  61.9886104   8.1233747   3.4277614  31.8155853  12.8883512
   3.1890973  31.4758960  13.7508352   3.6220869  32.7404109  13.0405481
 100.0301478  17.3019163   2.9740961  99.8925421  16.9312898   3.8458402
  99.7850297  16.5982620   2.3732526  59.5205793  14.9302331  31.2890871
  59.1968868  14.6857110  32.1560724  60.1109550  14.2177192  31.0441167
  96.5456865  79.6846382   1.0135992  95.9713719  79.5236579   0.2649458
  97.3233387  79.1551677   0.8371217  26.8362247  22.7183355  60.9924507
  26.9221019  21.8939222  60.5137014  27.7169673  22.8967012  61.3221645
  46.0329418  11.6583074  50.7795811  46.0229890  11.0235609  50.0631809
  45.9162943  12.5058473  50.3502750  68.3027647  32.6421539  13.4351308
  68.2857863  33.5427467  13.1112821  67.9379720  32.1229926  12.7184541
  63.0086325  18.5411466  65.0447845  62.3033427  18.9866460  64.5753908
  63.3146237  19.1845239  65.6840563  19.7855520  98.6375999  88.4053421
  18.9468503  98.9443588  88.0607986  19.6449697  98.5663128  89.3494701
  21.9562268  88.0964661  46.9434166  22.8391600  87.7283478  46.9773483
  21.3814569  87.3598289  47.1513557   2.8712996  47.4856273  17.0848520
   2.2788962  47.9868213  16.5244062   3.0923017  48.0857841  17.7970274
  29.6598302  18.1514371  58.9024639  30.4675757  18.0395711  58.4011984
  29.4652145  19.0863908  58.8375711  52.8161906  10.0305475  82.7100182
  53.5236143  10.3061975  83.2929420  52.0160114  10.2033628  83.2060814
  15.9964609  94.7315311  70.1866245  16.6080499  95.0730324  69.5342684
  15.1491094  94.7272491  69.7414207  94.6129296  37.8448192   2.2109850
  94.8331735  37.5654308   1.3223512  95.3359029  37.5228492   2.7493913
  24.0011048  78.2436037  53.3520746  23.2498527  78.5125351  53.8807774
  23.6982155  77.4656677  52.8837681  20.1879104  46.4463703  49.2016466
  20.4791721  46.2154857  50.0837381  20.9740051  46.7805282  48.7696417
  54.4463587  99.4379425  84.5763588  54.3639088  99.7084713  85.4908276
  55.2689886  99.8302555  84.2837715  96.2865471   1.7469514  69.6234894
  95.8669494   0.9120000  69.4160414  95.9879326   2.3423875  68.9360905
  22.7271605  89.6507072  83.9715290  22.3342466  90.4100227  83.5410690
  23.4313846  89.3793869  83.3827209  75.6160449  36.1203207  67.7688789
  76.3734006  36.6995252  67.6842213  74.8686336  36.6660608  67.5243950
  14.7704041  93.2618904  72.2242546  15.2688646  92.4866772  72.4827290
  15.2122819  93.5791492  71.4366484  70.4328536  19.0391077  62.6936150
  70.7852815  18.4995283  63.4013414  71.1371039  19.6537889  62.4876213
  56.1208770  49.5411102   8.1924398  56.0702655  48.7108985   7.7187212
  57.0169804  49.5714084   8.5275705  42.9354000  84.8463821  64.6613359
  42.0868206  84.9186039  64.2243814  43.2524252  83.9743519  64.4262218
  45.4400396  59.7654724  60.6797457  44.8731995  59.0216064  60.8836699
  46.1619091  59.6948242  61.3043642  20.5391026  83.2313633  66.5951204
  21.4632463  83.3189774  66.8286037  20.4124951  83.8551712  65.8802366
  84.2642854  28.5382951  61.3357639  83.4534286  28.9948476  61.5600204
  84.4471048  28.8035692  60.4344082   0.6895384  46.9052307  11.4689310
  -0.1578299  46.9539062  11.0264070   1.3093098  46.6791812  10.7753809
  17.1609306  98.5034084  52.3956251  17.1479726  97.6137161  52.0427608
  16.9596112  99.0618420  51.6447258  24.5275044  95.6885624  78.0042028
  25.4531169  95.8818722  77.8555250  24.1619849  96.5084076  78.3365822
  82.9470609   4.1162504  54.8692513  81.9967483   4.0170110  54.8118830
  83.2573723   3.2694734  55.1900339   4.3667778  19.2032901   3.1950910
   3.7179216  18.6408464   3.6180265   3.9385256  20.0569621   3.1312711
  20.3443599  94.9563694  87.7524853  20.5489850  94.7729492  86.8355846
  19.5045769  95.4147911  87.7234077  90.4690311  43.1337539  18.1983907
  90.4961047  43.8797466  17.5992353  91.0683093  43.3726303  18.9055212
  97.3317740  48.9209453  14.8981531  97.4514077  49.5651142  15.5959757
  97.8827379  48.1822673  15.1570470  55.2561187   3.9745439  72.1803284
  54.3060421   4.0793336  72.2313738  55.3827249   3.2048238  71.6255856
  82.9768465  50.2490035  30.0064619  83.5278056  49.6835796  29.4651945
  82.1397064  49.7879020  30.0595720  27.4597144  68.6426210  52.7379847
  28.2979822  69.0245724  52.9980898  27.0491886  68.3819199  53.5624456
  89.9364636  20.1236669  12.3948915  89.2553911  20.3507797  13.0279787
  89.9237511  19.1671077  12.3622472 106.6809366  50.9996025  20.0141580
 106.5132163  51.5229026  19.2304094 106.9207261  51.6406242  20.6833513
  65.0412773  21.1720193  72.6036358  65.7704328  20.6759561  72.2315025
  64.2872165  20.5883420  72.5202560  15.4789623  69.7505466  12.5605066
  15.3404125  70.1525871  13.4180696  14.6303781  69.3695918  12.3346670
  32.2920799  67.0471239  69.2730093  33.2112980  67.0066261  69.0091372
  32.2767639  67.6794815  69.9914265  40.7779264  84.9902534  63.1119919
  39.9532056  84.5046520  63.1282949  41.0668564  84.9410725  62.2007656
  14.0849042  85.8886528  80.7209396  14.1183496  86.5242577  80.0060177
  14.0075397  86.4218807  81.5120792  72.8080558  19.7707284  65.5210781
  73.1084226  19.0098012  65.0240850  73.6067604  20.2623857  65.7123232
  35.4700637  86.0487652  51.3613081  35.4588294  85.4552841  52.1122265
  34.7354794  86.6429901  51.5146589  92.5809238  56.4783660  34.1854818
  93.5247610  56.4920036  34.0266760  92.2066042  56.9563285  33.4454305
  52.3856544  78.6923456  88.1439590  51.9415998  78.0031681  88.6380100
  52.1261358  79.5043325  88.5793400  98.4157655  34.4795886   3.3361967
  98.2260439  34.6586696   4.2571600  99.3655036  34.3643752   3.3053167
 102.9478382  24.1415418  63.3347988 102.6311706  23.4548963  62.7478886
 102.2142576  24.7522081  63.4067822  40.1479034  10.3610433  69.2922974
  39.2337044  10.0814641  69.2442513  40.3423207  10.3843225  70.2292538
  29.5831060  83.1347179  47.4322176  29.2598987  83.7309933  46.7567730
  30.4168081  83.5152149  47.7086067  63.3350538  11.6452993  54.1119003
  63.8914059  11.7487348  53.3398867  62.4591397  11.8856443  53.8098383
  42.9306459  73.0252790  68.0718946  42.1642303  72.8634739  67.5217533
  42.6040411  73.5796356  68.7805891  41.8632953  65.5868402  18.9736135
  41.1833673  66.2054506  18.7066896  42.6719599  66.0987797  18.9590700
  47.9652904  87.4449232  32.8886278  48.8340305  87.5822690  32.5109251
  48.0198728  86.5867522  33.3091028  14.3948579   9.3296164  49.0989923
  13.8933063   9.2992681  48.2842827  15.0030971   8.5934299  49.0333748
  22.8330183  86.0724068  83.2013035  21.9649053  86.1507988  82.8057480
  22.9344344  85.1361656  83.3727646  13.3142650  39.1616082  34.1777730
  13.6535192  39.0732074  33.2870865  12.4003553  38.8840985  34.1146135
  75.1549543  27.0695162  70.7813072  75.7380427  26.8509793  70.0543404
  74.4932998  26.3778567  70.7738924 106.4833875  41.1126328  44.8199940
 105.8611156  41.4271307  44.1641760 106.6485168  40.2018642  44.5761299
   1.3786650  22.6413488  73.2761145   1.9242390  23.0437946  73.9518499
   1.9268736  22.6459885  72.4914646  83.9459766  56.4617920  55.1263237
  83.4758056  56.3491344  55.9524441  84.6476806  57.0793486  55.3323793
 108.2343404  45.7267475  59.8883533 108.8171339  46.4811897  59.9743605
 108.7464957  45.0830317  59.3989038   3.3757719  46.9207764  67.9080582
   3.6014783  46.1047125  68.3545208   3.2863039  47.5624561  68.6126709
  28.8189173  45.1604223  61.1350679  29.5966196  44.8204231  60.6925583
  29.1498876  45.8621454  61.6956663  21.9087623  85.9022620   8.8418729
  20.9781932  85.7454279   9.0021093  22.3538743  85.1865104   9.2955358
  71.7394365  26.7949796  75.1224327  72.2155799  27.2922683  75.7874298
  72.3858846  26.6341877  74.4350576  92.8102920  12.1681920   4.2743547
  92.8189895  12.6957170   3.4756811  92.0055053  11.6536466   4.2127855
 103.2505752  32.7310371  68.9923429 102.8705169  33.6091661  68.9663553
 102.5108750  32.1555758  69.1870737   9.5596397  33.5541177  62.1012783
  10.2973986  33.6685467  62.7003145   9.5991999  32.6324630  61.8458986
   8.6265963  38.1709766  70.0935602   7.9470837  37.9004240  70.7110500
   9.3080354  37.5043535  70.1800871  94.1772506  22.4674074   1.1185320
  93.4539888  22.4511615   1.7453249  93.7511752  22.4894754   0.2616747
  10.8424008  34.2956734  44.5298100  11.3818693  33.5161495  44.3973398
  10.4947531  34.4968343  43.6609554  32.3243999  79.1533566  51.8148422
  31.7362618  79.1351748  52.5698233  32.4511456  78.2321692  51.5877295
   9.6639155  66.3711574  46.7607458   8.8154124  66.0410681  46.4652593
  10.1466035  66.5477922  45.9532602   7.5189894  30.8058786  35.3464007
   6.6304076  31.0085821  35.6389165   7.5717378  31.1770463  34.4656730
  96.0709263  91.3572311  58.4861660  96.4402152  92.2391415  58.4403086
  95.8684028  91.2302685  59.4130421  12.4633336  22.8535867  66.9314051
  11.9981563  22.6977348  66.1094856  11.7766356  22.8575444  67.5982332
  64.3281626  98.3606174   1.6692598  63.4869980  98.1411913   1.2686021
  64.6971892  97.5164774   1.9290216  91.0266913  48.1188869  44.9107885
  90.1067222  48.3311367  44.7531843  91.4172054  48.0830002  44.0376091
  23.3821177  24.2067504  85.5713177  22.8522825  23.4943414  85.2135754
  23.1430864  24.2412162  86.4975548  81.2409947  29.0182868  20.1088388
  81.3136289  29.9640457  19.9804170  80.3488038  28.8880340  20.4301794
  23.2135034  25.3377986  77.7185726  22.8086853  25.4313612  76.8562508
  23.8499641  26.0513616  77.7630758  98.1943644  46.2435246  57.3754120
  98.7775625  46.1760855  58.1314325  98.6180676  46.8824768  56.8023109
  11.0601044  35.3398609  79.5679903  10.4218328  35.8175731  79.0382433
  11.4646196  34.7234654  78.9575338  28.1367874  47.8400898  76.6506386
  28.9525175  47.9658365  77.1354103  28.0566669  48.6251593  76.1088943
   6.8165314  76.6660690  83.9566422   7.5032109  76.9467020  84.5615768
   6.0322648  76.5951157  84.5008087  29.5478606  19.5824909  87.3144627
  28.7928033  20.1669669  87.3816013  29.4965959  19.0340924  88.0973244
  97.9863263  31.9992089  62.8534317  97.6372756  32.7100205  63.3911514
  98.7160875  32.3952937  62.3772001  83.6944998  22.8064847  34.2118382
  84.1662754  22.0922613  34.6402574  83.0172361  22.3701000  33.6950064
  10.1045883  55.0295925  19.8728669   9.2376578  55.3257275  19.5954370
  10.4154265  55.7171488  20.4618287   8.0349827  87.6753521  47.7658987
   7.1095967  87.4379635  47.8253794   8.2529354  87.5597477  46.8410397
  89.0795491  44.1141502   3.6513479  89.6240411  43.3314220   3.5671575
  89.6984909  44.8427478   3.6035020  99.5565952  23.4048223  65.3005075
  99.0157474  24.1937137  65.3374624 100.2834476  23.6395502  64.7236013
  16.5855968  61.9597197  42.2195387  17.3729861  61.6308451  41.7858410
  16.1598074  61.1768055  42.5688076  26.5446401   7.7187634  54.6929598
  25.6791091   8.0287820  54.4265413  26.8229485   7.1437061  53.9801598
 106.4510758  30.0594020  51.2379789 106.7832271  30.8567595  51.6504431
 105.7236491  29.7858405  51.7967653 103.6553354  18.7891555  50.3274345
 102.8373249  19.1380382  50.6815147 103.9028419  19.4088376  49.6411610
   8.2844841  46.5110636  35.1748180   8.5039115  47.4274826  35.0067306
   7.3353332  46.4669275  35.0590754  78.9514435  15.0801456  50.6595182
  79.8577870  15.3304243  50.8387852  78.9850773  14.1317117  50.5347300
 103.0041022  45.3098440  76.6938734 102.3194147  45.5202723  76.0589314
 102.5673110  44.7588015  77.3433352  95.8772350  14.3420196  67.1556473
  96.6280843  13.7491369  67.1864080  96.2588299  15.2031183  66.9849777
  48.4041594  77.9536536   1.7946394  48.9556323  78.3349922   1.1114938
  48.1722091  77.0875528   1.4595277   9.6604753  35.8310699  46.8577003
   9.9536741  35.2078819  46.1929417   9.7819483  36.6892982  46.4515972
  73.6581458  13.8069677  47.4106312  73.4263433  13.9076674  48.3338642
  73.0153502  13.1855822  47.0686913   3.1009710  84.8958111  50.2635098
   2.8496420  84.3240070  50.9888458   3.8859406  85.3465557  50.5747652
   4.8723805  54.2947102  76.8812323   4.6234083  53.9664221  76.0172462
   4.9912888  55.2360249  76.7546463  32.2906637  58.4953880  34.0106225
  33.1219292  58.6114264  34.4707990  32.2229099  57.5505495  33.8730597
   5.4554242  48.8279343  62.6348066   6.3211924  48.8469505  63.0426264
   5.5427331  48.2013083  61.9165134  81.5442953   7.6292554   1.4478834
  80.7417319   7.3472635   1.8867548  81.9547013   8.2348815   2.0651491
  14.0413606  21.8876767  20.7004738  14.7672319  21.3239312  20.9679317
  13.3410883  21.2799239  20.4627967  17.3695326  26.8423200  79.0886593
  17.6945853  26.0717916  78.6229753  16.6672087  26.5068460  79.6458244
 103.1180025  47.5747633  53.1271648 103.7598921  48.2199526  53.4237099
 103.6408497  46.8101168  52.8859615  59.0638742  26.6538516   7.6035078
  58.6513195  25.7908002   7.6377447  58.3411632  27.2582475   7.4343164
   1.4789056  83.5877493   8.8394888   0.9360050  84.1208246   9.4202860
   1.1757540  83.8084700   7.9587991 102.7232368  27.2984123  67.9265881
 102.5894566  26.3634944  67.7708149 102.5219132  27.7122784  67.0872927
 101.4529808  28.3497000  53.7815809 101.0353990  28.8149858  54.5064020
 102.1403964  27.8282499  54.1960478   6.5383810  62.2314835  35.6690764
   5.7584769  61.8690395  36.0893321   6.5613639  63.1449890  35.9540462
  97.5189874   4.2072526  25.2435644  97.5603554   4.7773496  26.0113580
  96.6083167   4.2614643  24.9537809  90.8244539  24.3244934  67.5604248
  90.6051184  24.1823125  68.4812450  90.3340019  25.1092529  67.3157978
  21.8566322  55.2887201  75.3683567  22.2253847  55.3004313  76.2516022
  21.4746785  54.4155073  75.2798319 102.4455173  50.6197977  51.3373566
 101.9546218  51.4245701  51.1712408 102.2882838  50.4299259  52.2622681
  98.2522417  52.4541616  28.4824586  98.3217217  51.7661142  29.1442704
  99.0293945  52.3397350  27.9354930   3.7270668  69.9679089  45.4657841
   3.9377481  69.3956280  44.7279930   4.0101108  69.4776392  46.2376356
 103.2208539  64.1658545  75.5557966 103.6942084  64.3134880  74.7370338
 102.6640571  63.4080076  75.3772545 109.1388012   9.2348522  55.3731871
 108.2989664   8.9398050  55.7251215 108.9676483   9.3913257  54.4445038
 101.6247977  62.4039841  73.6193323 101.5794976  62.8317261  72.7642202
 100.7168437  62.1799994  73.8234949 108.5558353  67.0590067  73.9102125
 109.4075032  67.1890306  74.3273306 108.7121460  67.2432232  72.9840040
  26.4129400  49.1164970  69.7482252  26.8172908  48.2648754  69.5824766
  25.4717994  48.9470387  69.7061586  97.5077523  51.0240030  53.7148762
  97.3133923  51.4834166  54.5318174  97.5384964  50.0996017  53.9614010
  17.6623452  15.3703117  12.8299975  18.5494792  15.0276589  12.7213085
  17.7729774  16.3209748  12.8452647   8.5187471  31.7875814  71.2268209
   8.7501729  31.8053365  72.1554518   9.3600839  31.7741346  70.7705259
 100.8210642  22.0922613  78.6992264 101.5008224  22.6918435  78.3915520
 100.0557483  22.3030877  78.1643629  17.3292255  38.9774466  58.7369967
  16.5430737  38.4861732  58.4985733  17.4062324  39.6495390  58.0598021
  11.4927053  38.6919951  80.0328827  12.2715580  38.2311654  80.3447437
  10.7963550  38.4158301  80.6287479  97.5687587 101.9347742  13.5838468
  97.2112787 101.1859253  14.0609892  97.1094310 101.9251421  12.7441080
 109.0927517  41.1776209  82.0587826 108.2513862  41.5822601  81.8475819
 109.3653079  40.7531643  81.2452793   1.8582529  67.1173763  52.0638132
   1.6930422  68.0542374  52.1697521   2.4326606  67.0602989  51.3002491
  45.3864853 101.2079218  27.2993906  45.5764680 100.5941036  26.5899046
  46.2397008 101.3906267  27.6929338 103.2493157  42.0475054  54.4536161
 103.7092872  41.4772987  53.8375616 102.4603618  42.3196077  53.9848471
  19.2091857  53.9411747   2.7579458  19.6100961  53.1408095   2.4189527
  18.8993238  53.7023884   3.6315591  18.7898910  31.2780380  60.3349113
  18.0001926  30.9355879  59.9161768  18.8078701  32.2036123  60.0915623
  64.0244577   2.5150339   0.1360376  64.3481008   2.4109641   1.0308321
  63.0758200   2.5985948   0.2326639  13.0913198  37.0501447  54.8433113
  13.3479393  36.1520529  54.6339989  12.1414757  37.0614910  54.7254038
  19.2604756  42.3901939  77.5857687  19.3890214  43.3322859  77.6960611
  19.8800659  41.9908142  78.1963682  16.4590394  51.8353891  77.5648165
  17.3731780  52.0810556  77.4225807  16.5047109  51.0352325  78.0881691
  13.6154473  18.9903021  53.8895988  13.6850834  19.8411679  54.3225098
  13.1566548  19.1753316  53.0701447  56.6483282  97.3626545  12.6503427
  57.1941971  97.8145531  13.2938059  55.8591150  97.9004457  12.5858743
  10.2869010  80.1423168  26.1983919   9.6420223  80.5793953  26.7545652
   9.9484247  79.2532587  26.0924029  40.6982510  86.2066725  37.2597463
  40.6302752  85.8335021  36.3809068  40.8962761  85.4584911  37.8229864
   5.7432681  53.4669971  47.2474241   6.6343886  53.1248522  47.1761894
   5.2054125  52.8357220  46.7694759  16.7007947  44.1084671  85.4551125
  16.4613700  43.9213133  86.3627911  17.4960613  43.5968161  85.3068161
   6.9021255  56.1227417  67.0713520   7.2248554  56.7540789  66.4283180
   7.6920128  55.7033348  67.4125385  90.6856177  28.3343068  15.9238393
  90.8965120  28.7991134  16.7335947  91.4981601  28.3532516  15.4182203
  78.5885514  42.4449444  60.5537415  79.4108761  41.9564438  60.5909014
  78.2893408  42.4796915  61.4623117  11.7625984   5.9171049   9.6770151
  12.4493488   5.7551280  10.3238351  11.4521965   6.8010084   9.8734911
  10.1532066  49.9656153  75.8175659   9.3117005  50.0533676  76.2652254
  10.6990790  50.6545734  76.1965084  15.4477954  73.4182644  69.0093803
  16.0808432  73.7585545  68.3771706  14.9788654  72.7327871  68.5334969
  52.4095522  92.5741842  27.2386129  51.5269839  92.7573707  26.9165189
  52.5006162  93.1265572  28.0150278  81.9939016  95.4689005   4.8246439
  82.7861713  95.0407770   4.5002229  82.1216463  95.5231216   5.7717283
  23.7290812  69.8289061  68.7450027  23.7687421  70.6817961  68.3122873
  24.5385456  69.7804880  69.2535830   9.8393846  20.9587407  59.9729347
  10.5616736  21.2951064  59.4424772   9.0846127  21.4864564  59.7120380
  10.4036926  47.9587674  28.6265333  11.3505100  47.9249269  28.7630041
  10.0557040  48.3072269  29.4473322  39.2272401  82.8480053  68.9835167
  39.8642254  82.1764946  69.2275620  39.3354607  82.9483509  68.0377626
  13.9719748  56.2012815  56.1234236  14.5816791  55.5544758  55.7682657
  13.4606791  56.4890480  55.3671169   9.9204409  86.5773869  80.6836605
  10.2362013  87.2178078  80.0461769   9.7216094  85.7991695  80.1630116
 108.2140528  46.7210150  73.2236671 108.9013124  47.1864748  73.7003756
 107.4129991  46.9112015  73.7119007  24.9029875  19.6377647  80.5608845
  25.5051517  19.5825052  79.8188734  24.0808892  19.9461651  80.1797295
  44.6195173  16.5891063  69.2900753  44.9651098  16.2442148  68.4667587
  44.4341230  17.5097704  69.1050386  32.9926372  59.1789150  51.8252039
  33.1569362  58.6380482  52.5976658  32.0921540  59.4847155  51.9340563
   0.4019503  43.7781620  58.6558104   1.0608919  43.2486010  59.1048050
   0.3226259  43.3781481  57.7898264  16.6160214  75.1320696  67.0793104
  16.5064669  74.5362854  66.3381815  16.3834298  75.9928131  66.7310905
  37.5107455  54.1915894  68.9782047  37.3822832  53.4862566  69.6124220
  37.8753471  53.7569761  68.2072210  25.8002496  40.6247377  87.5811768
  25.0428700  40.7696342  88.1482792  26.4825416  40.3028965  88.1703472
 100.8320357   6.5814227  88.1343269 101.1540551   7.4166864  87.7954006
 101.0600717   5.9443235  87.4573231  33.5011530  17.5489283  70.7275629
  32.5449705  17.5923145  70.7195663  33.7062526  16.7091417  70.3165627
  20.3953648  24.4355369  60.0131559  20.3120184  23.5849309  59.5821619
  20.8966851  24.2532325  60.8079386  99.9443365  63.8025522  31.3384390
 100.0850738  63.1954145  32.0649433  99.5053900  64.5544243  31.7362428
  21.8512487  24.1441774  45.5171013  22.4174166  24.8043656  45.9168959
  21.7736292  23.4605050  46.1825323  33.2006788  27.3714733  27.1709609
  32.9416656  28.2242513  27.5201249  34.0294266  27.5381923  26.7219448
  99.9598844  59.4393969  65.7665110  99.6778561  60.3534126  65.7309198
  99.4918669  59.0733814  66.5169907   2.8901830  58.4215450  53.5138655
   2.8487995  57.6305628  54.0513277   2.0398337  58.4583044  53.0759335
  88.8112070  11.2532351  84.8178186  89.2219188  12.0200321  84.4183599
  88.7177494  11.4855835  85.7416751  15.9210300  46.2982988  76.6624355
  15.0000203  46.5400791  76.7599869  16.0469449  46.2109327  75.7175875
  85.4992307  52.6663637  36.5796733  86.2048758  52.1070480  36.2549257
  84.7485913  52.4505091  36.0263395  34.1971231  50.3346634  77.1480274
  34.4166207  51.1434555  76.6855240  34.2305779  49.6563768  76.4734650
   0.7315510  56.8957329  50.9615564   0.5362102  57.8148127  50.7788944
  -0.0639638  56.5591812  51.3740110  41.4154673  34.5667362  67.3475933
  41.9595671  33.9982438  66.8026066  42.0296383  34.9691367  67.9616785
 102.1914456  14.4208280  11.2342794 101.9416401  15.2981845  11.5242345
 101.9064138  13.8441125  11.9430692 106.3736634   6.2547982  51.0230589
 107.0739606   5.7476467  50.6124353 106.5391115   6.1747199  51.9624472
   9.6840032  27.0455877  28.1255396  10.0665697  27.5887672  28.8146169
  10.1939663  26.2358562  28.1479986  70.3150124  20.6770078  20.5717428
  69.8484007  20.4013196  21.3607366  71.1928574  20.9029380  20.8792741
  19.3619800  73.9393234  61.9833136  19.2625070  73.9448881  62.9353142
  18.5173273  73.6299849  61.6560459  21.0513783  87.0374012  78.0700588
  21.4145422  86.9570732  77.1880770  20.1430607  86.7484474  77.9823065
  20.5822921  80.6050873  84.6525478  20.9438801  81.3126278  84.1188049
  19.6383023  80.7635689  84.6526527  29.1734910  49.8109484  41.9991541
  28.7362981  48.9988375  42.2552252  29.4582605  49.6559668  41.0985327
  91.1855433  14.6383039   3.0647237  90.3492270  14.2906467   3.3744676
  91.5223632  15.1455442   3.8032968   0.7312121  57.8587151  57.6706219
   1.0046595  58.7512016  57.4586725   0.1895377  57.5914574  56.9280624
   8.3326685  60.0623512  41.4915895   9.1609937  59.7357464  41.1402512
   8.1714064  60.8735895  41.0098028  13.6979842  63.7775755  57.4470615
  13.1288886  63.2275534  57.9854250  13.6931133  63.3575535  56.5869522
  27.2098827  47.0444632  59.9384928  27.9734445  47.4777794  59.5571232
  27.5696254  46.4928341  60.6331301  46.7184782  73.9430904  27.7351737
  46.2789345  73.6258507  26.9462562  46.4117479  74.8443890  27.8342366
  35.8043671  56.3961506  53.7701321  35.6957817  56.8812084  52.9521084
  36.2588382  55.5935526  53.5141563 103.1631155  67.6466465  46.0866165
 102.9082246  68.2879639  45.4233122 103.9391030  68.0250931  46.4999628
  11.8557881  82.3274687   1.1455019  11.1593007  82.4356034   1.7931516
  11.3950275  82.1470645   0.3261240  24.2759824  72.3183584  67.6676464
  23.9985394  72.4119377  66.7563295  25.2100134  72.5273800  67.6563215
   1.4526090  33.3849239  23.1434131   0.5817168  33.4026766  23.5402298
   1.2864846  33.3917928  22.2007632  26.4241529  82.2269630  63.0767488
  26.6793561  82.1746445  63.9978170  25.5973339  82.7091885  63.0843210
 108.8431604  60.4016161  53.6525917 109.2111565  61.1776829  54.0751266
 109.0803623  60.4960012  52.7300596 104.1878475  49.7328997  86.9717979
 104.4766377  49.6294689  87.8785133 104.8541815  50.2906275  86.5703392
  15.7318699  87.9864597  35.6701922  15.6296539  87.2680664  35.0459433
  16.5364742  88.4277153  35.3979039  10.7615781  22.0155334  72.9032660
   9.8967868  21.6153193  72.9938030  10.6716597  22.6151109  72.1625519
  84.1706846  23.2863704   5.2002962  83.5578964  23.9991561   5.0195749
  83.9456985  22.6094715   4.5620020  22.7096701  83.5017776  72.6966906
  23.4402847  84.1166496  72.6306534  21.9300032  84.0411758  72.5648069
   2.5797084  46.3699198  41.5369034   2.7002108  46.8215895  42.3721886
   2.6172310  45.4398251  41.7599535   3.5772184 102.2471333  38.8306880
   4.5262223 102.1253014  38.8027573   3.2277101 101.5266609  38.3062911
  93.4770979  64.4557190  66.5530729  93.8557662  63.9960289  67.3024273
  92.6815427  63.9645863  66.3478613  25.7434583  77.2803736  49.1900063
  26.0353994  78.0669594  49.6507502  25.0306654  77.5830317  48.6273718
  14.3220627  34.3056703  76.1447763  14.7105122  34.7850633  76.8765736
  15.0485897  34.1658020  75.5374670  22.1622372  36.0886264  73.0945253
  21.2420726  36.2715006  73.2844830  22.2006869  35.1380372  72.9890156
   3.3603922  25.9881258  52.4620867   4.0979975  26.2277508  53.0231142
   2.9875737  25.2097535  52.8760624 100.6790055  91.3844681  67.3621655
 101.2588872  91.1665821  66.6324472  99.9208124  90.8121204  67.2447395
  69.0833329  95.2176550   4.9206216  69.8475312  95.1667622   4.3464716
  68.9049362  96.1547783   4.9994047  10.4639852  80.9136391  85.6417751
  10.7307589  80.1142597  86.0957146  10.4092157  81.5742683  86.3322830
  12.4678195  62.4619818  42.6824617  11.9658899  62.9428339  42.0243788
  12.0809519  62.7244902  43.5177183  18.4705591  40.8438158  88.4848309
  19.0001500  40.6318092  87.7161884  19.1081583  41.0950184  89.1531086
  12.5316024  44.6914721  41.5166855  12.7127707  45.3489637  42.1883345
  12.9770923  43.9031076  41.8269253 106.4089407  30.7209110  81.1545086
 106.6047011  31.1517119  80.3224564 107.2476613  30.3583002  81.4396286
  42.1432447  63.2344055  60.3389025  41.7213440  62.5253057  59.8537111
  43.0178022  62.9006004  60.5387878  14.6412241  58.0125999  63.8696098
  15.5411100  57.7140045  63.7381554  14.2741144  57.3953962  64.5024824
  13.3005416  53.1748533  87.0500183  12.7524626  53.4733820  86.3242626
  13.2763851  52.2197628  86.9912910  97.7166630  71.0804558  70.2022600
  98.0622114  70.1878548  70.2118206  98.3946408  71.6043329  70.6290293
   6.9639707  41.4587641  89.5285511   6.0484576  41.6741419  89.3505669
   7.3943210  41.5187645  88.6756611 104.7065355  35.0367403  72.9052687
 105.3333787  35.5595469  72.4052954 105.1154904  34.1740704  72.9744720
   7.7945769  56.7054701  54.4946527   7.1338248  57.2998810  54.1392517
   7.3793280  55.8433867  54.4699001  33.2557087  99.1110208  21.9041212
  33.3042096  98.5973814  22.7103765  33.9320490  99.7807053  22.0057161
  17.0047510  47.7591467  56.7516184  17.6004851  47.8806639  56.0123158
  17.0023906  46.8142414  56.9045115  19.5503366 101.3518715  58.7288570
  18.9191127 100.7710648  58.3040667  20.3942275 101.1072063  58.3490896
  10.5786979  63.4756851  78.6990738  10.4545116  62.9672194  79.5004892
  10.6912053  64.3766642  79.0020752  16.3267851  52.3167276  67.4670506
  15.5209339  52.8167248  67.3372841  16.4433455  51.8337250  66.6489124
  25.3493428  67.3138285  76.2642765  24.6197462  66.7183590  76.0930061
  25.8561087  66.8804121  76.9509888   5.0831079  21.4392114  39.3707538
   4.6584055  21.2935400  40.2161169   5.7824898  20.7864857  39.3384409
  10.0608635  47.5868654  87.7637577   9.2362356  48.0235195  87.5503159
  10.2057743  46.9804764  87.0374489  70.0661228  23.0463735  17.6258619
  70.0743944  22.3353044  16.9851263  69.2952899  22.8729335  18.1662042
 104.8379011  49.8919678  63.8506269 104.6495448  49.4608068  64.6842051
 104.4014160  49.3475723  63.1953812  82.8257383  78.2495880  68.7406301
  82.2417463  78.8741922  69.1708136  82.2486557  77.5437212  68.4491587
  26.5565538  53.4417295  79.3153238  27.4215126  53.7902927  79.0994930
  26.5910006  52.5264168  79.0373945   9.8529291  38.1774879  45.4476833
   9.5476365  38.4512091  44.5827532  10.5800927  38.7684798  45.6431103
   8.1664127  69.0433979  54.4897985   8.0494416  69.0067911  53.5404778
   7.3545837  68.6817312  54.8452711  67.3773550  86.4138463   3.0667646
  67.7138613  87.1999338   2.6365812  68.0826329  86.1415723   3.6538656
  92.3823235   0.8127920   2.5643404  92.3319075   0.6688682   3.5093172
  92.5366352   1.7530624   2.4731691  37.2577834  97.2805786  63.4936762
  36.4227867  97.5275612  63.0961657  37.1255088  97.4154377  64.4320488
  20.6243682  63.4866095  32.0979214  20.2742553  62.6658440  31.7515135
  20.7143784  63.3307600  33.0380487  18.3029497  69.4687700  87.9071236
  18.3283126  68.5171986  87.8066349  17.8115797  69.6111679  88.7161446
  90.4499934  20.9629575   9.1039617  91.3127754  20.6952802   8.7874372
  90.6330392  21.4885847   9.8827036  12.1210253  47.5202703  58.0773115
  12.7481437  47.7131271  58.7742758  12.5880170  47.7330446  57.2693014
  24.9427208  36.3532440   3.7163980  24.3771347  36.5325538   4.4675214
  25.7057890  36.9150821   3.8516290 100.9522880  45.1711893  62.3417377
 101.7995728  45.5423689  62.5878429 101.1057402  44.2270517  62.3058414
  24.7159410  82.6393318  46.9077778  24.9939156  83.1871414  46.1737061
  24.0205812  82.0895958  46.5465260  79.2415748  56.2638656  11.8302114
  80.1235220  55.9496585  12.0294054  78.7018070  55.4734126  11.8222864
  49.3654834  97.6632669  24.3264063  48.7683724  97.6747206  23.5783632
  48.8017462  97.8138569  25.0851877  22.9862738  62.4534607  87.7584553
  22.5154591  63.0839872  87.2134686  22.3792982  61.7195654  87.8544140
  32.3583150  52.8936434  75.9134102  32.9510784  52.8977156  75.1618481
  32.3434544  53.8030720  76.2116575  28.0914187  56.7919683  42.5001764
  28.8943768  56.4900160  42.0755434  28.3892822  57.4261045  43.1523895
   3.4543356  49.7003937  72.7137852   3.0712146  49.6551228  73.5897970
   4.3456867  49.3696404  72.8248072  11.4453423  64.7047377  64.0790129
  11.3800621  64.5735931  65.0249386  12.1011126  64.0685034  63.7936974
  10.9615706  85.2392605   2.1239336  10.6973504  86.0220793   2.6072652
  11.3858818  84.6851375   2.7790220  18.6104393  64.1235828  69.1784143
  18.1831074  63.3166885  69.4657087  19.0838206  63.8743925  68.3846617
  52.5380300  74.8639038   2.1093519  52.0381330  75.6782391   2.0528562
  52.8285025  74.6984580   1.2124212  18.2391965  71.2265253  74.1853189
  17.7902269  70.8035660  73.4533596  18.1321442  72.1637058  74.0226555
   2.8607300  62.7276134  58.3188295   2.0070480  62.8760529  58.7255526
   3.4763306  63.2090378  58.8715458   8.4664410  25.7143331  82.1100521
   8.8477296  25.9291434  81.2587547   8.4378934  26.5492773  82.5772572
  35.9642313  91.6940144  12.1049459  36.3743524  90.9476331  12.5419195
  36.6968974  92.2556379  11.8519361  97.4271620  79.9023819  82.9228878
  96.5820898  79.8325682  83.3669662  98.0726684  79.8607159  83.6284447
  12.0506692  60.2303934  74.6586943  11.7079449  60.2016830  73.7654161
  12.5473022  59.4173288  74.7509336  36.6949177  56.5369320  31.0675859
  36.0699773  57.2504759  30.9389901  36.4237738  55.8653641  30.4417181
  34.9801731  44.2500591  68.0863380  34.4250607  44.9427891  68.4443951
  34.3952727  43.4979534  67.9943466  95.7948682  46.2457363   6.0819204
  95.1543639  46.0922042   5.3873594  96.4937947  46.7433158   5.6574876
   1.5756401  61.3719559  46.6290617   1.8759659  61.0195017  47.4668026
   2.0475169  62.1993542  46.5343332  18.7621033  17.5333643  70.9889078
  18.7981081  17.8572667  71.8889236  17.9645133  17.9195881  70.6270885
  80.8300127  70.0176430  48.6770964  80.2319945  70.4117060  49.3121719
  80.6833066  70.5124283  47.8709364  65.4168407  21.5508071   3.6266763
  65.3200159  22.2361509   4.2878587  65.5252907  20.7447235   4.1313608
  96.5429757  33.0712501  45.1262052  96.0221860  33.4456245  44.4156797
  95.9186742  32.9472629  45.8411176  13.1645942  49.9590969  36.5651464
  12.7749848  50.2798605  37.3785019  13.7741852  50.6490326  36.3031912
 109.0845517  21.1533403  50.3243589 109.5289382  20.4012275  49.9331045
 108.2206040  21.1620283  49.9123526 101.6061861  46.5069151  45.8185387
 100.8916349  45.9390688  46.1069822 101.2341834  47.3886585  45.8380175
  95.4582287  19.5482481  40.3262424  95.7104386  18.7434828  40.7789850
  96.2615730  20.0678134  40.2958870  22.5618386  47.6956272  82.0031643
  23.1212068  48.1495857  82.6334476  22.7315450  48.1369925  81.1709213
  82.5878538  67.1412325  51.4989758  83.2403578  66.5021467  51.7853975
  82.0477236  67.2958183  52.2739553  26.2336659  52.2067881  53.5377073
  26.9974661  51.6304159  53.5125208  26.5738320  53.0662107  53.2888889
  15.0673783  65.1199436  59.3876886  16.0050738  65.2302980  59.5451021
  15.0170445  64.6825075  58.5377741   2.6606941  46.7686987  47.4473524
   1.8796125  47.3003340  47.2940302   2.3783918  45.8714819  47.2697449
 109.2030239  50.6186104  76.4560318 108.8914978  50.5036783  75.5582714
 109.0415786  51.5421152  76.6491985  42.5695086  83.6502361  72.4169683
  41.6506243  83.3851051  72.4569368  42.5817394  84.5295429  72.7949953
   1.4536193  70.2941513  74.1212988   1.3751478  71.1105347  74.6148491
   1.1093841  70.5049467  73.2533741  32.8713346  56.6529274  57.2223330
  32.9022598  57.5811958  56.9908333  33.7893820  56.3843822  57.2584772
  96.7882408  73.4796190  76.0294390  97.0324196  72.7950716  76.6523361
  95.8317269  73.5003853  76.0591650   9.2162597  50.2601099  73.2094240
   9.5497608  50.2943659  74.1059923   8.6530071  51.0303402  73.1338024
  34.9547219  79.8487949  61.6310740  35.1815248  78.9227962  61.5455008
  34.8042202  79.9729109  62.5681877  26.9996595  37.0366716  84.0528202
  27.2625828  36.7354989  83.1831074  26.0716152  36.8104053  84.1142178
  29.1488385  57.8551769  33.9931464  28.7688899  58.6780214  33.6852622
  29.8946667  58.1220102  34.5305181   2.4733980  71.6975021  32.4983716
   2.1861005  71.4511633  31.6191626   1.7866430  71.3654280  33.0765796
  32.9134560  50.3591156  64.9390125  33.4664774  51.0151291  64.5146942
  32.1076894  50.3547049  64.4223356  10.5691361  59.9255800  68.7650061
  10.9366000  60.3308105  69.5504951  10.6652939  60.5917883  68.0844545
  16.4151406  65.0849009  62.4347258  15.4689598  64.9479055  62.4816942
  16.5869868  65.2539396  61.5083742  82.5166000  70.7607174  65.7700348
  81.7433513  70.2457333  65.5395746  82.3032774  71.1458492  66.6199732
  42.3395348  52.2970915  66.2030602  41.7706966  52.9490662  65.7936907
  41.7375040  51.6934633  66.6382837  32.2785163  33.3691454  62.9543924
  32.4593973  33.5000587  62.0236015  32.2076797  34.2544270  63.3114481
  36.5822625  51.5491247  86.7241192  36.3585424  50.7072353  87.1208477
  36.9384265  51.3220167  85.8651638   5.3522438  62.5607014  42.0884228
   5.3559953  62.7591944  41.1520386   4.9178362  61.7100668  42.1512032
  16.2057565   3.5008062  59.1973639  16.6609906   3.0683530  59.9198437
  15.5247115   4.0227617  59.6215963  32.3178029  93.1642056  84.7327423
  32.7715087  93.0855465  85.5718994  31.4447308  93.4830570  84.9614620
  25.3103482 102.5791624   1.3059385  24.7996436 102.6474741   0.4992540
  24.6554362 102.5697878   2.0039613  64.5133815  33.5675517  11.9146021
  63.6381624  33.2022373  11.7851217  64.5057843  34.3880264  11.4216478
  67.9473028  22.3029415  24.2521532  68.0701158  21.3956348  23.9729746
  67.1437404  22.2868911  24.7720201  14.4706392  60.3856039  86.8249512
  14.0194356  60.3223324  87.6667595  15.2787840  59.8877001  86.9483376
  58.0447410  61.1109212  18.9548547  57.8346275  61.9508591  18.5467012
  57.2082495  60.6471577  18.9927919   2.0248684  36.9095222  25.6601007
   1.5214070  37.4564926  26.2630804   1.4657673  36.1485568  25.5033357
 103.1286795  33.3617592  45.8034849 102.4267007  34.0049410  45.7046127
 103.8196201  33.8312554  46.2708235  29.9459839  86.0265923  78.3180523
  29.0347981  86.2145233  78.5431147  29.9089742  85.7067394  77.4166346
  10.4275811  52.2052336  87.8311253   9.5163512  52.1502447  88.1189919
  10.8317363  51.4025784  88.1607342  20.4331827  76.5756035  60.9864092
  19.7246933  75.9686947  61.2007332  20.6834435  76.9581842  61.8273830
  83.3068547   2.0501176  10.5626447  83.7310205   2.9065601  10.5095346
  82.6215932   2.0804111   9.8950155   4.9089611  76.2412596  58.1402063
   5.3565025  75.5343056  57.6752806   4.9744061  75.9994268  59.0640402
 104.5834915 100.6658077  59.8856258 104.2803372 101.5315723  59.6121788
 104.7038965 100.1845932  59.0669870  34.0123463  20.3375769  62.6390600
  34.6065855  19.7785664  62.1384382  33.9491630  21.1418605  62.1239233
  26.6351557  41.1259699  54.0059948  26.4075089  40.3689814  54.5457840
  25.9732389  41.1348724  53.3146048  15.4731989  60.2945185  70.1918221
  15.8308351  59.9632072  69.3680716  15.3807366  61.2367821  70.0510168
  16.6006494  50.4577589  60.9488153  17.5078154  50.7304335  60.8112144
  16.3494420  50.0376320  60.1262426  90.7373334  48.6389637  38.1781697
  90.6328953  48.7479973  37.2329521  91.5784968  49.0510464  38.3753085
 103.2427258  53.7702370  88.1775856 102.3264856  53.5082626  88.0875587
 103.6612011  53.4574080  87.3755646   8.2984126  65.1083612  59.9654436
   8.7804878  64.5029116  59.4021845   8.7369013  65.9503222  59.8427248
  24.8331547  52.5350428  82.2299290  25.1313782  51.7998266  82.7654171
  25.5935979  52.7671146  81.6969109  32.8384042  34.0718436  60.0372171
  32.9137611  34.1070342  59.0836382  31.9547772  33.7396288  60.1955462
  59.1481352  26.8672252  77.5235844  59.8804045  26.4198208  77.9476595
  59.2657137  26.6878653  76.5907192  32.0732856  88.4073830  59.0324068
  33.0131459  88.3321381  58.8673830  31.8161559  87.5423813  59.3516207
   7.7752715  47.6916695  73.8022327   8.3853120  48.4290648  73.8205147
   8.2521915  46.9757986  74.2221260  23.1436205  58.9417934  55.9176397
  23.4401441  59.8517847  55.9028387  22.3355842  58.9448118  55.4045105
  24.5217752  29.4504094  84.1845798  25.3640962  29.0226388  84.0305138
  24.2401791  29.7439504  83.3181190  24.3994880  81.0519409  59.0677452
  24.6165919  80.3069782  58.5072708  23.5399246  81.3402081  58.7606859
  87.6656041  24.0306274   3.1153257  88.5781763  24.2471115   3.3065755
  87.3658941  23.5521594   3.8882978   5.1090473  58.6954689  73.0215549
   5.9924018  58.3321762  72.9588318   5.2423930  59.6419621  73.0725384
  32.4797440  68.1873369  76.7921066  33.1901765  68.3150911  77.4207544
  32.0439529  69.0383816  76.7469501 107.6451085  63.0189133  57.2534037
 108.0314888  62.1711302  57.0338488 106.7010636  62.8609228  57.2463083
  90.1318287   4.5834840  61.4112616  90.3040813   3.6728395  61.1718988
  90.9986328   4.9867929  61.4584637  25.6858802  72.1579790  42.1323681
  25.5923748  72.5915718  42.9805899  26.6185665  71.9519043  42.0702410
  92.8621985  51.3116312  43.3009624  93.0195893  52.1003532  42.7819490
  91.9807054  51.0333347  43.0524588 102.7753136  17.0105306  15.5698640
 102.5780818  17.7260677  16.1742933 103.7315080  16.9733659  15.5465753
  39.6260881  50.4325390  81.2822342  40.0157690  50.0794935  80.4823875
  38.7729383  50.0027895  81.3428974  25.5575657  61.2847376  86.9738483
  25.2853560  61.5007877  86.0819721  24.7862267  60.8769798  87.3675537
 101.1034442  72.6251125  59.6428680 101.0635067  72.7420378  58.6936760
 101.3186545  71.6999769  59.7613811 104.8468949  51.8626213  77.0727205
 105.5822526  52.4478626  76.8911314 105.2408705  50.9917688  77.1240282
   6.8394148  27.8756785  83.4286022   6.8890399  27.2116137  84.1162014
   6.4125854  28.6229515  83.8476849  21.9919968  52.8065109  63.6573696
  21.4549232  53.5983992  63.6837912  22.7123237  53.0252600  63.0661774
  23.8947415  47.8938293  69.1450119  24.3348002  47.8645039  68.2954741
  22.9651570  47.9722834  68.9306498  27.7156925  61.7126322  69.2143536
  27.1693969  60.9882879  69.5195055  28.5804796  61.3228750  69.0860462
   8.0885428  18.1099045  76.9931173   8.9486659  18.3958590  76.6854668
   8.1573099  18.1283009  77.9476690  28.9706993  54.8503447  79.7564840
  28.8459563  55.7881212  79.6107388  29.6559215  54.6006680  79.1365099
  55.9279393  95.6201723   1.0999830  56.7500399  95.6113222   1.5901907
  55.2934419  95.2118900   1.6890009  34.8625135  63.3939743  56.2572670
  34.2529106  63.5135698  55.5290413  34.4717216  63.8852167  56.9798994
 106.1186297  70.1516914  62.1217585 106.9231312  70.6703377  62.1179724
 105.4794670  70.6977510  61.6640282  87.2253988   1.1900464  31.4903505
  86.4252875   1.6388790  31.7634924  87.3801658   0.5387775  32.1745546
  34.3178773  34.6610069  73.7731171  33.6549187  34.0026164  73.9810562
  34.6777987  34.3809986  72.9315186  29.8134661  70.7177162  18.6202049
  29.9985909  71.0867023  17.7566040  29.4054413  69.8715115  18.4366548
  42.7882195  74.6182060  52.3442078  41.9048738  74.3325758  52.1110678
  42.6750374  75.5158854  52.6566076   4.8347020  66.7203331  79.8429012
   5.3695494  66.1159563  80.3575802   4.1305009  66.9817305  80.4362011
  89.7232852  10.6900064   8.3867509  90.4130898  10.5938093   7.7301271
  90.1662884  11.0694305   9.1457040  34.1842008  26.4869785  77.1303368
  33.6008382  25.8623886  77.5613880  34.0883875  26.2991571  76.1966515
  33.0152416  70.4272509  42.0440960  33.9699745  70.4060888  42.1094275
  32.8263831  71.2275124  41.5540409  31.9565892  45.7090282  52.9557896
  32.5135303  45.5393505  53.7155628  31.0696435  45.7501221  53.3133793
   4.2629912  30.4984808  86.7196274   3.9914256  31.4059258  86.5817070
   5.0708449  30.4107070  86.2137604  58.6443233  61.5802479  88.5164165
  58.4648228  62.4730110  88.2214737  59.5925426  61.5566015  88.6450577
  11.0158432  50.3290749  68.2168341  10.5765808  49.8423815  68.9142609
  10.3209317  50.8492851  67.8134584  88.2298077  98.4004116  77.8829670
  88.1182922  97.9120541  78.6986351  87.9256428  97.8010368  77.2014523
  41.2197781  45.6119823  75.1685429  40.5429173  45.1911449  74.6384621
  42.0433140  45.2680349  74.8225403  10.6880927  98.4571934  65.9735489
   9.7694582  98.3875656  66.2333488  11.0293400  97.5669956  66.0591650
  71.8952202  75.2721551   6.2839944  71.5905975  75.4429462   7.1752126
  71.3717197  74.5263818   5.9907396  60.9661030  87.8812554  17.2550924
  60.5147337  88.6807373  17.5258787  61.8962787  88.0935767  17.3320730
  24.6419525  45.3581715  59.1070509  25.2764988  45.1460552  59.7915888
  23.8220811  45.5067635  59.5781803  14.8753488  29.2100549  72.3209476
  15.8077168  29.0371251  72.4513960  14.8483646  29.8620892  71.6206932
   3.9691678  80.8097839  50.5320692   4.7921562  81.1754036  50.8564806
   4.2352635  80.0796604  49.9731970  23.9963675  52.8802395  75.1014376
  24.0957832  52.3732853  74.2956161  23.0936623  52.7190542  75.3759813
  84.5041741  50.2262306  84.6675205  85.3864826  50.0615501  85.0001526
  83.9951862  49.4673920  84.9526978 104.1683341  77.5097179  61.2795830
 103.9243216  78.1788158  61.9191122 104.9987422  77.8172684  60.9161711
  36.4945083   4.7344411  63.6676502  35.5715524   4.9594034  63.7850189
  36.6824487   4.1174043  64.3748808  50.0631449  31.2501708  28.8764436
  49.3251917  30.7612506  29.2406042  50.8100078  30.9952918  29.4181688
  66.7621521  17.3531000  12.0209844  66.9699959  17.0199720  12.8939397
  66.1895100  18.1032459  12.1809633   5.5413949  34.1233611  67.6435041
   5.9401739  33.8835430  66.8070269   6.0817808  33.6850739  68.3008575
  50.1337910  33.6232615  80.6118679  51.0662937  33.5309982  80.4165173
  50.0663662  33.4418035  81.5492916   8.9912307  80.8892441  63.9153051
   8.8520694  81.7983818  64.1804981   9.9198288  80.8457565  63.6871672
  63.8542322  25.0722114   9.8148878  64.2507831  25.7530919   9.2713983
  63.3525792  24.5368997   9.2000539  30.4985714  82.8722000  79.4867086
  31.1299491  82.9457855  80.2023792  30.2181959  83.7723255  79.3211699
  74.8792671  84.0270188  12.5299986  75.6680726  84.2861822  13.0062826
  74.9248265  84.5149019  11.7077215  34.7194862  30.2919483  43.0377245
  33.8569331  30.7069421  43.0342865  34.9942136  30.3181148  43.9542818
   1.2843160  77.5660181  60.0257158   1.0187110  76.6545725  59.9034643
   2.0735320  77.5152397  60.5649662  32.7871060  67.9310846  52.6336432
  33.1247973  67.2189951  53.1768990  33.5693312  68.3511496  52.2760105
  26.3472462  34.4655657  51.1759853  25.9113002  35.1314449  51.7077637
  25.7076406  34.2426634  50.4996347  95.8842946  52.7104044  67.6032066
  95.8599890  51.7542267  67.6401663  96.2077404  52.9752350  68.4642982
  28.2814336  54.7670507  70.3500986  27.6750088  54.0968800  70.0348949
  28.1066060  54.8255682  71.2893772   9.3864012  26.2824035  56.2105083
   9.7829670  26.5682459  55.3875494   9.5503235  27.0033264  56.8184805
  22.0807195  83.7623119  64.0861130  21.3159060  83.5424423  63.5541821
  21.8481421  84.5883942  64.5100546  29.3929386  78.2721806  51.0850096
  30.0176954  77.5847530  50.8540392  29.3935299  78.8600397  50.3295946
   3.4180939  41.5017462  78.8863087   2.8762347  40.9809160  79.4790602
   4.1526887  41.7926455  79.4266605  15.6775677  61.9090128  74.3957186
  15.7671392  61.0064459  74.0898132  15.0336552  61.8596601  75.1022434
  36.3156390   4.8201192  54.1364765  37.0556178   4.6558679  53.5519361
  36.4082405   4.1664613  54.8295736  30.4297233  76.3528442  65.3717947
  30.1358676  75.4685974  65.1527357  31.3852406  76.2968159  65.3627586
  91.2870051  72.2234392  45.6727028  90.9112002  73.0449724  45.9890699
  90.5323733  71.7106771  45.3831482  50.0948857  99.1251066   4.0044172
  50.6536828  98.4595421   3.6031683  50.4403054  99.9561384   3.6783750
   3.3686948  81.4577579  69.3196154   2.5274089  81.8930149  69.4575167
   3.5045776  81.4936447  68.3727884  43.3465481  86.8983841  66.3047504
  43.7491226  87.5356865  65.7148218  43.2783985  86.0987663  65.7830381
  16.5789187  83.6180878  44.3464279  16.8456447  83.8219738  43.4500360
  17.0750690  82.8308487  44.5707607  25.1997948  90.6278896  54.6038818
  25.4966760  90.9084892  55.4695415  25.7139015  91.1546707  53.9919758
  30.9947276 101.1109734  78.0450630  30.3937459 101.7789078  77.7150488
  31.4972186 100.8402157  77.2766685  52.2050259  54.1908065  16.2244566
  53.0306194  54.1525546  16.7073209  52.2174189  53.4128944  15.6668527
  18.9900339  89.5259285  57.3077250  19.4813585  89.0917110  56.6103792
  18.3120227  88.8956642  57.5512314  66.8969915  27.9005710   8.5661752
  67.5527463  28.1625883   9.2123754  67.3604444  27.2965614   7.9859979
  27.3554134  74.0679359  77.1705198  27.3792124  74.4620752  76.2985563
  26.6793537  73.3930254  77.1099234  29.3136573  67.4679136  37.7322006
  29.9267435  67.2575426  38.4365463  28.7130928  68.1046581  38.1196380
  22.4522448  83.8307190  53.9791298  22.0900321  84.1519737  53.1534004
  23.2983947  84.2713928  54.0570498   5.5899704  55.7324314  42.8739214
   6.1377299  55.4810715  43.6175728   5.9319842  56.5839338  42.6015234
  56.3145803  13.5638822  56.1502981  56.5462803  12.6356805  56.1190414
  55.7248150  13.6383928  56.9005346  28.9248228  94.3792343  57.4145079
  28.1142211  94.7163868  57.0330811  28.7846279  93.4345150  57.4784613
  65.8385013   3.5428823  20.6146216  65.8421062   3.9530672  19.7497678
  66.7454575   3.2705892  20.7543445  11.2985516  97.8300762  68.7256241
  11.5140426  97.3646164  67.9174519  12.0330453  97.6459980  69.3111706
 102.3084809  81.6978073  80.8088684 101.4894969  81.5589905  80.3332424
 102.5194354  80.8401871  81.1779499  12.1134174  81.0882282  66.9290733
  11.9561028  81.8488312  67.4885035  12.0350659  81.4266396  66.0371256
  12.1116483  73.1095028  41.1834669  12.4480462  73.6458063  40.4655170
  11.8676829  73.7409782  41.8601894  44.7770596  86.4486504  71.2041044
  44.3875980  86.5334892  72.0743656  45.5443239  85.8922863  71.3382769
   7.7779222  94.9813080  80.3374481   7.0856959  94.7875977  79.7053671
   7.4460161  94.6405411  81.1680794  72.3181644  59.0569488   6.3853223
  71.8817406  58.7043945   7.1608789  72.4580883  58.2955638   5.8223493
   5.5832418  38.4953205  23.5440977   5.6915125  38.9366142  22.7016122
   5.0843080  37.7048484  23.3380563  38.9870572  40.5452776  79.3418503
  39.6441364  40.9764910  78.7954664  38.5791516  41.2581158  79.8334885
  70.2469778  81.7703342  41.2109709  70.2009535  82.6975536  40.9777784
  69.4747734  81.3814545  40.8002377  33.6835003  64.3893719  58.4499884
  34.1518140  63.8639975  59.0987539  33.9283776  65.2925634  58.6512566
  51.2121080   5.8212961  83.7432194  50.8655189   5.2230657  84.4052124
  52.0769142   5.4696191  83.5318756  20.4858780  71.4485168  80.4461765
  20.5284500  72.3740673  80.6865406  20.5840898  70.9808969  81.2755871
  12.9680574  36.3013792  61.5766096  12.7724040  35.4772615  62.0224571
  12.9736269  36.0750914  60.6465578  88.8394774  67.4737835  57.2035360
  89.6393408  67.9357910  56.9525433  88.5696901  67.8895092  58.0224514
  27.1397138  92.3901272  87.4969578  26.5034032  92.8215218  88.0672455
  27.1979070  91.4967537  87.8356743  30.6042051  82.8931141  64.4045496
  31.5188217  82.6443481  64.2710495  30.6204844  83.4612274  65.1747561
  16.6440427  63.8868809  83.2384682  16.0762787  63.1346512  83.4058857
  17.0212400  64.0970898  84.0927315   7.1633267  77.4561357  53.8218737
   6.3076001  77.7583075  54.1262674   7.0139182  77.1874714  52.9153824
  42.4356365  92.8176498  46.5520906  41.9131422  92.8975201  47.3501205
  43.0402470  92.0978928  46.7327023   5.1049870  47.4045515  65.8722258
   4.7088906  47.0259619  66.6570902   4.3903074  47.8802109  65.4488850
 103.2555125  51.0306255   1.8150575 102.4711702  51.3572685   1.3742216
 103.9204500  50.9972373   1.1273248  20.5107236  63.6225986  83.7162399
  20.4918075  62.6655865  83.7134266  21.4145374  63.8449478  83.4928322
  55.7312809   1.2590898  71.0511065  56.4549326   0.9426511  70.5103397
  55.1645302   0.4959024  71.1632299  45.9439564  99.4520092  87.1446800
  46.2871885  98.7258244  87.6653385  45.2767420  99.8521519  87.7023029
  22.4089527  74.5148468  77.7711010  22.0504856  73.6340523  77.8803682
  23.3410954  74.4200659  77.9669523  73.8152956  10.5675519  28.3776927
  73.1467818  11.2087549  28.6189032  73.4104108  10.0495923  27.6819825
  46.7295550   6.0904897  43.5716915  46.7897319   5.2394212  43.1377602
  47.2728335   6.6703809  43.0380249  11.8821537  41.8163061  64.1453028
  12.4155271  41.0427523  63.9626551  12.3729610  42.2930479  64.8146725
   7.3997911  13.3434430   2.8810461   7.2932228  13.4347192   3.8279112
   7.9480251  14.0865032   2.6289899  65.7331727  38.0295650  16.1020620
  65.9332470  38.0096523  17.0379026  64.7775046  37.9947082  16.0606535
  20.3165770  59.1386557  81.5946198  20.3916597  58.1879377  81.5125847
  20.0233722  59.4311047  80.7316303  72.0025623  12.0171729   3.4720953
  72.0030544  12.0794097   2.5169237  71.4132020  12.7154151   3.7573106
  38.1681657  65.6134081  50.4202032  38.1333542  64.7536516  50.0008631
  38.8087630  66.1048841  49.9060822   4.1123065  81.7863560  66.7138386
   3.7386364  82.1192265  65.8978701   4.7664976  82.4396706  66.9617319
 102.2985716  70.8995485  63.1894493 102.5045015  70.1651955  63.7678528
 101.6502799  71.4111376  63.6734152  23.4019446  80.5880737  61.4424086
  23.8707066  80.6531525  60.6103849  23.7374592  81.3171864  61.9640112
  30.3429365  72.1156883  71.2302303  30.4925036  71.9115019  72.1533585
  30.5653262  73.0433226  71.1510324  29.7828865  38.9000869  59.3284512
  30.6215715  38.5387063  59.6152306  29.6103120  39.6176744  59.9379778
  41.4928102  52.1550179  73.2001972  41.9564056  52.8607702  72.7494001
  42.1741486  51.5159035  73.4088707  14.4419754  68.6859131  59.8846436
  14.4268608  68.1295967  60.6634331  13.5914195  68.5409355  59.4701958
  49.4148849   5.1627649  79.3675184  48.5886739   5.4107488  79.7823811
  50.0335954   5.8393110  79.6426773  52.5893211  68.3581495  66.6256618
  51.6837645  68.4055090  66.9321918  52.6684666  69.0784645  66.0002708
   7.8600806  75.0482655  68.4053898   7.6946771  75.9443331  68.6985302
   8.0695742  74.5688534  69.2069578  58.3409284   7.2287286  43.2890654
  57.6793026   6.7678750  43.8049126  58.7681984   6.5411104  42.7783346
  37.5015020  89.0649891  71.0084677  38.3691263  88.9089584  71.3814402
  37.2446227  88.2205677  70.6380653  29.2645144  31.7911053  34.8639345
  29.6995974  31.4844704  35.6594896  29.9656391  32.1832252  34.3434548
  13.3073783  79.7175360  53.6061192  13.8557017  79.2710161  52.9609871
  13.6643672  79.4471025  54.4520855   2.5714442  65.7397604  30.9393883
   3.1303278  65.8793211  31.7038512   3.1831658  65.5654430  30.2240968
 107.7928908  65.1879263  11.1275923 108.4505780  65.6815815  11.6174746
 106.9983145  65.7177067  11.1924911 104.5503313  64.0956354  12.9530334
 103.8639737  64.7262764  13.1708384 104.2413319  63.6724567  12.1519899
  97.8725637  78.9151812  48.1473112  97.0508124  78.9532375  47.6579142
  98.1902171  78.0222797  48.0129576  27.2947979  87.0366096  79.8432779
  27.5491643  86.4033985  80.5145264  26.3816309  87.2430992  80.0425720
  45.4967642  91.9149685  83.6135674  44.6032190  91.6134834  83.4494972
  45.3970480  92.6272297  84.2451954  10.9353948  52.8971243  56.0360479
  10.2169943  52.4134398  56.4437056  11.3122523  53.4124660  56.7492294
  15.4837000  94.1516495  62.6519299  14.5680177  93.8736439  62.6302385
  15.9712493  93.3960438  62.3239374  35.5015707  50.7232285  48.0056858
  35.4801559  50.8917046  48.9476967  35.6957197  49.7886801  47.9338646
  35.1457214  37.8346014  84.9651527  34.5549917  38.5786605  85.0819778
  34.5657468  37.0755267  84.9046230  36.4257479  65.3491402  29.2476845
  36.8820810  64.5852518  29.6004820  35.6584764  64.9864531  28.8049865
 104.6797494  81.7328453  15.7664454 104.8933394  80.8108044  15.9094286
 103.7369026  81.7374802  15.6013691  28.5176015  93.1545162  52.7354860
  27.7033591  92.6715088  52.8767252  28.2861805  94.0681648  52.9025984
  55.8829700   7.9200376  49.7144842  56.0525976   8.1161035  50.6359053
  56.3574814   8.5984052  49.2339706 103.0787684  52.9135752  68.3396292
 102.4513943  52.9427958  67.6172876 103.3694310  52.0020056  68.3676910
  30.6321478  87.6469898  87.6491833  31.0077167  87.8031731  88.5156536
  29.8962879  87.0563316  87.8100204   1.1874648  69.3480730  69.0757561
   1.2687334  68.4973335  68.6446238   0.6948532  69.8850346  68.4550810
   7.5390303  73.5976648  46.1701441   8.4388143  73.3101988  46.3250160
   7.5848305  74.5533705  46.1976624  60.6681108  80.8450031  54.3780375
  59.8882294  81.3951683  54.4510317  60.4927206  80.2794552  53.6259556
  40.5092239  85.7515430  75.1512527  40.6539965  86.1646843  76.0024786
  40.5503178  84.8122311  75.3308201  66.1119150   7.8004564  26.5895939
  65.9373950   6.8870176  26.3628721  66.9787215   7.9766382  26.2237549
   7.8362423  81.6143513  60.2909565   7.3392725  81.2563324  61.0265350
   7.3177898  81.3879585  59.5188236  69.0915297   7.1928133  65.4220676
  68.9705728   7.0641626  66.3628340  69.6747445   6.4819158  65.1561356
  44.1098881  81.9264317  87.5714779  43.8945580  81.3816643  88.3285046
  45.0619221  82.0194340  87.6063633  15.0716007  49.7988129  68.7248230
  15.5129802  49.0761423  68.2785463  15.4523540  50.5873489  68.3382130
   0.7467037  73.8765192  70.5405569   0.1226772  74.0738678  71.2390375
   0.2001267  73.6571693  69.7859907 102.8061793  21.8505422  26.4037950
 102.5040171  21.0552780  25.9650667 103.5171602  21.5549699  26.9724519
  41.5060400  12.2991765  80.7087898  41.4148008  12.4319757  79.7652483
  42.1324490  11.5799726  80.7899666  72.5176896  66.0933018  40.0561380
  72.7723802  66.8493652  40.5850363  71.6358007  66.3024759  39.7483253
  36.0739422  75.8108807  52.8905153  35.1718163  76.1303377  52.9091692
  36.4353752  76.1614275  52.0764399   2.1276077  18.2007924  25.4833467
   1.8829068  18.0357210  26.3939054   1.2937554  18.3245460  25.0299127
  47.2128248  94.2180347  56.3745451  47.0210838  95.1302433  56.1569500
  48.1003952  94.0748978  56.0459709  17.4418401  88.7185886  13.4176977
  17.0895039  89.4945386  12.9818113  18.2403015  89.0265515  13.8464697
  16.8003976  91.1474705  80.9499550  17.6847744  90.8245277  81.1226368
  16.8610752  92.0936966  81.0811329  19.0936017  78.6962652  64.5772934
  19.7447312  77.9947901  64.5913029  19.4941425  79.4049454  65.0808525
  95.1967165  49.9658100   9.2042120  95.0871680  50.0012390  10.1544626
  95.2557657  49.0315143   9.0045889  37.4526405  47.2553825  69.9518299
  37.0624804  47.3285437  70.8228397  37.7310181  48.1460142  69.7385025
  17.4290121  91.2019539  87.6990414  17.1006918  90.5845261  87.0454311
  18.2933831  91.4559650  87.3756695  15.1705694  80.9009743  59.2471886
  14.2248595  80.9028244  59.0993357  15.2649748  80.7837391  60.1924801
  15.9511602  65.4048538  47.9300261  15.7409346  64.4962597  48.1456470
  16.5429187  65.3423309  47.1802664   1.8311554  59.4925594  48.8025379
   1.5124640  58.7038755  48.3636284   2.6107591  59.2041063  49.2771387
  40.6364965  44.9699640  57.8057528  40.6250191  45.0569153  56.8525791
  39.8389649  45.4124451  58.0962420  37.0074654  89.3946934  44.9176168
  36.4517474  90.0600529  45.3234529  37.6947308  89.8935223  44.4759560
  20.9470534  79.2025948  44.0227032  20.0919247  79.2882061  43.6012077
  21.1274743  80.0731468  44.3774033  11.9140851  80.9074879  76.2014341
  12.1515715  81.0677338  75.2881145  11.5145230  80.0376892  76.1959457
  19.5722413  73.5961008  78.5692453  18.6905134  73.7243080  78.9190340
  20.1450634  74.0386248  79.1955709  14.5832813  58.5087681  67.9109573
  14.6492362  57.6055336  68.2208729  15.4817092  58.7512827  67.6868010
  77.7724766   6.7419351  43.0859327  78.2597660   6.0147680  42.6986408
  78.4282373   7.4267686  43.2171583  85.1054547  31.2567321   6.4841039
  85.7739542  30.6313125   6.2044771  85.5939004  32.0543376   6.6877611
  17.4960792  65.0945473  71.7289877  17.8489935  64.5093584  72.3992395
  17.7207184  64.6721935  70.8999014  14.8689592  67.7548027  69.3502426
  14.1357827  68.3100033  69.0848494  15.5564594  68.3708000  69.6034670
  35.3780254  24.9658597  25.9159279  36.1317946  24.4629968  25.6073904
  35.3835504  24.8472799  26.8657398  87.5420580  21.0769264   0.9247549
  87.3473344  21.9539825   0.5944688  87.0374427  20.4910270   0.3605611
  22.1767163  50.6405497  37.5636172  22.6498532  49.8107719  37.6256013
  22.2429729  50.8856773  36.6407108  92.7506814  33.9344493  12.7304895
  92.7827678  34.4906513  13.5088499  93.3353827  34.3631259  12.1055181
   1.7917268  51.8377542  69.2217445   1.6962238  50.8859062  69.1885233
   2.6309061  52.0093250  68.7944603   5.5136603  63.9262247  16.0482442
   5.4195410  64.6077156  16.7137861   4.6177465  63.7410784  15.7666588
   8.3297002  54.9717093  74.6567869   8.7408847  54.3265152  75.2320099
   8.0449772  55.6705809  75.2456379   9.5992798  86.8901348  49.8697138
   9.7079891  87.7965736  50.1574373   9.1605586  86.9589901  49.0217638
  60.6195650  11.3824884   7.8451021  60.2293239  12.2557536   7.8818281
  61.3870082  11.4389602   8.4143789  82.0578898  72.7549982  63.5900736
  82.7360262  72.2096014  63.9887047  81.2351454  72.3320389  63.8358927
  11.0416293  57.9080248  72.2487116  11.8592799  57.8276253  71.7575741
  10.8724427  57.0254326  72.5783157  50.7556521  32.6399816  51.1985111
  51.0256015  33.5389627  51.3860989  49.8018526  32.6548398  51.2777376
  18.8061762  86.8323898  72.5967503  19.6634078  87.2191715  72.4184656
  18.6777103  86.1989403  71.8907261  39.3836451  77.2672653  66.6782379
  39.8161411  78.1186342  66.6122580  38.4690022  77.4772406  66.8668413
  35.3777462  28.5759653  81.4969730  34.9338271  28.8370527  82.3038197
  34.6875520  28.1890882  80.9582901 106.8569106  59.5412445  42.5101042
 106.4898626  59.4083357  43.3840847 107.7978517  59.4061565  42.6224136
  15.8031964  74.3167591  87.7747345  16.1205661  74.6100569  88.6288357
  15.3364182  75.0733757  87.4199295  83.4351358  44.2060272   0.9389265
  83.7844477  43.3210746   0.8337648  84.0723679  44.7688857   0.4991968
  12.7535641  55.2893639  44.6706533  12.7445555  55.1463985  43.7242317
  13.6278617  55.6339836  44.8525143  17.1152627  66.7317057  68.0065441
  17.1528554  66.3795042  68.8957930  16.5441787  66.1266613  67.5332355
   0.8217088  82.0734119  83.7989140   1.4993183  81.4242649  83.6099815
   0.2332440  81.6337013  84.4125938   6.5161288  77.6973104  69.3863964
   6.6042471  78.5892057  69.0502644   5.5713022  77.5569153  69.4482374
   5.9830403  70.4615545  83.4436607   5.1847774  70.5439615  82.9219151
   5.7918000  70.9388256  84.2510509  29.2870927  96.9304562  81.0521984
  28.9657450  97.7366734  81.4558887  30.2270389  97.0751286  80.9435558
  17.6878893  83.2049084  63.2135630  17.9577887  82.2918320  63.3119297
  17.5478959  83.3132744  62.2728729  17.1107805  69.1549540  27.1864128
  17.2136343  69.2053127  28.1367373  18.0063546  69.1488075  26.8485665
  29.3954985  13.7566865  52.6391888  28.8530730  13.5226263  53.3923292
  28.8224463  13.6306966  51.8829012  15.1925755  87.8091240  39.2546654
  14.9661040  87.2085190  38.5445786  14.3514132  88.0467796  39.6447873
  81.3224257  98.0892277  53.4333324  81.6168131  97.2242069  53.1481647
  80.4915870  97.9245186  53.8792086  27.3716211  63.0722332  38.9256144
  26.9781232  62.3580408  39.4269347  27.9467773  63.5145760  39.5499229
  36.2023234  92.6424408  54.3150139  36.0340071  93.5585976  54.5353746
  35.3488135  92.2989082  54.0509272 108.9957910  48.7260485  63.0719709
 108.4476740  49.1345215  62.4019337 108.8579126  47.7862120  62.9539776
  91.7681717   8.1176866  20.4242492  90.9353708   8.2387556  19.9681664
  91.5437149   8.1780447  21.3528013 104.7466443  28.4170476   0.1852090
 104.2142055  28.7897769   0.8879335 104.6209738  29.0136424  -0.5526965
  17.3074853  90.4747486  35.0254345  17.9875708  90.1517963  34.4343233
  16.5752089  90.6958294  34.4499969  59.6967421  29.7099296   4.2221887
  59.6042953  30.2373783   5.0155790  59.2101810  28.9073173   4.4101102
  13.3275950  69.4556379  47.2493792  13.9265156  69.7176981  46.5502024
  13.7713778  68.7277031  47.6845884  56.6875576   6.4696134  86.2870026
  56.0061549   6.6836179  86.9242859  57.4972438   6.4566148  86.7973709
  41.9721842  81.2933636  62.5946426  41.8631506  81.3198376  61.6440439
  41.1968422  81.7380810  62.9371357  49.2822729  41.1466516  35.3657722
  48.5117995  41.3415731  34.8322868  49.3192362  41.8601335  36.0028148
  56.9716117  28.1597558   6.9242151  56.2166212  27.6229040   6.6833551
  56.5913842  28.9437572   7.3204477 108.5708259  72.4823523  84.2963123
 109.0733163  73.1595898  84.7491741 107.9655774  72.1497202  84.9590778
  29.5681953  92.8821278  81.3034058  29.6201110  91.9463634  81.4980412
  29.2390180  92.9221058  80.4054832  41.1399078  70.5914974  48.3253717
  41.2051868  69.9666786  49.0475702  42.0052528  70.9983206  48.2816744
  20.8468246  59.1162348  85.1580906  21.3779736  58.6681366  84.4998169
  20.8943033  58.5512304  85.9292889  19.3188727  86.8042850  38.3372450
  18.6420727  86.5457153  37.7116942  19.9959683  86.1335468  38.2484221
  41.1549425  78.3062696  70.1877975  40.6337452  77.5046492  70.2323961
  41.5464735  78.2891130  69.3145037 106.1347864  26.4181653  12.7946527
 105.8015487  26.4001218  11.8975122 105.3542731  26.5271989  13.3379228
  38.1214761  11.0012640  71.6552353  38.9888482  10.8131135  72.0136976
  37.5820832  11.1941732  72.4220943  27.5610089  57.6079893  79.6094847
  27.3927736  58.4313536  80.0677395  28.1338859  57.8513384  78.8822794
  26.0067749  75.2694130  70.9003544  26.8861222  75.0109243  71.1763382
  25.5205274  74.4465637  70.8482742  30.4953480  95.1794910  86.4135647
  29.9144053  94.9028873  85.7048798  30.2899575  94.5869446  87.1367073
   5.2634758  76.7744684  39.2944336   6.0531557  76.7773056  38.7534809
   5.5779535  76.9644547  40.1783133  53.7719917  87.2833824  56.3990784
  53.3712482  86.5519905  56.8688726  53.0306673  87.7963829  56.0773659
 107.0480094  64.5700502  85.3408718 106.2172670  64.4579220  84.8787880
 106.9505791  65.3979778  85.8112717   9.3771034  94.8324490  43.9744949
  10.0337327  95.5280781  43.9402962   9.8320174  94.0933132  44.3781805
   8.9935964  78.7332869  65.9428549   8.9909351  79.4127798  65.2686787
   8.9095986  79.2130995  66.7668438  25.6696939  78.9241695  58.2325745
  25.0768805  78.1728172  58.2160950  26.5310860  78.5457993  58.4088564
  40.8589740   3.1913293  34.7154546  41.8127452   3.1107057  34.7227240
  40.6356477   3.3097566  33.7922359  39.3835449  68.5574198  42.0298624
  39.8365903  69.0856218  41.3726044  39.1714549  69.1755676  42.7292490
  36.8945169  70.2113676  79.8896646  36.4606953  69.4274950  79.5526505
  37.7364516  69.8964548  80.2186108  23.0220962  88.8812447  28.3873153
  22.7373338  89.5306492  29.0302825  22.7224326  88.0446339  28.7430167
  11.6342127  92.0003796  84.2291927  11.5925527  91.6706944  85.1268578
  10.7310104  92.2376060  84.0190029  22.5573516  66.4779186  49.6178150
  22.8165483  66.0632801  48.7949419  23.3167839  66.3694572  50.1902962
 107.6667456  78.1861734  50.2610064 107.3231063  77.9470730  49.4002056
 107.4673481  79.1183186  50.3480244  96.1736823  60.6604910  87.0236588
  95.5081166  59.9776888  86.9397736  95.8254565  61.2539434  87.6890755
  37.5180197  43.3371162  77.0802593  37.0862865  44.1325426  77.3919249
  37.2027326  43.2293653  76.1829185 102.6694174  66.1353016  84.2172909
 102.0802445  65.3823328  84.1709709 102.2385938  66.7396975  84.8217106
 106.2957491  83.5375500  74.3754196 106.2101729  82.6553535  74.0139771
 105.5126355  83.6528778  74.9136257   5.5142611  85.7450104  64.5537281
   4.6421778  85.7116032  64.9469042   5.5571443  86.6066074  64.1389465
  24.7876549  90.2081680  85.8905029  24.8493791  90.9224606  85.2563000
  24.3073320  89.5199776  85.4301643  28.6155081  94.8538303  72.2916603
  29.1615701  95.2362442  72.9785442  27.9861426  95.5417919  72.0752192
  21.6798472  27.0961380  79.6109247  21.9298577  26.8008184  78.7354136
  22.1421695  27.9265261  79.7247028  90.7202340  61.3574123  76.7486000
  89.8829902  61.7791224  76.9420290  90.6018723  60.4500008  77.0293617
  26.7034841  83.7002468  72.5104904  26.8115354  84.4006062  73.1539631
  25.8552504  83.3100319  72.7213573  59.7223662   3.1842912  46.6390467
  60.4401158   2.8827013  46.0821724  59.8640345   2.7390493  47.4744654
   0.5085552  45.9224463  66.6082430   0.1224475  46.7120266  66.2291527
   1.3970873  46.1830378  66.8508005  12.6654375  76.5508223  52.5654840
  12.4707282  77.0897484  53.3322144  12.9009223  75.6963253  52.9268885
  45.7383919  59.6283054  55.9264469  45.8205080  59.8980904  55.0117302
  46.1924696  60.3116989  56.4194107  37.3470831  62.9787827  52.6904726
  37.1848536  62.0569372  52.4901867  36.5682626  63.4340620  52.3704863
  29.0600801  55.8048820  65.3200245  28.5789514  56.2860394  65.9932518
  28.7505293  56.1753464  64.4934893  22.6413178  64.6605682  64.5320702
  23.5045242  64.6975994  64.1200733  22.6297474  65.4068565  65.1313639
  30.5603194  76.9517851  37.1455097  30.5485129  76.6419601  36.2399173
  30.0851393  77.7823400  37.1207118   2.9735249  68.9807749  77.9069328
   3.1398511  69.6044922  78.6137152   2.0824519  68.6698055  78.0666780
  45.5479527  72.9020023  68.5690022  44.6502638  72.9640341  68.2426023
  45.4609537  72.5034809  69.4349384  22.6128531  77.9589415  73.2101727
  22.2678375  77.2275209  72.6981020  21.9330239  78.6306429  73.1565046
  57.1534061  68.8051033  54.2032862  56.7371464  68.0463219  54.6121931
  57.9870892  68.4713316  53.8719320 107.1852575  71.4112520  70.8186054
 106.2297772  71.4509678  70.7772303 107.4796837  72.0939302  70.2156973
  97.7875828   0.7821191  84.0400505  97.4083542   1.6464818  83.8810253
  98.2143425   0.5522645  83.2146549  36.9000473  81.9375327   9.7289999
  36.6531531  81.9307330   8.8042123  36.9145273  81.0138967   9.9798353
  30.0310850  82.2811413  74.9388504  30.9809566  82.1913910  74.8619127
  29.6797013  81.5409470  74.4440079 108.1201698 101.1439133  55.7307100
 107.3137639 101.6410351  55.5935764 108.4225963 100.9298611  54.8481274
  95.5894802   9.7404329   7.7944143  95.3913281  10.3486673   7.0823629
  96.5370915   9.6145765   7.7451761  26.8531513  72.7313375  66.6150808
  27.1137786  73.3226109  67.3212719  26.6313171  73.3113670  65.8866692
  44.2169619  80.0138855  51.1906385  44.8337841  80.3880978  51.8197060
  44.7607851  79.4828081  50.6088781  44.1587543  86.1264706  62.2679138
  44.1774035  86.7755795  62.9711485  43.3062983  86.2500572  61.8504477
  55.5852448   1.6440309  28.7369347  56.4579676   1.2508596  28.7387228
  55.2743148   1.5328802  27.8384900  47.5724459  72.5317383  65.3073931
  47.8628159  72.6240683  64.3999815  47.1519136  73.3672810  65.5104971
  43.9675550   1.1149133  74.7842455  43.4381967   0.4381479  74.3623447
  43.9071112   1.8676389  74.1960430 109.1293641  86.3413143  88.6023998
 109.6119199  87.0412350  89.0422630 108.8274587  85.7753944  89.3129063
  90.5641912  31.4382852  56.3663101  89.7350191  31.2826169  56.8184996
  90.3965448  32.2026170  55.8150244  72.9623747  93.3299923  48.2582617
  73.6087179  93.5489368  47.5870466  73.4175539  93.4795475  49.0869236
  49.6510350  11.3608087  80.3942490  50.5091344  10.9427656  80.3225613
  49.7400748  12.1765150  79.9013615  37.4942183  72.8227854  80.3533840
  37.4235129  71.8953371  80.1274014  37.8542566  72.8264236  81.2402821
  20.5463481  74.5502281  50.4665852  19.7887397  74.4856119  51.0480356
  21.0045624  73.7170792  50.5767488  12.5713706 101.8503189  42.7493525
  13.4424996 102.1843433  42.9633474  12.6571524 100.8991241  42.8135204
  93.8578581  16.1121381  72.7013445  94.1474174  17.0114435  72.8550673
  94.6288704  15.6696142  72.3464441  39.8740101  95.3213024  56.0900211
  40.0966024  94.7871399  55.3275537  40.3132248  94.8884869  56.8221378
  83.9640926  20.3092779  79.2834902  83.9918350  19.4138826  79.6207380
  83.2187246  20.3160490  78.6829805  37.1692324  60.6755590  50.1233912
  37.3111606  60.3356981  49.2398882  36.2214017  60.6288862  50.2485752
   2.2759565  56.3347427  13.6593206   2.2743877  56.6309253  12.7490957
   2.2021159  55.3821556  13.6013467  31.6892838  87.5704479  48.5998964
  31.3452649  87.8457546  49.4496536  32.0462704  86.6964531  48.7577915
  78.6218714  10.1022066  82.7966022  77.7501367  10.3440011  82.4837971
  78.9680980   9.5234979  82.1172905  61.8772458  22.6165403  71.3365507
  62.4695109  23.0493654  70.7216454  61.0099314  22.9525674  71.1105442
  11.0207546  68.8465786  60.4281044  10.3406692  68.4322596  59.8970175
  11.6579401  68.1502008  60.5871058  86.6536211  18.6942781  77.6312447
  87.2685503  18.0597127  77.2632551  85.9462999  18.7430585  76.9881678
  83.7936996   2.1228136  79.4333935  84.2145847   2.8793920  79.0251350
  82.8666328   2.3575510  79.4742441  67.0999240   6.7934812  29.4243169
  66.2502574   6.4220251  29.6616387  67.2763990   7.4422849  30.1055956
  53.8887215  91.3535500  66.6263103  54.6195078  90.7894039  66.3734913
  54.3029499  92.1123600  67.0372391  46.7970753  89.6522522  59.3765688
  46.9087076  90.3928375  58.7804985  46.0313702  89.1869926  59.0397263
  73.3164691   3.3563341  78.5859728  73.2387875   2.4400819  78.8518381
  73.0880235   3.3561910  77.6564312  62.0389161  52.0671836  29.5262392
  61.4282415  51.6403285  30.1271494  61.8164477  52.9966823  29.5789011
  29.7603941  90.1111794  65.9269190  30.6167054  90.0419617  65.5048180
  29.4816065  89.2042255  66.0532045  29.8716640  94.9094772  78.1080246
  29.2955780  94.2367744  78.4710932  30.7478333  94.5274162  78.1589031
  38.4518290  83.4559059  54.3212128  38.2503057  82.5255394  54.2209625
  38.3458424  83.6243916  55.2574873  91.8055986   3.1360734  32.8666806
  91.4729952   2.4777616  32.2565675  92.3506235   2.6416410  33.4788227
   6.0441526  27.4250976   4.4355924   6.7375883  27.7261821   3.8484533
   5.2318271  27.6643268   3.9893491  38.4768041  26.6371004  23.7245615
  39.3446096  26.5489427  23.3303888  38.0820783  27.3816673  23.2706411
  49.8377275  74.3535280  66.0753870  49.1960859  73.9058781  65.5239010
  49.7275448  75.2811050  65.8663750  35.0279307 101.5398407  58.5826731
  35.0230718 101.1041069  59.4349384  34.6158385 102.3883724  58.7451506
  33.1655941  13.3982957  88.6237812  33.8362274  13.9755739  88.2587528
  32.3796043  13.5910238  88.1125927  40.1711321  75.5167913  55.6899500
  39.3280411  75.4960680  55.2371788  40.5124617  74.6269083  55.6014490
 107.1642063  48.8822357   2.5565012 107.5318310  48.0059329   2.6712949
 106.4710972  48.9392463   3.2142122   8.2694364  94.2960739  66.5548086
   8.8881129  93.7798214  66.0381365   7.4363661  93.8336945  66.4630032
  29.5327282  94.0308094  65.0518274  29.9431777  94.0500355  65.9163427
  29.5172882  94.9465561  64.7736025  24.8469377  83.9963818  57.1594477
  24.6879554  84.4954967  57.9605961  25.0845909  83.1211853  57.4656963
  43.2251071   8.8858713  49.6010447  42.5553595   8.8901819  48.9171934
  42.7352481   8.7709249  50.4153252  58.5221814   4.0413774  67.9368544
  57.5794171   3.9759363  67.7847242  58.8808011   4.3295969  67.0974779
  47.0796967  90.9281826  79.9288750  47.8633976  91.4441299  79.7395658
  46.7680073  90.6422138  79.0702105  92.5958179   5.7949937  61.5547419
  92.6768278   6.7219938  61.3304043  92.5967287   5.7792104  62.5118113
  17.9785693  77.8942156  83.0777359  17.4121463  78.2788420  83.7466621
  17.5365293  77.0830297  82.8271294  41.5826607  90.1633167  73.5679483
  42.0469141  90.5570030  74.3066740  40.6589079  90.3441715  73.7417555
  30.3203511  98.6556530  75.5502129  30.2524853  97.8872490  74.9834871
  30.4081941  98.2954121  76.4326763  75.5255150   3.6021436  76.4847803
  75.6594776   3.8878644  75.5810976  75.9096001   4.2996801  77.0159626
  84.4016299  31.6413585  10.5213602  84.0107176  30.8126251  10.7981546
  85.3452823  31.4851562  10.5581052  70.4038309  16.7853368  52.9491615
  70.1996635  17.6196207  52.5266457  69.9490069  16.8252958  53.7904549
   0.3314766  49.3683807   4.3641241   0.0681766  48.4567920   4.2380293
   0.5357369  49.4318286   5.2971227  95.7303263  99.3665981  63.6055660
  96.3669385  98.7418652  63.9529324  94.9322451  99.1989994  64.1067743
  12.9246509  96.7094421  58.4190083  13.3155155  95.8359337  58.4399796
  12.1522605  96.6397572  58.9800692  34.2754436  80.6304646  53.5020924
  33.5771728  80.9918785  52.9561758  33.9329290  79.7887897  53.8029289
  87.8861425  44.1545955   6.4105184  87.0233390  44.4791976   6.1527784
  88.4446142  44.3317024   5.6535680  34.1049671  63.1318331  68.2701397
  34.9359870  63.2113218  68.7384558  33.4725142  63.5876942  68.8255024
  72.8509759   7.2154153  69.3864489  73.2845258   6.8221868  70.1438427
  73.5403155   7.7144254  68.9482355  26.6138148  92.2386456  68.3781624
  26.7217278  91.9814396  69.2938232  27.4547935  92.0316982  67.9705429
  36.3226843  99.8995304  50.5408239  35.5867934 100.3925514  50.1780128
  37.0775199 100.1806450  50.0236845 108.1005644  10.7441057  26.6845655
 107.8500818   9.8500074  26.4520383 107.9057668  11.2587846  25.9013677
  39.9242330  97.0636940  70.7387352  40.1224995  96.2039852  71.1099863
  40.2984095  97.6859856  71.3624191  69.4842768  88.8904667  72.9750872
  70.0830126  89.5815182  72.6919079  69.3352795  88.3655357  72.1886492
  66.8555307  75.5774736  77.5833750  66.7834949  74.7005653  77.9603100
  67.4951220  75.4829693  76.8775225   8.7011527   4.1060461  68.4348822
   7.8942465   4.5856203  68.2473993   8.6613845   3.3381952  67.8647518
  97.1787188  18.7049142  17.1752412  96.6704915  19.4269077  16.8055589
  97.6586030  19.0983526  17.9040392  34.2814541 101.9170761  46.4094067
  33.3357143 102.0305920  46.5038681  34.5885873 102.7513981  46.0547113
  64.9946641   0.4190362  89.1284466  64.8695158  -0.2140795  88.4215260
  64.1138958   0.5744089  89.4695282  55.6036304  10.7837976  65.6926727
  55.9097503  10.1110376  66.3008785  54.9837183  10.3278554  65.1234102
  21.3481545  67.6177216  55.6569195  21.9134235  66.8651056  55.4829454
  20.6524158  67.2707176  56.2152863  87.2507547  15.0057806  71.4608955
  86.4597486  15.5121816  71.2762308  87.0432066  14.5199312  72.2590828
  11.9635594  52.3204517  50.9015322  11.8788326  52.6437426  51.7984915
  11.5469742  51.4588022  50.9171438  61.4659046  21.1941923  80.6822681
  61.1911224  20.2968515  80.4938316  61.7530655  21.5392793  79.8368740
  34.1708612  65.8395243  54.1908026  34.2111897  66.1762476  55.0859165
  33.4219146  65.2434444  54.1926527  76.4109443  22.8749574  52.5226450
  76.0442256  22.4814142  53.3143997  75.6690716  22.9386915  51.9211483
  59.9037288   3.9748682  31.8406963  59.4615291   3.1642068  31.5886807
  59.4702600   4.2421640  32.6511836  30.6159520  74.7794724  56.8385172
  29.9553013  74.3396425  56.3034248  31.4478326  74.4072628  56.5458250
  89.5377897  20.8484472  53.5739899  89.2525362  21.7612279  53.5328388
  88.9699386  20.3918375  52.9532766  48.2909966  67.8510189  59.0921831
  49.0168762  67.3720407  58.6922884  47.7609539  67.1745157  59.5136452
  87.1703720 100.6082344  59.1956472  87.1972656 100.2371883  58.3136988
  88.0710506 100.5389500  59.5122051  97.8494475  36.0327999   8.7002618
  97.2791860  36.7480270   8.9821966  98.7326310  36.3993160   8.7436922
  83.9301275  29.5597280  71.6072702  83.0045580  29.6968378  71.8091488
  84.3932985  30.1710905  72.1799231  16.4872440  36.7990295  12.2946890
  16.1624035  35.9007160  12.2334917  16.2742838  37.0704166  13.1875665
  18.8483667 101.4231682  71.9718885  18.0714238 100.8876133  71.8113279
  19.5393622 100.7902336  72.1672201  93.5689566  57.6523773  25.3342397
  93.3244226  56.8020717  25.6995065  94.4470451  57.8170768  25.6778486
  17.1908653  92.6220322  61.3268471  17.8604889  93.3042717  61.2779570
  17.6767468  91.8239975  61.5349245 108.9069412  42.9411308  11.4011152
 107.9880378  42.6771633  11.4477117 109.1116116  43.2527915  12.2827108
  78.7000870  35.0503171  65.8062887  77.8751062  34.7242654  65.4466677
  79.3614362  34.7850049  65.1671839  89.8861275  41.3836185   4.6769388
  90.1205013  40.4876892   4.4348486  90.7259867  41.8247119   4.8046167
  29.7095728  73.2412958  68.2234335  28.8743210  73.6941814  68.3395529
  30.3350878  73.7586498  68.7306881  23.3436441  83.8888168  32.7529740
  24.1999507  83.9779186  33.1713390  23.0229616  83.0349064  33.0432224
  11.1412430  93.5254574  18.9344859  12.0028281  93.6611176  18.5401511
  11.3287818  93.1717682  19.8039484  18.4687984  50.9131289  45.6436729
  18.3957160  49.9836922  45.4267836  17.9748440  51.0086060  46.4579964
  91.8316196  29.1805185  71.3001871  91.0555481  29.3229879  70.7582998
  91.9348358  28.2292379  71.3253450  38.1980324  94.7834587  68.4320736
  38.1455636  95.4911518  67.7896929  39.1358328  94.6200371  68.5323286
  74.1995214   9.1847242  77.7208710  75.1007675   9.1313566  77.4028492
  74.2183279   9.8801435  78.3783484  76.7382931   9.8847688  58.9691114
  75.8114265   9.7824682  59.1851664  76.8858074  10.8303369  58.9885521
  18.3371639  76.0234261  68.8145685  17.7285635  76.6879320  69.1374779
  17.8360629  75.5379009  68.1592894  82.1299719  16.7220891  82.5709057
  82.0327066  16.9151700  81.6384411  81.2488674  16.8260110  82.9301929
  27.0739269  88.3750820  74.9136353  27.6729846  88.8489819  74.3367672
  27.3158574  88.6586666  75.7952690  16.2776840  59.3837690  74.0617371
  16.4527178  58.7139702  73.4007025  16.7638457  59.0919924  74.8329353
  52.5703859  92.0860100  55.3136921  51.9192123  91.8555069  55.9763193
  53.3769083  91.6674995  55.6147003   3.7399980  73.6246300  67.9287243
   2.7976888  73.5252380  68.0643988   3.8931951  74.5672703  67.9935074
 108.8009522  83.6084834   2.7168806 108.2817862  83.5092060   1.9188554
 108.1542776  83.7613288   3.4058530  57.6221514  92.0413780  78.4079981
  56.7645359  91.6219521  78.4773111  58.2433844  91.3135910  78.3829212
  48.6056291  16.1784566  43.0742455  49.3929957  15.9871877  42.5646400
  48.8330232  16.9564260  43.5834551   2.0951051  92.2108078  77.3319197
   1.7083281  91.3836670  77.0447302   2.9285499  92.2607803  76.8638325
  51.8836139  10.0154317  79.8729658  52.1824287   9.8880495  80.7733631
  51.4804744   9.1807855  79.6340513  52.7654992  10.6883443  58.8570881
  52.6307129  10.6982244  59.8046970  51.9158612  10.9350408  58.4917259
  53.1023932  97.1206188  54.6470308  52.1900606  97.1666908  54.9329662
  53.4166145  96.2812233  54.9830723  95.6245683  18.1525815  51.2006807
  95.2574037  18.9188875  51.6413498  95.0383066  17.9985059  50.4598761
  26.9356513  85.8120918  74.2991257  27.5150228  85.4491234  74.9690580
  27.1518826  86.7442417  74.2749453  89.6132873  24.2797197  84.4993401
  89.0770220  23.7269891  85.0677967  90.3424524  23.7176431  84.2373943
  64.9682497  11.8786825  35.8844590  64.0529059  11.9143499  35.6067777
  65.0352167  11.0654653  36.3848734  44.8104143  76.4692497  68.9247084
  45.6171894  76.3358879  68.4271479  44.4505262  77.2875834  68.5825968
  50.7757282  87.4532032  74.2817879  51.1434698  87.9498672  75.0127649
  50.5660582  86.5971756  74.6552610  28.8178443   1.3564027  26.3551092
  29.0613209   0.4308713  26.3736105  29.0088861   1.6364683  25.4599571
  48.6712837  92.4664307  76.5748072  48.1689405  92.2246742  75.7967091
  48.2974815  91.9332886  77.2764206  22.6626062  97.2654819  72.5003481
  23.1062460  98.0722141  72.2384453  21.7448545  97.5184250  72.6002693
   3.9974674  24.6587030  16.2635858   3.4981760  23.8601295  16.4345319
   4.8686298  24.4765273  16.6158922   2.9829464   4.9430955  41.3989687
   2.5826798   4.2034448  41.8560696   2.2501669   5.5249990  41.1973381
  89.1553566  52.8460685  10.7898386  89.2384503  52.1248046  11.4136274
  89.4136307  52.4670593   9.9496706  49.3323088  75.8652735  47.2742414
  48.5127831  75.7158375  46.8027782  49.5568514  75.0102091  47.6412249
  16.4894426  72.8651524  26.7251992  16.5412140  73.0377483  27.6652861
  17.3932648  72.9371023  26.4183450  24.9314642  57.3948336  68.9128399
  25.0426984  57.0940638  69.8147249  25.1917195  58.3157396  68.9336538
  98.2068037  13.4434045  35.8475971  98.4600233  13.3918870  36.7692566
  97.3407482  13.0371297  35.8140802  81.5483526   6.6506044   8.7034090
  82.4416885   6.3440362   8.5478456  81.3928435   6.4744321   9.6313150
  39.9592829  53.5643482  56.1618233  39.6774030  54.4160080  56.4956713
  40.8892393  53.6795187  55.9665012  68.2335399  19.7149576  82.1950436
  68.7412547  19.2217172  81.5507030  67.8412412  20.4301752  81.6942406
  49.0519892  21.5549386  85.5549335  48.2905077  21.3958372  86.1126614
  49.6884917  20.8925737  85.8239555  13.0497249  22.1521512   5.5390031
  12.5536760  22.0310346   6.3486345  12.6647886  21.5255777   4.9262579
  92.2169039  53.7068454   7.4942262  93.1292865  53.7248603   7.2053297
  91.9034932  54.6002952   7.3537309  98.2612230  75.0609255  74.3649530
  99.0398241  74.9806070  74.9159145  97.7099527  74.3211508  74.6200323
  27.5038075  39.8770142  41.7950583  27.7110481  38.9522171  41.6607618
  27.1693897  40.1729250  40.9484005  25.4211926  97.3643112  82.3657990
  24.7585702  96.7733288  82.0081711  25.4163647  98.1161404  81.7733765
  57.8757499  14.0203203  82.2416019  58.7172269  14.2983736  81.8798828
  57.9225181  14.2586912  83.1674576  30.9063601  82.1007347  51.9193125
  30.3239202  82.7416801  51.5116453  30.8383799  81.3261795  51.3610411
  98.7949775   9.1137613  75.2163267  98.0302356   8.7871946  74.7422409
  99.4811081   9.1739858  74.5516253  46.7282104  90.2234268  77.2330284
  47.1522236  89.3661785  77.1934557  45.9078026  90.1072025  76.7538166
  95.5496404  28.4587470   2.9455431  95.1842544  27.6051465   2.7129610
  95.7203982  28.8833038   2.1048124  49.1995144  92.4100685  51.1876249
  49.3561268  93.3446217  51.0522747  49.9679613  92.1059132  51.6705418
  94.0430282  27.5373567  89.1422939  93.6786436  27.2532381  88.3040047
  93.2812713  27.6360620  89.7134495   4.0549117 102.4662495  31.3458014
   4.9055326 102.0707321  31.5361786   3.6817273 102.6574802  32.2062635
  22.3746681  73.9098310  60.8745527  21.4574099  73.8259840  61.1350155
  22.3460007  74.3936920  60.0491524  18.2256826  31.9196979   6.1711366
  18.3722290  31.0655872   6.5776403  17.4140486  31.8127815   5.6751020
  30.5612760   2.0239843  44.5316696  30.2791094   1.5984548  43.7220192
  30.1077228   2.8669084  44.5298719  46.8925070   0.2160276  75.3517866
  47.5399433  -0.2491747  74.8220253  46.0607474   0.0610174  74.9041462
  51.9557333  85.6346321  63.8158321  52.3566151  85.3746891  64.6452618
  51.0325766  85.7716370  64.0285397  34.7629929  63.8840342  51.9470835
  34.6351027  64.7033024  52.4252844  34.0489817  63.8646746  51.3098669
  80.6732845  83.7241745  69.7632217  79.8082304  83.9484119  69.4202662
  81.0635757  84.5661259  69.9977779  89.9422477   7.4561323  47.3083305
  89.4793056   8.2333387  47.6211882  89.9082445   7.5249685  46.3542175
  86.9632362   0.9307874  82.5284386  86.2380527   0.8454240  81.9095230
  87.6545786   1.3652242  82.0288944  11.4335140  64.7523586  14.8028429
  11.5734037  65.6818096  14.9838979  12.2888168  64.3484012  14.9494894
 100.3644155   1.7491163  55.1476431 101.2362741   1.3796438  55.0076771
 100.1794695   2.2371686  54.3452501  42.9098558  96.7430305  81.3467884
  42.5883293  97.6328564  81.4919090  43.7878895  96.7404842  81.7279434
  82.1414112  51.2902750  56.5854025  81.2420105  51.5969194  56.7006207
  82.6792597  52.0713438  56.7153597  54.1430712  77.3035860  60.4589224
  54.2487383  76.4298725  60.0825024  53.7761497  77.1467590  61.3289833
  77.7658785  27.1079866  20.7517107  78.4695122  27.3890106  21.3366563
  77.0317281  27.6834480  20.9664209   9.8731554  74.0669870  52.4835062
   9.5419586  74.0707684  51.5854359  10.4768074  73.3247185  52.5130415
  53.2948875  84.8842144  77.0288658  52.3476458  84.9336529  77.1574116
  53.5882759  85.7949066  77.0570850  98.0056118   6.5370286  84.9663544
  98.8882850   6.1690725  85.0079632  97.4868034   5.9813226  85.5479527
  19.5760249   5.6580556  75.3101587  19.9422346   6.4153017  74.8533106
  19.0709351   6.0343946  76.0309124 103.6055399  77.2240496  68.3005905
 103.0915071  76.7844725  67.6232624 103.2940347  78.1290627  68.2881308
  25.2833772  71.8701363  78.0170298  25.7619572  71.9725704  78.8396454
  24.3890381  71.6589212  78.2849407  22.4329233 101.9565010  58.1897068
  22.1422434 102.8658676  58.2589531  22.6400995 101.8412304  57.2623348
  33.4157038  83.2851887  62.2686672  32.7619720  83.9839458  62.2440672
  32.9451680  82.5064087  61.9714594  90.1581310   9.2859949  62.5541925
  90.3442167   8.9069856  63.4132433  89.2210506   9.1391862  62.4255371
  21.4560390  59.2396212  51.7654467  21.4202762  59.2267895  52.7218914
  22.0499229  59.9609709  51.5576315  22.5814247  92.0450115  58.1442213
  22.2099781  91.3648510  58.7060356  23.0417609  91.5631294  57.4571180
  57.3359345   2.8563608  75.3652811  56.7701434   2.1574605  75.6933880
  58.0312227   2.9285062  76.0191917 101.4259312  13.3014337   2.0071943
 101.5006921  13.1904880   2.9549940 102.1044848  12.7316371   1.6450842
  21.1746343  41.7634860   3.7735708  20.4743084  42.2409431   3.3288152
  21.9799742  42.0931236   3.3748300  14.3008741  52.7956382   9.4799097
  15.0003418  53.4487335   9.5010145  13.6698469  53.0993453  10.1324422
  22.3175907  77.7288055  68.4632206  23.2012463  77.4870014  68.7405539
  22.4509907  78.4176445  67.8121138  56.2160826  86.9241142  41.0626841
  55.4614687  87.0015430  41.6464663  55.9470987  86.2800026  40.4077053
  65.9123945 102.7813911  59.9483156  66.0217714 102.1653652  60.6727266
  65.2798796 102.3583794  59.3676090  44.6482277 103.1939983  70.6404018
  44.6216583 102.6394081  71.4201212  44.2364883 102.6657009  69.9565840
  25.1824379  88.2830906  55.4884958  25.9761429  87.9002571  55.1147318
  25.1673174  89.1790771  55.1520395  99.7833656   8.3479227  79.5298004
  99.0366815   8.8371194  79.1842890  99.8634647   8.6423315  80.4370689
  35.6121421  81.5896225  69.2888880  35.8962297  81.7171860  68.3837652
  36.3987589  81.2943554  69.7474575  18.3130836  80.7220745  75.9231901
  18.8418782  80.3410912  76.6242361  17.5184476  80.1887035  75.9056997
  81.8170618  19.8708356  86.9524384  81.4291023  20.6474985  87.3555756
  82.1280264  19.3475450  87.6911449  35.7427764  74.7358465  80.1374722
  34.9551988  74.2759180  79.8469257  36.3811135  74.0405941  80.2967834
  17.8986061  69.5695066  52.0229578  18.6698365  69.5585489  51.4561081
  17.3161614  68.9090586  51.6477203  37.4591017  63.4296131  55.5447960
  36.5540218  63.3170033  55.8352852  37.5042152  62.9577303  54.7132158
  13.2258987  86.1937714  74.5715427  12.3456812  86.2886906  74.9354601
  13.0853057  85.8366489  73.6946583  43.5310214   0.2424921  69.4268036
  44.4708090   0.2654661  69.2465210  43.1458633   0.8153833  68.7637186
  18.4135818  85.0143337  45.7657051  17.6230359  84.7208309  45.3127909
  18.0941224  85.3898048  46.5861893  46.1843257  19.3235029  77.2387648
  45.6149213  18.6266435  77.5649643  47.0611225  18.9395727  77.2462654
   9.0668738  53.6630726  76.9448280   8.4679341  52.9171705  76.9784784
   8.9353359  54.1136885  77.7790165 102.7640117  48.5865116  34.0826559
 103.3326055  47.8275633  33.9525580 103.1444646  49.0452194  34.8317075
  51.2154484  85.4995918  51.8323135  51.8030977  86.1278439  52.2520781
  51.6479158  84.6534157  51.9471788  44.9553442  73.1857777  51.6787720
  44.4031429  72.4049616  51.6384220  44.3365383  73.9153433  51.7111635
   7.3941708  81.4724350  81.5189266   6.7909265  80.8238029  81.1561394
   7.7174151  81.0734463  82.3267365  78.1618021  56.4710609  27.5122316
  77.9862014  56.5039913  26.5718515  79.0382586  56.0921375  27.5790937
  75.1621794   6.5257848  80.5920410  75.2752661   5.6157316  80.8663368
  74.3568515   6.8082822  81.0254860  38.2877254  91.8032455  65.3624678
  38.6598158  91.9612980  64.4948244  38.2446814  90.8497429  65.4345560
  32.7541137  61.7688942  61.7589760  31.8897176  62.1794081  61.7360401
  32.7643871  61.1894798  60.9971380   6.1072552  94.4812107  69.8419666
   5.8238143  94.0857983  70.6663132   5.3665352  94.3554974  69.2488718
  46.8199825  94.8280716  50.3036213  46.0576725  95.3043556  49.9745798
  46.4966106  93.9421082  50.4671192  96.4336107  75.1231758   5.2849157
  96.4230344  74.4945518   4.5631464  97.1521256  75.7190601   5.0730379
  97.4586941  81.7894363  48.4487009  97.4059964  80.8596802  48.2273293
  97.4772884  81.8071365  49.4055557  61.2873076  25.0363935  78.1384373
  62.0375704  25.6302083  78.1652880  61.3867210  24.5620359  77.3130131
  42.7470636  73.5785151  56.7802334  42.1280575  73.0012608  56.3331938
  43.0981016  73.0463171  57.4942160   6.0608991  28.7807552   0.3491266
   6.6089472  28.1485359  -0.1158182   5.1969131  28.6899845  -0.0527708
  84.1680359   3.6720861  41.9804573  84.2707371   4.0926755  42.8341484
  83.9292978   2.7681936  42.1859407  36.4638329  99.1375160  43.5149956
  37.2273540  98.5666370  43.6008310  36.8314624 100.0151539  43.4109497
  82.3226761  14.9146093  33.9610672  82.9374050  14.4085229  34.4923091
  81.8527340  14.2576421  33.4474635  87.7569661  42.3501579  27.7319868
  87.8152225  43.2214919  27.3400552  88.5328124  41.8906871  27.4107607
 104.4846342  54.1505805   0.8368356 103.8759372  54.4455520   0.1595552
 103.9221046  53.8135711   1.5341241  38.7994742  59.9236727  55.7339096
  39.3458676  59.2333698  55.3581858  39.3150592  60.7228422  55.6255913
  15.9639347  54.9854660  64.6508217  15.8970094  54.3433428  63.9441204
  15.2920508  54.7209692  65.2791882  17.0439231  96.7369366  39.4836140
  17.2131097  96.8048668  38.5439348  17.7930593  96.2501907  39.8272824
  32.9373240  97.5455570  52.4475384  33.0592465  97.3686981  51.5147543
  33.0673766  98.4901810  52.5312185  11.4185297  72.9017305  76.6013145
  11.3447440  72.8865767  75.6470823  12.1388578  73.5073376  76.7762518
  36.6199335  84.6087543   9.9274881  35.9585413  84.5835773  10.6189783
  36.9549831  83.7131683   9.8838098 107.0737002  57.8534023  10.5680902
 107.1617029  57.2889034  11.3360937 107.8209898  58.4491340  10.6218298
   5.7858652  63.7263203  48.6471367   5.8612049  62.7901411  48.4624004
   5.8352679  63.7869310  49.6011400  82.9228090   6.5605558  19.8793423
  82.1394514   6.1905492  20.2863789  83.1783460   7.2775854  20.4596877
 108.7812256  14.4033349  50.7297945 109.1583132  13.5561956  50.9672928
 109.3190264  15.0438703  51.1953211  43.5115862  82.2377682  70.0458479
  42.7141190  81.7105293  70.0938511  43.3680153  82.9468250  70.6726313
  84.1038011  12.8483594  34.7393084  84.9779247  12.4647344  34.6687984
  83.7522863  12.4948324  35.5564284  10.3538666   0.7557882  39.5776987
   9.8433456   1.4351667  40.0182152  10.3946266   1.0408700  38.6648464
 107.4556564  13.2195486  68.8932276 107.2053217  12.9170526  69.7661877
 108.4029459  13.0871786  68.8563824  -0.2546062  37.1102727  32.4754524
  -0.3211918  37.8836549  33.0355096   0.5902777  37.2050489  32.0356584
  84.3887018  14.9520410  50.9202147  84.0544819  14.0817178  51.1371326
  84.4186996  15.4129041  51.7586279  32.0230913  91.9105339  28.8150263
  32.0028162  91.3704300  29.6050310  31.5197682  92.6913548  29.0457344
  92.3483799  39.6469299  27.1855314  91.9952164  40.1561633  27.9150446
  91.5915582  39.1808883  26.8302019  98.3197140   7.7956594  35.8310103
  98.5246967   7.7497591  34.8971438  97.7368616   7.0521844  35.9851193
  80.3855537  39.2371953  86.0056973  80.2935051  38.3333410  85.7043743
  79.5749258  39.6652425  85.7302094  75.2707933  21.3291276  65.1517344
  76.1659716  21.1977209  65.4641771  75.3352712  21.2500871  64.1999865
  46.8828964  88.8462639  81.6627216  46.6878510  89.6934128  81.2620544
  47.7079487  88.5752010  81.2601662  88.8352560   4.2731012  48.9092493
  88.9938711   4.3526376  47.9686403  89.4485258   4.8900808  49.3085766
  87.5149559  14.8317541  39.8793221  86.7562031  14.4948400  39.4028592
  88.1862139  14.1586030  39.7675300  61.8559456  76.6821861  76.2795830
  61.9821119  77.5754118  76.5996838  61.6671658  76.7863941  75.3469849
  17.2735190 100.6306553  31.9726753  16.3412857 100.4446602  32.0848346
  17.5218892 100.1443291  31.1865258  10.2814436  71.4637327  60.8266306
  10.3999805  72.1778393  60.2003479  10.5401683  70.6777477  60.3454590
  33.4887242  74.0043974  62.3048496  34.1611481  74.2294168  61.6618538
  33.4033251  74.7888803  62.8466320 105.0674841  57.4951640   2.4595316
 104.1339300  57.2837345   2.4577673 105.1302001  58.3067886   1.9559820
  54.0124989  82.4603748  67.3741913  54.2484760  82.4915600  66.4470625
  53.0648994  82.5952053  67.3848200  62.3212765  31.1063398  66.4844847
  61.9599556  30.7473482  65.6740522  61.6209577  31.6560281  66.8361044
 102.0984958  15.5521406  83.6051655 102.5016426  15.5400671  82.7370834
 101.3725542  14.9315847  83.5407543 106.8389986  48.3265106  -0.2604620
 106.4347646  48.9402286   0.3528745 107.3675487  47.7498142   0.2911623
  29.8967290  92.8119755  87.8207493  30.1417613  92.0448208  87.3033905
  28.9451456  92.8663158  87.7326202  59.5440720   4.8420347  65.4596233
  59.2112492   4.1581834  64.8784113  59.4990348   5.6429971  64.9374628
  15.8154663  41.9304935  47.3939664  15.8566841  42.8847495  47.3313005
  16.3942798  41.6195289  46.6978986  56.1249505  28.5473550  22.6453257
  56.8100237  27.9714597  22.3058343  56.2142669  29.3523897  22.1352553
  71.0588669   3.3095659  51.8963528  70.8931087   2.3709024  51.8088388
  70.2461647   3.7242998  51.6069698  39.0272331  71.3706350  32.7983952
  38.0854678  71.2046051  32.7566934  39.4268227  70.5042362  32.7215004
  53.3414793  84.0030670  50.6673050  52.9764748  84.5306683  49.9569273
  53.9041233  83.3656693  50.2275467  75.6735634  29.0436758  60.2708673
  75.5692600  29.3776716  61.1618185  75.0944422  29.5910371  59.7405481
  53.5115300   0.2326978  74.2139149  53.0336117   0.9259523  74.6691370
  54.2601691   0.0460924  74.7804356  54.2429495  88.1834412  60.1130629
  53.5228586  88.6390591  60.5490828  53.9300489  88.0405712  59.2198038
  85.0642322  41.1171545  87.1365833  85.1341223  41.9106592  86.6058254
  84.5222067  40.5262865  86.6137791 100.5510257  27.6682294  60.2595186
 100.4992937  27.6311697  61.2145996 100.1735567  28.5179246  60.0319958
  96.2112640  18.8720144  71.8310738  95.8373426  19.6890748  72.1609592
  97.1573280  18.9898599  71.9165564  59.0020822  18.1863512  74.0066481
  58.5649060  17.9507650  73.1883526  59.1605424  19.1273321  73.9312506
  74.8996733  17.4205602  49.8438168  74.3918823  17.9648603  50.4455757
  75.7124590  17.2368730  50.3148460  22.7214845  69.6489040  20.5556638
  23.4657463  69.0948860  20.3203352  22.2069916  69.1145698  21.1606558
  80.2006172  43.2839216  89.2302227  80.7726406  42.9689134  88.5303783
  79.7930406  44.0716089  88.8701344  18.8476932  76.9557047  21.7393565
  19.5936382  77.4796247  21.4472842  18.4451318  76.6402197  20.9302568
  31.7229199  79.3139505  81.7994308  31.4745522  79.2212343  82.7191925
  31.4862823  78.4760284  81.4017963  14.6902593  60.5864898   4.0953882
  14.5495495  61.5331451   4.0784414  14.0486845  60.2378742   3.4764631
 100.4737781  11.4666570  66.5404844  99.9716972  10.9173883  65.9384441
 100.0668548  12.3303903  66.4726305  60.8385324  95.4438972  72.8092670
  61.3614845  95.2103710  73.5762215  59.9491644  95.1699734  73.0333567
  40.6964254 102.2455788  59.5836687  41.3254547 102.7532864  59.0710449
  40.9256411 101.3329315  59.4082546 108.7323593  23.9851106  77.2107553
 109.0231489  23.1725324  77.6247406 108.0633520  23.7087453  76.5844250
  90.2065132  79.1623775  21.5423544  89.7861693  78.3025161  21.5289171
  90.6559393  79.2224780  20.6993635  31.5695167  81.5836906  61.2417984
  30.7019401  81.8662262  61.5311337  31.5257239  80.6275463  61.2518024
  16.7658246  98.1822395  55.1915312  15.8398998  98.2592678  54.9613905
  17.2204435  98.1552982  54.3496084  81.3339733  40.8418764  62.3424959
  81.6023229  41.1693490  61.4840269  81.2232755  39.8996175  62.2155094
  11.6028154  83.4642315  73.8763332  11.6880369  83.9854622  74.6746397
  10.7010269  83.6098766  73.5903263  89.4054722  38.5199750  84.8424816
  89.0903019  38.0316747  84.0819168  88.6263727  38.9572729  85.1860046
  23.9943242  89.8938847  44.2920685  24.2727160  90.6840706  43.8290977
  23.0465603  89.9915028  44.3839693  70.1338528  23.7376035  86.3265038
  70.4734277  23.9018835  87.2062302  69.2992710  23.2917989  86.4712906
  20.7272577  83.2127190  56.5915728  21.4799452  83.2315254  56.0005236
  20.8876681  82.4592876  57.1597672  67.3692988  10.7277788  85.3512001
  67.8622197  11.3514436  84.8180008  67.5208186   9.8811925  84.9310207
  35.4640245  76.2161732  69.8693657  35.3343296  75.6176615  69.1337109
  34.9885583  77.0086527  69.6200848  71.2391328  16.7131246  60.0612068
  71.9719313  16.6401018  59.4497299  70.7754825  17.5040353  59.7860384
  63.1912612   5.2187646  53.1517982  63.7783002   5.2712549  53.9060307
  62.7253603   6.0549272  53.1522608  52.4259781  18.3089078  54.4771528
  52.2091483  19.1102136  54.0005779  52.9702007  18.6042036  55.2071190
  50.5010532   4.0084280  52.7883530  49.9181830   3.3817304  53.2169962
  49.9512266   4.4369710  52.1323967 108.6507534   4.3277753  69.8152828
 108.1434559   4.8874963  69.2274189 109.4557165   4.8192895  69.9786186
 102.6074194  11.5249933  77.7764225 101.9492458  12.1464933  78.0875015
 102.8051256  11.8117441  76.8848419  87.9021763   7.5585664  73.1931019
  86.9754289   7.3710168  73.3420801  88.2664560   6.7311395  72.8786325
  40.2734375  76.2433624  41.4449310  40.8969355  75.6428242  41.8533850
  39.7832060  75.6978178  40.8298826  71.3864063   9.0641321  77.6300049
  71.2929939   8.2328619  77.1647120  72.2647928   9.0292181  78.0087566
  10.7309803  78.3941261   2.5877340  10.1148876  78.8645641   3.1492956
  11.5373453  78.9078227   2.6338060  53.0372010  35.3640760  39.5417595
  53.8021921  34.9272645  39.9162197  53.1893812  36.2949766  39.7045207
  76.6242002   9.6157564  66.4798450  77.1798681   9.2712320  67.1789646
  75.9639214  10.1388086  66.9344711  31.9420505  97.7351189  81.0554218
  32.3072243  97.2779465  81.8129635  32.0952535  98.6620998  81.2383556
  71.4621829   3.8567747  83.4779549  72.1451472   3.2397951  83.2150364
  71.8927239   4.7115434  83.4624672  28.3516058  67.3285667   3.4181268
  28.5443720  66.4796440   3.0201299  28.7594351  67.9660312   2.8319986
  97.2765516  13.6443628  32.9571462  97.0077585  12.7293123  32.8754497
  98.2330822  13.6158670  32.9354930  75.9586691  12.4364484  50.1533365
  75.8205055  12.9381002  50.9567547  76.1140774  13.0994905  49.4806910
  28.8957644  75.6833601  53.5287619  28.1319213  75.6836462  52.9518938
  28.5662699  76.0184717  54.3626451  79.4309400   6.0304368  78.9364815
  78.9227794   6.8067468  78.7012339  79.8052095   6.2394536  79.7923279
  77.8272747   3.6750616  58.2515717  78.6153482   4.1700853  58.0276966
  77.1688102   4.3443979  58.4377384  96.5708637  85.0892448  34.5147014
  95.9078503  85.7664108  34.6492314  97.0420742  85.0467396  35.3467941
  79.1619085   3.2020677  88.2309818  78.2722114   3.5548223  88.2156944
  79.7222589   3.9702047  88.3414555  34.7993326  84.9821758  54.2435884
  34.1939354  85.2661800  54.9284744  34.2407417  84.5633793  53.5887527
  17.6218522  84.0025520  41.8991423  18.4435570  83.8224220  42.3558569
  17.8908932  84.3853569  41.0640907  59.7134113 100.6020737  62.9069948
  60.1940680  99.7778606  62.8303432  60.3672886 101.2336922  63.2065535
   0.5873355  56.9352905   3.2258852   0.5226930  57.3878948   2.3849352
  -0.2779738  57.0401470   3.6214597  61.5074562  31.4587320  51.3870668
  60.7490658  31.8552507  51.8158484  61.9213318  32.1817888  50.9157610
  71.3418864   9.0910829  51.9598293  71.1069821   8.3414758  51.4128923
  71.3164304   8.7520421  52.8546095   7.5356255   7.6413740  74.4256067
   6.6047010   7.8199972  74.5586538   7.6300488   7.5566686  73.4768438
  60.0531172   9.9584878  64.5357418  59.4846629  10.6520284  64.2009258
  59.8638700   9.9255098  65.4734659  88.2001600  64.6285716  14.1715105
  88.2083271  65.5243961  13.8343580  88.3358190  64.0805141  13.3985574
 107.4395822   2.9747690  87.1661949 107.2407840   3.4124769  87.9939175
 106.6589044   3.1114400  86.6294479  76.7704414  12.0357812  64.8838520
  77.0438455  11.8064893  65.7720613  76.4148210  11.2226404  64.5252943
  27.9364657  80.0509071  52.4884701  28.5959101  79.5038891  52.0616961
  27.1205640  79.8409033  52.0341206  89.9584745   7.2423471  32.5105381
  90.8693479   7.3948682  32.2589803  89.5326017   6.9521535  31.7039084
  42.1477795  77.1659613  61.9806576  41.9517279  76.5026045  62.6422834
  41.2912035  77.5034285  61.7186832  55.7749127  34.8710931  81.1800766
  55.4334234  34.6206296  82.0384884  55.3164493  35.6841196  80.9678364
  81.1528944  20.2645315  61.4053535  81.9848799  19.8662103  61.1496592
  81.3395189  21.2023748  61.4482355  79.8727487   3.3084215  67.8884888
  79.2979263   2.5743593  67.6717567  80.5481647   3.2920373  67.2104216
  13.7386179  81.4511776  21.0982394  14.1043782  80.7454014  21.6314578
  12.7957332  81.4075470  21.2572908   8.2422384  79.1373245   9.2348344
   8.2622513  79.4234172   8.3216055   9.1109737  79.3545619   9.5729692
  32.3086452  90.5132580  53.6075830  31.8841767  91.2842274  53.2311964
  32.4728847  89.9405670  52.8583956 104.6943474  89.8025227  87.6032257
 104.1307163  89.1771603  88.0587292 104.5718861  89.6033955  86.6750145
  69.0864897  99.1804790  81.2205124  69.1725445  98.8853836  80.3140068
  69.4626999 100.0606441  81.2226105  64.3172311  25.6891359  57.8023386
  63.4720944  25.3559507  58.1039381  64.9346541  25.4304136  58.4865046
  23.5647678  69.3795061  56.3105202  22.6561022  69.1506720  56.1150885
  24.0177870  69.2993689  55.4711246   7.3097191   6.4004529  65.3639126
   6.9590483   6.8706811  64.6075106   7.0211372   5.4964174  65.2387905
  39.7931656  84.1100017   2.7678354  40.6924709  84.0508167   3.0903013
  39.7400268  84.9762336   2.3640497  10.8168246  54.4397852  89.3958176
  10.3428961  53.7990591  88.8656407  11.7404867  54.2563269  89.2242924
 106.8376092  67.1782112  47.7148294 106.6120819  67.7244043  46.9618082
 107.4643154  67.7033710  48.2125044  33.1101942  95.4289532  32.4107909
  34.0077329  95.1028919  32.4766541  32.5961447  94.6645355  32.1507049
  14.8438702   9.5824254  88.5740566  14.1972885   9.8217691  87.9100704
  15.5878983  10.1598085  88.4029388  35.3702521  84.6249294  68.3449697
  36.0574293  83.9865780  68.1538391  34.7246003  84.1362095  68.8553810
  84.7663854  16.1472238  70.9853888  84.4335960  16.2799657  71.8730021
  84.1848587  16.6677583  70.4312229   4.9908266  28.0610574  72.3749256
   4.8378525  28.1299795  73.3173037   5.8648071  27.6776422  72.3015594
  87.3173593   5.8919061  52.1163559  86.4161323   5.7424367  52.4021530
  87.7981113   5.1256956  52.4294424  15.6632646  57.4179832   2.1030862
  14.8459944  57.8066722   1.7912729  15.9287199  56.8234435   1.4014490
  63.8404083  99.7677135  76.6538334  64.2048693  99.8521042  77.5348997
  64.4579124 100.2374172  76.0932016  30.7884121  69.5094299  55.2020550
  30.4443026  69.4554663  54.3104792  30.1016092  69.1259670  55.7474804
  65.4639291   4.5457471  80.7123375  65.9342955   4.2706789  81.4993095
  65.9750746   5.2800954  80.3721809  30.4591537  72.6775646  49.5065594
  31.0131192  72.8202868  48.7391043  30.1943135  73.5565615  49.7775841
  39.5352292 101.2522030  56.6997004  39.0650439 100.4535484  56.4603329
  38.9070916 101.7530918  57.2200727 100.9337400   3.5803617  69.1807127
 101.5751766   3.5378850  69.8899269 100.1660513   3.1234563  69.5244074
   3.8343058  15.8104242  73.3983660   3.1372223  16.2055410  73.9219952
   3.4388027  15.6732095  72.5375605   0.7032546  53.9366809   2.0098741
   0.2851614  54.7917835   2.1110590   0.0929817  53.3219806   2.4172361
  85.8711052  94.3902779  72.2622538  85.5297756  95.2455711  72.0010900
  86.8146133  94.5255852  72.3500872  55.9112154  10.3063501  70.6162357
  56.7270683  10.2929414  71.1166716  55.9654950   9.5372213  70.0490189
  75.8723307  80.8551598  73.9660692  76.5735769  81.4785767  73.7767696
  75.2964735  81.3195896  74.5734644 104.0779518   7.8303064  51.3343334
 104.1925787   8.3709444  50.5527973 104.8117565   7.2161497  51.3104534
  17.0332369  46.4331619  21.0932977  16.6052088  46.9884769  20.4416425
  16.5593609  46.6089527  21.9061716  50.6885624  83.1549263  83.7294197
  49.8148966  82.8921795  83.4397602  51.0832787  82.3486900  84.0616989
   1.4057592   6.0731822  49.4873238   1.8715346   5.8620751  50.2964687
   0.7521668   5.3794342  49.3992186  70.0380076   8.0355710  47.7448750
  70.0795568   8.8776487  47.2916555  69.4691003   8.1965411  48.4976482
   9.1837913  32.9387212  58.3667517   9.5372987  32.1184540  58.7108803
   8.2407641  32.7862930  58.3059454 107.6318809  22.8640485  64.6390629
 107.1231778  22.5048685  63.9121199 108.5434785  22.7000880  64.3975258
 107.4126806  19.3645763  59.3328190 107.0312731  18.8657212  58.6103868
 107.2170482  18.8447547  60.1123953  14.9152923  27.6802635  82.6038265
  15.6461179  28.0254078  83.1166649  14.1376722  27.9006028  83.1166553
  33.0665803   6.8601280  33.3583045  32.9155374   7.7933538  33.5083270
  33.5393929   6.5658379  34.1368127  30.7731175   9.5814925  45.5640602
  31.6354108   9.2884374  45.8586836  30.4308200   8.8459402  45.0560999
   1.8499981  29.8931789  43.8005686   1.4015871  30.1517892  42.9954100
   2.5546759  30.5335402  43.8985395  28.3784819   2.5515655  17.2101390
  27.4887943   2.8407732  17.4127424  28.9408112   3.1204027  17.7359164
   8.6426318  30.2747345  76.5276623   9.1603082  29.9444580  75.7933855
   7.7337921  30.1717544  76.2454605  47.8234100  29.3441129  62.3445845
  47.3828173  28.9322472  63.0878735  47.8675270  30.2717876  62.5763321
  85.3581275  16.7832172  25.7332897  84.9642647  17.0346951  26.5686703
  85.6287564  17.6114881  25.3371096  62.5540184  64.1492989  12.1915205
  61.6819071  64.4950822  12.0015485  62.9015063  63.8933089  11.3371427
  88.8445916  98.5246219  27.2520447  89.6944513  98.3218943  26.8610549
  88.9621475  98.3480989  28.1854534  11.6345799  17.8055191  46.7364836
  11.7465734  16.9672430  47.1847963  11.0774398  17.6026952  45.9850264
 103.8991524  19.6075833  63.7524557 103.5107459  19.3353927  64.5838881
 104.2516346  18.8006318  63.3771992 107.9386554  33.7089562  35.9685946
 108.4676513  32.9594254  35.6954670 107.0351459  33.3982038  35.9108448
  55.1662062  69.8036745  14.8234804  55.3348218  68.8726154  14.9681528
  55.9255623  70.1104393  14.3279894  24.9030566  20.0486445  53.6209822
  25.5098438  20.1108980  52.8833055  24.9040556  20.9247661  54.0065241
 107.4253869  45.3508806  53.1025410 108.1534060  45.1539469  52.5131035
 107.7135875  46.1229086  53.5895109  99.9418021  20.3942060  60.6512165
 100.5600376  20.5258298  59.9324036  99.0797199  20.4866171  60.2456236
  93.9377285  30.1104021  47.8643036  93.6062790  29.9072003  46.9896173
  93.1527938  30.1799202  48.4076977  84.1009105  28.9829874  40.1935625
  84.4347657  29.7569919  39.7400308  84.6381606  28.9176679  40.9830713
   6.6914260  32.0192027  75.0207281   6.5876895  31.1766791  75.4630184
   6.6342795  31.8090415  74.0886354  17.1859800  77.8058794   1.0062654
  17.1263479  78.4926942   1.6703088  17.9162799  77.2577908   1.2934740
  81.7225804  99.8929598  45.6668615  82.4433526  99.5192026  46.1738396
  80.9893587  99.2962875  45.8171940  95.8629621  22.4722886  63.4524727
  96.0022331  23.3839536  63.1961536  96.5687336  21.9914436  63.0201483
 102.0461495  21.8336701  62.2480536 101.6462405  21.7980266  61.3791275
 102.3775078  20.9478807  62.3957300  21.5096641  24.2762566  69.5647001
  21.5398192  23.7962222  68.7371206  20.8777452  23.7943363  70.0982380
  97.4558140  30.1385617  35.6243157  98.3185495  29.7522020  35.7748032
  96.9847335  30.0000691  36.4459825  10.6849253  80.9740353  49.9749613
  11.4111567  81.3387966  50.4806948  10.9637237  80.0829697  49.7639704
  48.9214514  68.8114956  23.7005956  48.5651373  68.8393155  22.8126199
  48.2082855  68.4605625  24.2339571   5.5555207  18.9837885  37.0654821
   5.3014451  18.0916297  37.3015547   6.4549917  19.0682971  37.3817778
 101.6863037  20.0386119  82.4786949 102.5943173  19.7992003  82.2931576
 101.5650941  19.8203623  83.4027672  52.8907289  98.6242138  63.9001989
  52.4551263  99.3438446  63.4434557  52.2939768  98.3970009  64.6132851
  54.1648579  29.9238324  56.9562769  53.3652878  30.4073739  56.7486525
  54.8515224  30.3738236  56.4641094  41.2346363  30.7801390  64.6599770
  40.3603411  30.6056213  65.0083780  41.3604403  30.1141620  63.9840508
  16.4791536  32.9076552  53.7165260  15.7629371  32.2799063  53.8124228
  16.7239821  33.1307220  54.6145964  97.3067297  23.7878227  54.1617823
  96.6977419  24.0912032  53.4884882  96.9528497  22.9437494  54.4420385
   3.7056932  25.9503078  64.1569614   4.3692175  25.7555509  64.8188066
   4.2069024  26.1389375  63.3635902   8.6045599   9.3156075  16.7710054
   9.5167208   9.4562137  16.5171862   8.2564867  10.1961923  16.9111753
 109.2812485  27.7608442  43.0870056 108.4184764  27.7663302  43.5015249
 109.7680005  28.4507608  43.5379171  24.3196321  36.8487763  19.1691780
  25.2738428  36.8253970  19.0972841  24.0104222  36.3404202  18.4193802
  98.2121504   3.2370070  38.1990099  97.9079713   3.5537010  39.0495443
  97.9031695   3.8933799  37.5745606  65.7527401  92.2008299  82.3121166
  64.8857524  91.8180441  82.4464321  65.5955371  93.1444811  82.2798252
  24.9313974  48.3556509  59.2678452  24.1967559  48.0768967  59.8144960
  25.6394529  47.7518320  59.4920969  26.0115933  41.9985628  47.1823883
  26.7992711  42.0688105  47.7217054  26.3313746  41.7087555  46.3279963
  65.3147652 101.6577967  44.9870443  65.7250991 102.2657367  44.3720102
  64.3913861 101.9099229  44.9929714  99.6780397  34.3061209  29.1380787
 100.0501413  33.5553765  28.6753106  99.5404465  34.9636316  28.4561825
  90.8082689  26.6533017  23.1902170  90.4192246  26.9075489  24.0270185
  91.4390601  25.9700346  23.4171104  91.9407166  11.3338900  74.2863226
  92.8090311  10.9377193  74.3591881  91.7016555  11.2194455  73.3665466
  19.1527116  47.5594568  45.9404182  20.0368643  47.8687000  46.1375761
  18.8048577  47.2740078  46.7852545  36.6867256  72.4804547  17.1518095
  36.4345075  71.6679910  16.7130430  36.5417783  73.1620386  16.4955671
  65.5245831  95.9643464  69.7752285  65.7410207  95.9490137  70.7075071
  64.5677056  95.9720110  69.7515869  93.2036806   8.3063662  47.4380398
  92.2752346   8.1082642  47.3156643  93.2140089   9.0240312  48.0713511
  95.1900936  10.1270735  41.6475010  94.3852700  10.1399982  42.1655035
  95.2956856  11.0295451  41.3464546  25.8541989  24.5536828  44.8319626
  26.7531729  24.5867038  45.1590586  25.6653953  25.4515958  44.5593166
  67.9362815  83.7626730  46.3322449  68.7544533  83.2815634  46.4561796
  68.1048506  84.3325757  45.5818939   0.6683082  55.0861549  67.9194212
   1.1309537  54.9197483  67.0981407  -0.0233508  54.4248772  67.9429293
  85.8981956  30.3040719  30.1516891  85.3896583  29.7666168  30.7589483
  85.7871498  31.1988401  30.4730749  26.2099314  33.2567072  54.3351460
  26.2731552  32.7504754  53.5252285  27.0217943  33.7628746  54.3652153
 100.0942196   2.5564262  49.1947651  99.4069732   2.7910966  48.5711813
  99.6838976   2.6594445  50.0534010   2.0504943  28.2802677  52.9921246
   2.4713063  27.4257851  52.8972149   1.2307617  28.1990242  52.5046158
  23.8057208  51.8532801  48.8661146  22.9611802  51.4305496  48.7102890
  24.3655443  51.1533260  49.2021132  85.2087511  26.2238312  75.5509138
  85.6854833  26.0367179  76.3595819  84.5035375  25.5768394  75.5334473
  85.1663722  11.9761360  61.3226748  84.5968760  12.7452338  61.3425541
  84.9954523  11.5300405  62.1521425 105.7153131  19.7840905  83.2160854
 105.4609449  20.6384468  82.8673649 105.4133193  19.7965384  84.1243076
  16.8065035  47.5894547  63.3897495  16.5354741  46.6783810  63.2769680
  17.3789728  47.7632904  62.6425600 102.5122071  32.2199512  59.3731976
 102.3297961  32.8383136  58.6656761 102.9583670  32.7429295  60.0392818
  98.3071781  10.6739891  53.7563419  98.5642136   9.7660536  53.9170218
  97.9361893  10.6653225  52.8740025  10.4107261  48.6334896  13.9982736
  11.2439430  48.6963367  14.4652104  10.5096173  49.2238903  13.2513583
  15.7892644  34.1143131  73.5744572  16.7360795  34.2033958  73.6832571
  15.6586564  34.0865231  72.6266146  78.6174186  73.8335001  49.1944647
  77.9342034  74.2504846  48.6695147  79.4040748  74.3491541  49.0169716
 101.3616605  46.9020176  48.8322639 101.0257090  47.7974081  48.8728237
 102.2429336  46.9930410  48.4699059 107.3153932   8.9276844  50.8332157
 107.1083371   8.0032104  50.6964397 106.5850599   9.3986255  50.4318953
   6.8097156   4.5225492  44.8211718   7.4467582   4.0470347  45.3543615
   6.3267136   5.0607741  45.4482698  11.7313313  26.2661219  59.2475319
  12.6681209  26.4618206  59.2285967  11.5082610  26.2524962  60.1782751
  60.5771937  98.4666162  79.2364645  61.0853138  97.6611733  79.1399860
  59.7242536  98.2588699  78.8549328 103.4696808 102.1573677  54.7362614
 102.6968923 101.9008642  54.2330360 103.7260642 101.3622211  55.2034235
  14.2646444  14.8608136  51.0036993  13.3830225  14.6944499  51.3373137
  14.6057522  15.5570209  51.5651035  25.9293985  31.4998794  18.6349440
  25.1062536  31.0132813  18.6783743  26.4529562  31.0275841  17.9875994
  94.0857650   9.2800856  79.1098499  93.2372667   9.5371902  79.4706535
  94.7092427   9.4576979  79.8140907  19.1019130  29.7998738  52.6993895
  19.0637231  29.9401236  53.6454868  19.3441021  28.8788104  52.6033831
  51.9792271   7.4493444  53.4408426  51.7629433   7.4824965  54.3726969
  51.1580610   7.2070056  53.0128431   8.2887495  29.6110415  69.2720222
   8.4370393  30.4315186  68.8018560   7.3464704  29.4596839  69.1983175
  23.0487204  30.7901788  54.6016598  23.1799936  31.7107177  54.8288250
  22.1044040  30.7087851  54.4679689  13.0483460  44.4373989  69.8165131
  12.6037049  45.2129269  70.1586819  12.9037929  43.7651205  70.4823828
  32.7054334  20.4730725  29.5754576  32.3554492  21.3639307  29.5648122
  31.9364238  19.9123859  29.4730592 107.0260039  35.3023958  50.7407904
 107.9518647  35.4200840  50.5282784 106.7281110  34.6172929  50.1423550
   9.6428317  34.9004889  39.2274880  10.5238259  35.1871324  38.9868307
   9.0814149  35.6451797  39.0119004  40.5161953  30.2073550  77.2607422
  39.9596834  30.9861517  77.2603512  40.1259470  29.6344471  77.9208326
  15.8005273  17.1766913  58.9937782  15.1548052  16.6011918  58.5838127
  16.5354681  16.6006184  59.2040968  69.3932381  90.6111657  44.0751314
  68.8297986  91.0101925  44.7381163  70.2565690  90.9931766  44.2331171
  16.9948137  45.0103903   7.2993153  17.0802522  44.7321749   8.2111973
  17.6718950  45.6777906   7.1880841  86.5010394  47.1704292  54.8789740
  86.7654051  47.0286131  55.7879448  85.5995668  47.4867535  54.9382877
   6.9317830  19.5415568  54.2627811   6.8155688  20.4002571  54.6694279
   7.8707618  19.4855893  54.0855312  10.5136204  23.1931901  53.9968443
  10.3157902  23.5342646  54.8690605  11.0660398  23.8647151  53.5966921
  88.6347916  80.3557121  62.2660255  88.7440839  81.2778555  62.4982643
  88.2533135  79.9555193  63.0474043  11.9660079  59.4631004  56.3490868
  11.5199530  58.9126015  55.7054901  12.8889751  59.4249344  56.0982704
  33.8044739  33.4773254  47.3079300  33.5704231  32.5571680  47.1864271
  33.8482332  33.5899639  48.2574701  66.7852762  89.1547905  33.6807084
  67.3307892  88.3726167  33.7634873  67.1339359  89.7603034  34.3349433
  28.7891769  22.8710437  63.7866068  28.8811374  22.3183703  64.5627022
  29.6667719  22.8963900  63.4052658  24.6285176  22.0499849  26.3116264
  25.4484153  22.5383878  26.2377143  24.0558195  22.6196909  26.8251252
   2.2160508  38.9125848  16.9234943   2.8361934  38.3321333  17.3647785
   2.7404398  39.3660116  16.2634552  15.2293408  12.0367301  44.4516850
  14.5076716  12.5225937  44.0524817  14.8639917  11.1706388  44.6323442
  20.0670314  19.6407461  76.6827583  19.5670474  20.4306459  76.4770746
  19.4135725  18.9415264  76.7005777  94.7620965  19.8894453  63.5330772
  94.9806071  20.8204484  63.4916067  95.5844642  19.4413650  63.3351660
  50.3971243   2.8894189  76.4814663  51.3020229   2.9865479  76.1849022
  49.9033213   2.6963010  75.6845331  37.2710633  44.7875977  36.9496179
  37.8232169  44.6959209  36.1731172  37.0159340  45.7101536  36.9545341
   4.1186535  55.7426929  58.5928154   4.1990623  56.2983608  57.8175735
   5.0021327  55.7147121  58.9601231  54.5783840  88.8840821   3.3759363
  55.1406144  88.5045865   2.7005727  53.7141179  88.9344600   2.9676016
   8.5256296  21.1790705  73.6165762   8.0818951  21.1881042  72.7684879
   7.9327458  21.6500807  74.2021275  17.5950348  33.7764430  60.1658440
  18.1187379  34.2480421  60.8135748  17.2441983  34.4615054  59.5967770
  59.0745354   0.9330421  25.5517697  58.8705778   0.7336129  24.6380615
  59.3310547   1.8551978  25.5441499  85.9803071  75.9199320  76.0969543
  85.5933084  75.0488459  76.1845493  85.2921441  76.4481794  75.6924582
  59.3198302  97.7515404  53.7204313  59.3370190  97.4624669  54.6327782
  59.8382463  98.5561763  53.7143230 105.2649884  13.3956444  43.5549355
 105.9251149  13.4899306  42.8682232 105.6267930  13.8722825  44.3020248
  32.9934263  30.1609826  72.1477842  32.6400661  29.3298912  72.4650478
  32.4969316  30.3433871  71.3500071  36.6251588  11.6098058  61.1230993
  35.8452702  11.2453449  60.7045603  36.5056992  12.5579143  61.0678482
  27.1624446   8.4736764  42.1799040  27.1381450   9.0994173  41.4559650
  26.2735176   8.4833628  42.5347948   8.3741874   5.0988352  81.9144249
   7.7822322   4.4893822  82.3553181   7.8252268   5.5384982  81.2651443
  11.7581153   6.7989904  66.1052322  11.4259243   5.9604931  65.7846022
  12.5448632   6.5712893  66.6006231   2.6485568  10.6666565  74.6905184
   2.9699415  11.2828994  75.3486919   2.0794791  11.1920881  74.1281080
  90.9451462  17.9104948  52.9592276  91.4726115  17.3184574  53.4954214
  91.1014308  18.7770081  53.3346796  11.0521448  47.6860714  81.1746597
  11.6835415  47.0353746  80.8678055  11.5444410  48.5067320  81.1945152
  21.8048358  10.1773775  81.4064217  21.2602496  10.9299767  81.1756611
  22.5610161  10.2410412  80.8230114  19.0748572  24.0891576  85.9613705
  19.5142567  23.7035275  86.7192936  18.7147009  23.3401036  85.4865646
   7.9340905  35.3863215  63.0908918   8.4850234  34.8384047  62.5318813
   7.2116470  35.6565976  62.5240946 103.6566449  56.1986732   7.5074953
 104.1859842  56.5017748   6.7698228 102.9312481  55.7233191   7.1024364
  77.7834977  66.8096638  27.1671414  77.1846379  67.5548458  27.2151160
  77.7463354  66.4160204  28.0388618  26.3834786  38.7120128  74.5664549
  26.7965674  39.5640087  74.4261217  25.7166862  38.6535192  73.8822079
  28.6106968  50.8443451  65.7806635  28.5608459  51.7986965  65.8350897
  27.9627323  50.5341959  66.4132595 108.7601821  31.3804245  58.0707216
 109.6440003  31.3920331  57.7033472 108.3377208  30.6289792  57.6546812
  19.8244393  48.1504345  39.4789314  19.7987747  47.8562927  38.5684085
  19.8482752  49.1056108  39.4214845  10.0587857  19.7830796  75.5381536
   9.4632733  20.2483845  74.9507093  10.4649043  19.1141832  74.9869013
 106.3613160  25.2311778  56.2597942 106.3359303  24.2760682  56.3176918
 105.7963572  25.5294394  56.9725990   5.2617693  77.4126720  22.1237278
   4.8420620  76.5616322  21.9979906   4.5349127  78.0338621  22.1688151
   4.6008563  52.2178459  44.9400902   4.3948328  51.2879801  45.0356770
   5.2730536  52.2454691  44.2591953  46.5012312  35.6763053  38.0263615
  46.8429136  36.5299320  37.7602696  46.1415482  35.8243346  38.9009738
  96.0709203  36.3850760  52.3694420  96.6881241  36.9492316  51.9035912
  95.2119232  36.7632771  52.1815062  14.6214199  41.0484314  57.6668024
  15.2842343  41.7174673  57.4956465  14.6607447  40.4716349  56.9039202
  94.5031644  76.9217682  60.6222153  95.1304127  76.4969873  60.0371075
  93.9499999  77.4444008  60.0416136   0.9530417  60.4974461  51.1646080
   0.9060471  61.4490986  51.0730839   1.2792942  60.1912689  50.3184128
  91.4141036  40.7222748  69.1903687  91.4576484  41.6778898  69.2240477
  92.1093143  40.4721308  68.5818148   6.8038350  53.9418507  31.9824600
   6.5019119  53.5237741  31.1760569   7.6691270  54.2876387  31.7635202
  11.6175592  49.2428064  51.1861992  11.2340224  48.8850594  51.9869184
  11.8715048  48.4727716  50.6774807  84.2652453  51.1609507  40.4548120
  84.8209037  50.4828548  40.0705385  84.6898616  51.3764381  41.2851715
  99.7218866  81.9294167  72.0805883  99.4935859  82.4677372  72.8384304
  98.9341546  81.4141464  71.9067812  85.3699554  56.7592955  85.2129173
  86.0849823  56.8127775  85.8470345  85.7244600  57.1576929  84.4180298
  29.9044704  12.9535806  39.7369003  29.0443134  13.3734989  39.7424912
  30.2474904  13.0985093  40.6186962  88.6825002  42.6334429  61.9587183
  88.8531555  43.0433607  62.8066969  88.3342756  41.7688131  62.1764040
  22.0070624  60.6993008  70.9788275  21.4351511  61.2701511  71.4919329
  21.6031265  59.8339891  71.0444784  25.3861547  60.3496599  69.8820543
  25.1450706  59.6213055  70.4544258  24.5508647  60.7455015  69.6333981
   7.8152174   3.9234000  63.8842535   8.3819216   3.1527752  63.8493967
   7.3176730   3.8183329  64.6952057 102.7261103  46.9821072  63.6394835
 103.3699752  46.6530466  64.2666912 102.1371384  47.5250769  64.1634369
  35.0784540  63.8419533  48.8420820  34.2477942  63.8955545  49.3146992
  35.6449556  63.3215189  49.4116926  65.8076061   6.0580438  40.6258678
  66.3804687   6.7691493  40.9129047  65.0459827   6.5004635  40.2511358
  23.6396551  42.8788614  54.2810011  23.3447719  42.1175289  54.7806549
  24.0498543  42.5082684  53.4995699 104.9621119  99.9634837  72.8606081
 105.7871141 100.4321270  72.9870129 105.2232804  99.0547748  72.7113676
  95.1471783  49.3159342  40.3327799  94.3853904  49.2616558  39.7557521
  94.8918523  48.8243484  41.1134148   8.9670861  25.6824946  62.6366997
   9.0494847  25.8613038  63.5734367   9.7201180  26.1220765  62.2418070
  31.2579823  34.7474909  33.3990502  31.7207408  34.2211461  34.0510082
  31.8561792  34.7845435  32.6527143   2.8314710  28.0555582  65.9698105
   2.9405659  27.2624803  65.4450655   2.9919887  27.7713418  66.8696356
   6.0980290  51.9673634  50.2329350   6.6710651  51.7162704  50.9573746
   5.6401187  52.7463722  50.5486870  33.5292125  42.5828218  87.6184082
  33.7659526  42.8878450  88.4942818  32.8909063  41.8862057  87.7717876
  37.5342155  78.7336159  48.6164856  38.2651305  78.9256859  48.0290318
  36.9655514  79.5007086  48.5500145  26.8733716  57.3853397  35.6454325
  26.3825321  56.7807484  35.0888562  27.6987863  57.5224018  35.1805305
 107.6627002  11.2420702  85.3305149 107.1870665  10.4147017  85.4044437
 106.9902019  11.9151282  85.4352570  45.1153231   9.9505347  57.1055079
  45.4037952   9.0610260  57.3099279  45.7268095  10.5152178  57.5782061
   6.6134131  57.7161026  80.7466793   5.7102305  57.9882193  80.5840588
   7.0149094  58.4672499  81.1834908  34.6184587  56.9221401  80.2899075
  34.1290927  56.9316435  81.1124992  34.7956419  55.9956408  80.1273060
  84.6633294  98.2250481  19.0048099  84.7139778  98.3663790  19.9501634
  85.5210450  97.8714263  18.7692106   1.6515248  53.4048033  48.6768770
   1.3351156  52.6889277  49.2279100   0.8860163  53.9650822  48.5491467
   6.2122369  71.3663912  51.3390970   5.6283379  72.0669222  51.6298676
   6.2435907  71.4604282  50.3870440  28.5790634  55.5032206  29.4551778
  29.1648889  55.7085466  30.1837945  27.8547192  56.1219597  29.5485520
  42.4293804  24.8651171  59.1645622  41.8476105  25.4701209  58.7044048
  42.7224731  24.2539525  58.4886885  17.3728013  30.2287412  36.9863987
  16.4877009  30.5209899  36.7686367  17.2418058  29.4954944  37.5875807
   4.9642208  72.7247429  65.5182743   5.5562997  71.9878721  65.6689262
   4.6836931  72.9895639  66.3942909 106.1585609  43.5818624  60.9643841
 106.8432657  43.8538790  60.3533077 106.5285350  42.8236771  61.4166069
  11.2852705  44.3407917  36.6562843  11.4030695  43.8161564  37.4481916
  11.9224095  43.9854527  36.0365915  20.1204348  54.5737219  72.3674488
  19.2817926  54.9669456  72.6088762  20.7308674  55.3104448  72.3383617
  12.8300846  18.5397816  76.7031050  12.6340270  17.6381612  76.4484024
  12.6761162  19.0518224  75.9091663  34.7939301  38.5709310  31.4452553
  35.3794456  38.9364386  32.1084356  35.2052307  37.7445817  31.1918592
   4.5685017  24.8659468  86.9875336   3.9709565  25.1512384  86.2963200
   4.0315059  24.8573041  87.7798748  21.0508251  19.4738650  87.5672436
  21.7933440  19.2206216  88.1156635  20.2804494  19.2615163  88.0941677
  82.3502673  25.7735276  25.9811234  82.3686231  25.0103116  25.4037166
  83.2688392  25.9306669  26.1996722  94.0815426  22.5681281  69.7308874
  94.7319795  22.7834892  69.0624666  93.7320913  21.7190814  69.4602680
  33.2186866  52.3563147  66.7126656  34.1702843  52.2529411  66.7093992
  32.9031682  51.6888571  66.1034203  28.3168650  13.5586023  25.3057528
  27.4185157  13.4695351  24.9875259  28.3061147  14.3574703  25.8329391
  22.9587817  46.5638494  48.3636522  22.9028392  47.2266293  47.6753044
  23.8896203  46.5245867  48.5832596  52.9099751  44.8892450  63.9890575
  53.7813759  45.1696539  64.2688036  52.9185629  44.9941063  63.0376577
  93.8153375  44.8825264  50.7511282  93.7540282  43.9285994  50.7012320
  93.1183673  45.1977539  50.1757193 107.4318327  46.5132952  34.1619611
 107.0210206  45.7724047  34.6075487 107.1065683  46.4625263  33.2631516
  89.0966619  10.8549678  48.2135725  89.5981551  10.4617953  48.9278221
  89.6616651  11.5516114  47.8793669  90.8538665  48.7163210  50.8141661
  91.0973157  48.0793095  50.1424694  89.9071325  48.8178349  50.7160759
  31.5374589  34.1152596  72.4543715  32.0522404  34.0421677  71.6506958
  31.8054295  33.3613992  72.9798412  30.7408357  43.6482906  69.3354654
  30.0064349  43.1756830  68.9436388  30.5362511  44.5719767  69.1899109
  29.8882127  53.7818336  68.0824804  29.1880274  54.1041613  68.6499977
  29.6298933  54.0577793  67.2030735  24.1888547  68.9849472  53.2209206
  24.6763396  69.8065567  53.1613636  23.2695055  69.2485237  53.1814718
   5.8592194  64.7460032  61.9481468   6.6545010  65.1365089  61.5858412
   6.1533117  63.9238548  62.3403406  34.1616654  72.9728174  43.9363241
  34.8347425  73.1328630  43.2748270  33.6672664  73.7913942  43.9779043
 100.3814037  39.6695852  65.0632238 100.5130417  38.8148546  65.4735184
  99.9610234  40.1985359  65.7412529  28.0813646   8.2728845  71.1143160
  27.4715137   7.5954294  71.4064980  28.0223942   8.9535350  71.7847395
  16.3884294  74.2452526  64.4902897  15.4492486  74.1025257  64.6077681
  16.4463723  75.0614023  63.9935303 107.3819103  65.9598398  15.1559222
 106.7188371  66.6203928  14.9553382 107.6176488  66.1265278  16.0685420
  20.7333779  49.9569941  56.8986511  20.5695248  49.0247011  56.7564583
  21.6219926  49.9927330  57.2526550   4.6227682  38.9277148  71.0321188
   4.4604486  38.2261658  70.4014730   5.1874906  39.5435858  70.5651855
  34.0385032  71.2312794  45.9701109  33.4727168  70.6492901  45.4627562
  34.2083430  71.9698429  45.3853798  18.2470286  52.9042864  62.7330589
  18.4794271  53.1022644  61.8258476  17.2900641  52.8832626  62.7360344
  30.6255388  39.3015504   1.2245726  31.3565516  39.0904522   0.6438033
  30.3563595  40.1814079   0.9607019  27.0869231  55.3358030  57.7067137
  27.0090771  56.0217476  57.0436525  27.2610211  54.5382214  57.2069263
   6.0798138  26.4935374  25.0056839   6.3305509  25.7850814  25.5985212
   5.8097768  26.0491085  24.2020702  16.0265291  55.3575277  77.0014572
  15.4535341  56.0556936  77.3184347  15.5013418  54.5613718  77.0824003
  99.5352764  51.1589861  62.7891064  99.7092332  51.7570066  62.0622349
  99.7510393  50.2928162  62.4435234  10.1172221  22.9302239  49.9627113
   9.8251790  23.0112791  50.8706617  10.1175809  21.9879317  49.7944450
   2.7641961  39.7314024  43.2747030   3.0348429  40.6040764  43.5600567
   2.9767728  39.1611719  44.0135384  16.7215180  28.3100963  44.4107580
  16.9969153  27.3959494  44.3420219  16.9118464  28.5500383  45.3176355
   6.7602897  65.2800941  72.4512720   6.9806820  66.2094259  72.5145340
   6.7156065  64.9821472  73.3598232 104.3633930  49.1883707  66.4409781
 104.7587381  48.4261560  66.8640184 104.0152420  49.7099495  67.1641493
  26.2203979  33.6704874  42.7311802  25.9694529  34.5942044  42.7341509
  25.9259486  33.3450341  41.8805265  10.5201566  41.3471842  69.4258690
  11.2604833  41.8003893  69.0224361  10.5422950  40.4682589  69.0474081
  21.6147208  33.4948564  49.3586493  20.8326578  33.2633996  48.8576126
  21.4315748  33.1845450  50.2454424  20.1384902  25.0408530  40.6205654
  20.9370828  24.8413301  41.1091042  19.7225583  25.7445574  41.1185932
  14.9992383  52.2329187  55.2306080  14.3423080  51.7565775  54.7228909
  15.7538676  51.6446686  55.2576494   1.8597080  10.2835342  85.0758408
   2.0329381   9.4410107  84.6558671   2.5723339  10.3878901  85.7063224
   5.8006752  40.8955336  63.1339169   6.6492128  41.3381529  63.1513691
   6.0123616  39.9676991  63.2365847  68.7006425  90.6760600   6.7065771
  68.7905954  91.2513330   7.4663122  68.3006715  89.8794415   7.0553739
   9.2350495  23.6582327  19.4420946   8.8630092  23.3723211  20.2764034
   9.8096526  22.9399109  19.1773713  54.4439104  74.7139632  48.4965324
  54.8512962  74.9385869  47.6599836  53.5273685  74.9697935  48.3929396
  17.6231742  47.0840073  32.1407056  16.9288313  46.5791225  31.7173696
  18.4223485  46.8225050  31.6833544  25.5085588  59.1275024  58.4423828
  25.8526230  59.1335249  57.5491810  24.6035004  58.8303995  58.3484221
  45.7019472  14.6794724  73.3500957  46.0827971  14.2636418  72.5766182
  45.0860643  15.3219855  72.9978228  21.9329429  25.5656600  27.0496273
  22.2143197  26.4082408  26.6930938  21.5153909  25.7854104  27.8824472
 107.8159508  82.1576214  14.6142328 106.9879220  82.4749279  14.9746668
 107.8883777  81.2589359  14.9357200 108.2400065  74.8049641  72.2756624
 107.5740189  74.2390347  72.6660633 107.7648796  75.5979919  72.0274782
  30.7888508  64.4823408  60.0681829  31.6711211  64.8480701  60.0043917
  30.7666779  63.7931681  59.4042730  91.6866041  27.7414107  37.5715256
  91.4328374  27.8321815  38.4899998  90.9313620  27.3270702  37.1541953
  81.3960017  18.5732710  28.1003642  81.2092675  19.4597816  27.7913952
  81.3602723  18.0322182  27.3115587  25.3391790  45.5030012  64.2521858
  26.2330890  45.5079031  63.9099407  25.0778270  46.4238310  64.2526197
   7.0949173  41.0863352  50.5451536   7.6122892  40.3261614  50.8110332
   7.6956046  41.6119671  50.0168371  29.9127936  29.9127340  61.7085600
  29.6129274  29.8754835  60.8003092  29.6452785  29.0737295  62.0837116
  34.4222021  81.2635326  44.6575165  35.2783322  81.6265392  44.4305754
  34.2885876  80.5541134  44.0289497  39.5951867  30.0161433  47.0106983
  38.7188792  30.3934145  46.9333458  40.0348091  30.2627516  46.1969709
   0.6875823  11.6397643  49.7138834   0.6224312  10.6850195  49.6927023
  -0.1055055  11.9438040  49.2725182  50.0918721  99.0441778  12.0864065
  50.8977722  98.6012485  11.8207510  49.4111322  98.6505201  11.5406473
   1.3237952  67.5443125  57.2227383   0.5767624  67.8252792  56.6943169
   1.8645221  68.3293581  57.3095942  10.3917909  48.9161730  62.0443106
  10.7252610  49.1010904  62.9222822  10.6770527  48.0205441  61.8634701
  32.1631765  69.7976685  44.6703959  32.4589753  70.1269150  43.8216734
  31.2906504  70.1749039  44.7827673  81.9144310  12.4791157  71.3152885
  82.6708282  12.6181471  70.7454062  81.4219345  13.2982755  71.2637472
  17.1899962  52.0480728  28.4644055  17.4065328  51.8821287  29.3819070
  16.2367499  52.1344852  28.4551311   0.6586753  23.3006525  58.1045151
   0.3651866  23.4464312  57.2051573   0.7122316  22.3485732  58.1876326
 108.9883594  12.4699271  58.8578510 108.7804347  11.5538454  58.6740208
 108.4437234  12.9663849  58.2470036  29.8658514  48.2948399  67.6001549
  30.1023459  48.5997725  68.4761238  29.5711637  49.0828848  67.1436691
 103.9046473  14.1455615  52.4459791 104.3413485  14.0003300  53.2852840
 103.6111052  13.2757020  52.1750402  21.4737678  21.5797234  59.2537451
  20.8329010  20.9297562  59.5419598  22.3195219  21.1426377  59.3531990
   5.9631336  29.4814134  76.2264681   5.3235894  29.8766065  76.8189526
   5.4336756  29.0480757  75.5570459  11.7761731  48.1212330  77.5384903
  12.6790369  48.4333038  77.4778080  11.3123453  48.5941553  76.8475151
  32.5380421  42.9971170  73.6553574  32.4455428  43.5198879  72.8588724
  33.0760956  43.5365629  74.2347765  62.2613766 100.8476364  49.9961567
  62.8846445 101.5133356  49.7052717  61.5590146 100.8769638  49.3464947
   0.4435460  56.1318445  61.9063187   1.1902434  56.1255360  62.5051785
   0.8322631  56.2534523  61.0400915  16.9878721  12.0682228  85.3899479
  16.8639767  11.7583132  86.2870693  17.3367262  12.9541123  85.4886055
   8.4903073  34.5090508  36.2744045   8.9946729  33.6956048  36.2867522
   8.0496019  34.5305300  37.1238446  14.6745074  42.9495430  74.2761993
  15.5219328  42.6381493  74.5942211  14.0445435  42.3093033  74.6070719
  97.4751164  51.3442898  48.6093235  96.9281532  52.1053219  48.4146643
  96.8861784  50.7328749  49.0515423  62.6474237  31.3083649  14.9221480
  63.5639477  31.5357924  14.7656512  62.6539421  30.8536005  15.7643938
  33.8807368  38.6334610  70.5063629  33.7026834  39.4870830  70.9011459
  33.4334421  38.6627316  69.6606064 107.6925325  20.3664112  43.3545017
 107.1967309  21.1839008  43.4005928 108.5097741  20.5556250  43.8155317
  95.9991409  24.9741387  62.3472548  95.8761944  25.8759212  62.6437426
  95.3823723  24.8742342  61.6221046  14.8342466  37.5969791  57.9938650
  14.3437195  37.5897241  58.8157892  14.2267799  37.9710913  57.3556995
   3.0024931  39.8484015  21.9793177   2.7862817  39.1052985  22.5425982
   3.6735639  39.5116305  21.3856149   8.0519533  71.5292978  32.1765852
   8.9638281  71.3130713  32.3714232   8.1049383  72.1958685  31.4916706
   3.7762207  46.2710857  27.5899410   2.8946328  46.6393089  27.6486611
   3.6742967  45.4915142  27.0439458   6.6388571  41.2205982  18.1186366
   5.7439363  40.8986568  18.2268250   7.1246052  40.4685974  17.7798510
   9.3607360  69.2466736  66.3824129   8.7857074  69.6484852  67.0336628
   8.8029981  68.6159420  65.9270668   5.9507132  55.6729507  45.6731224
   5.8612454  55.0260019  46.3729000   5.0506395  55.8783245  45.4202938
 109.0279361  60.0702429  72.2402239 108.4736085  59.7533417  72.9533339
 109.5652139  59.3150997  72.0007992  23.1829667  58.1226397  59.5960140
  22.6638508  58.7879324  59.1441965  23.5259533  58.5707474  60.3691864
  59.3265820  31.7806244  63.1869078  58.9058638  32.4669886  62.6690865
  60.2477980  31.8170786  62.9295015 101.8459798  37.8109789  42.7696991
 101.8421425  38.7340665  43.0229378 102.3301173  37.7910948  41.9442034
  24.0438294  29.5922494  51.3944101  24.4234347  30.1474023  50.7132769
  23.8574433  30.1924944  52.1163464 106.0441781  27.4334884  38.9438629
 105.5682172  28.2581663  39.0418530 106.8939377  27.5973248  39.3528843
  94.7077967  23.1534553  46.3736486  93.9543868  23.7138438  46.5595818
  94.8755718  22.6964617  47.1978092 106.0932730  53.8536739  71.1086082
 106.0265316  54.2714500  70.2499819 105.3898094  54.2496586  71.6229725
  43.0578232  39.4181824   8.5901278  43.2254219  38.4879637   8.4390032
  43.8727427  39.8524261   8.3380014  48.5472820   9.2636863  11.1274011
  48.9305303   9.6543018  10.3420599  49.1502974   8.5586015  11.3629015
  81.5307916  29.3989611  30.3549647  81.9508732  29.7701693  31.1308312
  82.0688475  29.7015119  29.6233988  34.2000222  83.9465714  39.9403358
  34.8938107  83.2937813  40.0338745  33.4592009  83.5795498  40.4227352
  92.1386350  60.1721239  79.9069643  92.6918746  60.1576376  80.6879616
  92.0658613  59.2535162  79.6479273  19.8742676  48.2596970  79.0576458
  20.5349135  47.6322699  79.3511009  19.5344520  47.8868246  78.2441807
  23.4782529  43.2091331  49.6311426  23.1966805  44.0266514  50.0417662
  23.7973118  43.4721899  48.7678719   4.7257605  31.0183358  49.2509079
   4.4422889  30.2328658  48.7830257   4.0919811  31.1155963  49.9616051
  89.2791642  12.4650633  32.0751500  88.5319580  12.9362416  32.4438071
  89.2214216  12.6240671  31.1330152  11.7113137  14.2754591  73.6714315
  10.8572638  14.4412708  73.2722616  12.0342910  15.1429522  73.9150953
  98.8002194  62.8821468  72.7512646  98.7172939  62.1325922  73.3407784
  98.8075210  62.4977636  71.8746614  21.9008803  20.3795409  82.6017570
  22.5268030  20.4722834  83.3199883  21.4138436  21.2035704  82.6005936
  28.0967689  57.7173567  46.1058474  28.4942222  57.7385950  46.9763708
  27.5934315  56.9032955  46.0921574   4.0438694  15.9074783  55.9181643
   4.9012062  16.1328900  55.5570650   4.2368478  15.2988601  56.6313124
  27.9492140  18.6905146  63.9211321  28.6856890  18.5856855  63.3187675
  27.4134183  17.9095197  63.7825632  41.3312149  47.9013729  32.2101665
  40.7686377  47.2001934  32.5389290  41.1800385  47.9064703  31.2649941
  59.1026878  28.8646007  51.7433405  58.1877804  28.8528347  52.0244789
  59.0902090  29.3294954  50.9067106   4.5951661  65.8675480  53.9045811
   4.9684888  66.2695026  54.6889877   5.3043538  65.8921480  53.2621813
  48.9419365  29.9631596  44.6778631  49.1980267  30.1853728  43.7827253
  49.6356678  30.3326368  45.2241707  16.8990171  40.0547123  56.2925148
  16.8832183  40.9909582  56.0939503  16.6340327  39.6321034  55.4755592
  28.2467866  33.0406260  49.7808599  27.7168822  33.0277467  50.5778933
  28.5585117  33.9432502  49.7150517  26.1256814  71.9794846  31.3311076
  26.8466306  72.2585249  31.8955541  26.5296674  71.3765526  30.7070065
  13.6946929  44.3461609  59.5246506  12.7386379  44.3593025  59.4797325
  13.8887751  44.1612959  60.4435587  17.5952744  55.4106331  72.8796148
  16.7735732  54.9329901  72.9931641  17.3428893  56.3332748  72.9152727
   0.9892791  35.3870654  58.8470078   0.1934931  35.0716209  58.4186935
   0.6734179  35.9146309  59.5805836  44.2193651  10.7656419  73.2707405
  45.0620747  10.8225989  73.7211037  43.7421465  11.5447783  73.5561180
 104.9852316  57.8900051  47.1163845 104.7195617  56.9797134  46.9859076
 104.4962997  58.1738424  47.8887892  13.9773715  66.6680288  41.5144873
  14.3799305  66.0872173  40.8688593  14.6741974  66.8424845  42.1471262
   8.1708974  42.9187155  56.6936731   7.5625181  43.6541605  56.6213703
   7.6725626  42.1639395  56.3802910  20.0466490  45.6730890  66.3155031
  19.4625950  46.4304209  66.2760496  20.1589084  45.5056906  67.2512436
  94.8018755  26.5562391  29.4555569  95.4424454  26.2719369  30.1075339
  94.0790678  26.9148993  29.9704766  33.2619882  44.6767282  29.6531630
  33.0644274  44.2729998  30.4982710  32.5321198  45.2761745  29.4976306
 107.9160800 100.8849481  80.2526283 107.7469339 100.4922948  81.1090374
 108.7312689 101.3728147  80.3696156  11.4245069  63.6042929  45.0918818
  11.9414258  64.1438150  45.6901693  10.6696749  63.3268881  45.6110239
  94.4461597  47.8742743  59.1731548  95.1374139  47.8572321  59.8350525
  94.0169920  48.7208891  59.2967844   8.8240325  32.1091890  38.9440346
   8.9907426  33.0413532  39.0837193   7.9656118  32.0800757  38.5215449
  21.5390205  58.1455946  76.2546444  21.4427543  57.3349094  76.7544031
  22.4663687  58.1730318  76.0190439   1.9832084  41.2369061  36.1962366
   1.8735090  40.9292173  37.0959735   2.0600106  42.1876860  36.2759352
  18.9059746  51.8097448  60.1049137  18.6892092  52.6672316  59.7389078
  19.8601210  51.8160820  60.1810551  21.6664362  21.4186454  41.0049343
  22.4641204  21.5763378  40.4998922  21.6388512  22.1351552  41.6390324
  31.7715144  68.4606934  49.6965885  31.1594558  68.9267492  50.2661562
  32.3914647  69.1318083  49.4111204   1.8600504  55.2693415  30.4601598
   1.6152821  55.6120586  31.3197303   1.0598807  54.8625374  30.1277876
  49.3628979  76.4493847  14.3760312  49.3647718  75.5390739  14.6719503
  48.6995506  76.4757013  13.6864555   2.9637474  35.4240036  44.0111732
   2.8479806  36.2993574  44.3807507   2.8006697  35.5359411  43.0746317
  11.9117665  11.3442373  61.0909462  11.2468338  11.3480723  60.4024076
  11.7773128  12.1686697  61.5583515  25.4723287  51.2062168  63.8883591
  24.9039078  51.2685728  63.1207371  26.3596249  51.1985636  63.5293579
  10.2768314  38.1586218  12.6972675  10.4585338  37.2203040  12.7499425
  11.0049796  38.5154009  12.1886027  24.3511796  53.9998913  31.5780115
  25.0227761  53.4116220  31.9231582  24.8312068  54.6075010  31.0153246
   6.6182739  88.8857555  37.5201750   5.7349396  88.5394669  37.3935199
   7.0991385  88.1694984  37.9348779 107.9923666  55.6647682  52.1336794
 107.4923597  54.8579788  52.2574377 107.3307792  56.3296652  51.9427776
  28.1194639  35.2804804  53.8747501  28.9627409  34.8284841  53.8462448
  28.1982994  35.9759569  53.2218122  11.3848746  31.2168074  47.8389740
  12.2698689  30.9227180  48.0546808  11.2992764  31.0502672  46.9002676
  97.2150387  44.8171711  41.2202883  96.4043690  44.3091345  41.2510395
  97.1867896  45.3611517  42.0073843 107.0486453  54.5874786  60.5745029
 106.5977619  53.8451004  60.9767532 107.9341903  54.2663383  60.4044771
  22.9981136  28.4912992  56.2815332  22.9115176  27.6531363  55.8274221
  23.1468844  29.1281414  55.5825806  95.8118937   0.7880441  16.9413908
  95.6783745   1.2970058  16.1417921  95.3117869  -0.0157746  16.7999704
  14.7224772  44.7106981  49.9309969  15.3192782  44.7118378  49.1826296
  14.1737187  43.9376831  49.7985554  98.8442374  34.7536612  76.2633610
  99.0159131  34.3208647  75.4270315  98.5765756  35.6408095  76.0234451
  10.0626647  53.0333471  45.1783609   9.6894473  53.7357235  45.7109118
  10.2289116  52.3243046  45.7995272  12.1566319  45.3191710  45.0096607
  12.0923507  44.5039463  44.5121622  11.6482377  45.1557016  45.8040428
 100.4845740  38.2012177  19.7797048 100.8278764  39.0709448  19.9845219
  99.5573486  38.3476901  19.5925403  15.7367468  25.8301759  51.3219357
  15.2285409  25.7288504  50.5171442  15.3969347  25.1527929  51.9066715
  11.9419229  87.2224617  32.7479744  12.0014060  88.1012440  32.3732281
  12.0091665  87.3599625  33.6928582   8.3684784  70.3400469  42.8341484
   8.6390060  71.2572908  42.7928114   7.5067091  70.3254986  42.4177694
  34.4694662  55.4279757  61.2471771  35.0638628  55.7850885  60.5873346
  34.2461371  54.5560169  60.9215355  27.6226091  37.9159188  47.8956461
  27.8991437  37.6814222  48.7815237  26.6807795  38.0690622  47.9713917
  10.9037983  92.5624657  34.8002839   9.9488258  92.5609112  34.8655343
  11.1971366  92.0721149  35.5682302  13.4144413  91.1180019  88.8476849
  13.6684203  90.2045345  88.9792252  14.2409992  91.6005707  88.8600731
  41.6131544  41.1398029  74.8333406  42.4985600  41.4797354  74.9627018
  41.1078691  41.5050888  75.5596256  10.8531415  85.5768204  18.9489031
  11.3793695  84.8325348  18.6567605  10.0296187  85.4911327  18.4685910
  33.8597536  83.7979794  34.4959974  34.7397900  83.9758110  34.1641212
  33.9791179  83.6757660  35.4378295  25.4608560  55.1322460  75.7651901
  24.7665167  54.5171118  75.5291128  25.9026313  54.7211409  76.5081930
   5.4349309  29.2749119  69.4285488   5.1293194  30.1576138  69.2195702
   5.1507330  29.1304708  70.3311014  12.6920819  70.9268236  49.4593573
  12.7879238  70.3522730  48.6997938  13.3804357  71.5831614  49.3515778
  20.7625508  37.0781350  50.2539921  19.9210107  36.6220236  50.2523994
  21.2864065  36.6119719  50.9055281 108.1520880  89.4829655  38.7014914
 108.8372421  88.8696003  38.9671588 107.5113904  89.4487190  39.4118190
  23.5129404  52.1263456  26.8316412  22.6623988  51.7375755  27.0357776
  24.0762377  51.3787079  26.6317201 103.8738806  44.4311953  62.0124435
 104.5654516  44.0398264  61.4787865 104.3243156  44.7421741  62.7977037
 105.3204433  53.5707855  35.4621863 104.7866074  54.0749073  34.8480940
 106.1312486  53.3936501  34.9852681  22.8449607  26.4346766  54.6279764
  23.2480001  26.3989735  53.7605000  22.1630597  25.7633924  54.6030712
  25.7176685  42.2091436  58.2744837  26.3195515  42.5432158  58.9395905
  25.5683184  42.9532480  57.6911879  28.4234595  50.7955790  54.7701740
  28.4634876  50.3588295  55.6209850  28.2499862  50.0902224  54.1467905
   5.9480256  72.1556282  69.0998268   5.8565795  73.0392647  68.7433720
   5.0557268  71.8094492  69.1137457 105.8803488  18.0226791  74.4269276
 106.1167885  17.0957208  74.4597530 105.8081762  18.2841063  75.3449011
  37.4608207  38.6366940  35.9303260  37.6187301  39.5301127  36.2354445
  38.3353353  38.2662892  35.8109307  38.5126328  34.5082283  67.6201057
  38.0088162  35.3213573  67.5851440  39.4266772  34.7923064  67.6126814
  62.2187566 102.5164202   7.1325548  61.6129540 101.7946127   7.3005731
  61.7232322 103.3029964   7.3605497  17.3964250  38.9573836  62.1348906
  17.5426459  39.9033117  62.1264458  17.1457040  38.7457466  61.2356758
  23.9499831  41.5746021  44.2950583  24.1671276  40.6975842  43.9789486
  24.4697833  42.1623325  43.7467766  59.0040588  52.4858141  22.8110385
  58.6279106  51.7984152  23.3607912  59.7970343  52.7558279  23.2741976
  42.9509592  61.5737200  56.9646978  43.0776501  62.4663067  56.6430283
  43.5925341  61.0520506  56.4825344  31.8962288  40.9591150  66.2912226
  32.4269652  41.5888786  66.7790222  31.9738078  40.1447392  66.7882204
  34.0131211  94.7497463  38.0953312  33.3203721  94.6450806  37.4431229
  34.3306184  93.8604832  38.2523155 104.9046482  88.5103607  75.6306362
 104.3347485  87.7458954  75.7145786 104.4177840  89.1112804  75.0666428
  95.0732423  72.9595137  51.9893551  95.2661039  72.6011992  52.8557539
  95.5951155  72.4275780  51.3885832  27.1082926  90.7125759  71.4661980
  26.5666032  91.4441109  71.7622709  27.9661012  91.1025143  71.2978363
   5.6920928  75.4237938  28.0560708   6.6193402  75.2457666  28.2133961
   5.6675422  76.3401127  27.7804112  36.7009306  49.6318293  43.1725550
  37.0318151  50.5291080  43.1320477  36.7094755  49.4152594  44.1048908
  91.0984625  38.4547710  59.7443581  90.8256043  38.5794687  60.6533337
  91.0876788  37.5058675  59.6190786  28.7750077  52.6188946  41.0338497
  28.7600541  51.6894722  41.2622929  28.2663655  53.0435371  41.7246437
  98.9569331  66.6561604  72.2536421  99.1615988  66.4335346  73.1618166
  99.4441612  66.0163260  71.7345572  46.6073656  24.6916986  65.1094723
  46.2543106  25.4102230  65.6341743  47.5561523  24.8135209  65.1441240
  18.3510005  79.6516609  87.6330757  18.3248186  78.7911606  87.2146511
  18.2946241  80.2728558  86.9070148  14.5393407  63.7459803  34.4011021
  15.2161098  63.2275009  34.8362970  14.1269529  63.1362629  33.7892056
  35.3953926  90.8424023   3.5732324  35.3629385  90.6211665   4.5039518
  35.7359847  91.7366913   3.5513647  96.1081814  78.7291983   8.9707239
  95.8955024  78.2194093   8.1889780  96.3047861  79.6053460   8.6391504
  23.9840865  64.2815495  57.7518225  24.5812035  65.0040579  57.9459095
  23.6572862  64.0043974  58.6077547  38.5557032  52.3821449  66.7769527
  39.0190482  51.5701056  66.9822121  39.1064167  52.8135633  66.1236334
   5.4860365  93.8460445  78.9382076   4.8998958  93.7854862  79.6925306
   5.4633331  92.9729366  78.5465431  36.5252256  62.9669619  27.4299073
  36.9500732  62.1940947  27.0578742  37.0997524  63.2340336  28.1474185
  19.5575345  73.7140226  29.6662068  19.7934091  72.9091835  30.1275349
  19.3827915  74.3469095  30.3627372  28.6793804  57.3334074  69.5116234
  28.4076262  56.4260197  69.6495819  29.6218538  57.3292255  69.6788216
  30.5846429  91.5727329  47.7604389  30.2656579  91.4212227  48.6501122
  31.0852027  92.3863792  47.8207779  38.9237094  56.2972879  14.2381942
  39.5294094  55.5579519  14.1858041  38.1037545  55.9612799  13.8762462
  22.2476363  74.0446377  53.1858969  22.3137927  73.6816216  52.3026800
  21.3073158  74.0762043  53.3620644  41.9687366  76.4753008  39.1703582
  41.6138840  76.7658377  40.0105381  41.6247225  75.5890703  39.0586519
  36.8772817  70.2250242  45.7959652  37.3781300  70.2991247  46.6083002
  36.1362815  70.8188581  45.9164381 108.2257777  52.6408863  88.1799889
 108.6245270  53.3123016  88.7335491 108.1879446  53.0389357  87.3102951
   6.7252254  48.8953972  57.0979691   6.5210301  48.9220285  58.0327559
   5.8711064  48.8634253  56.6670513  41.5371990  66.3621187  47.1476364
  41.0948086  66.9817686  46.5675020  41.7973137  65.6410837  46.5743303
 105.6370957  15.9493303  56.1011553 105.1314042  16.6154838  55.6355953
 105.9010745  15.3300190  55.4207134   4.8637113  34.3175912  75.2081156
   5.5416471  33.6568022  75.0667095   4.9166924  34.8836803  74.4380665
  40.0912285  57.4632072  53.8411045  39.4446754  57.7615643  53.2014322
  40.7053709  58.1932402  53.9192724   8.1666720  56.5964365  63.3540630
   8.6564660  57.3104954  63.7620449   8.3458775  55.8362627  63.9074612
   5.4372650  28.2224941  58.6896706   6.0383880  27.5259066  58.4257650
   4.7480023  28.2083893  58.0256319  56.7693208   0.7947649  47.3548222
  56.6357254   0.7550157  46.4078236  56.8308424   1.7300428  47.5489855
  27.8433323  57.3857975  63.2081413  28.6106420  57.8865194  62.9311132
  27.1391773  57.6902819  62.6356983  47.0192289  48.9320517  71.1352682
  46.4777851  48.7122583  70.3771400  47.9130745  48.9523220  70.7934284
  10.5491841  92.9327393  45.6595993  11.1559999  93.5905838  45.9990788
  10.4130077  92.3318386  46.3921309  24.7924638  36.8769789  58.6509132
  24.4119835  36.6089654  59.4873571  25.7311893  36.7206001  58.7537241
   2.8907445  67.4700499  60.4178810   2.1838494  68.1153393  60.4293156
   2.7980909  67.0282316  59.5738173  45.0940888   4.5292867  39.2137170
  44.8727791   3.6734880  38.8464737  46.0443698   4.5034040  39.3256426
  30.1575851  37.3254442  50.9955549  30.3233552  37.2820854  51.9372940
  31.0235524  37.2440052  50.5959272  40.9920263  59.1819382  24.8543954
  41.5154696  59.3631077  25.6350493  40.5949593  60.0239038  24.6315551
  15.6874704  50.5145597  43.3396530  15.4012740  50.8794022  42.5022697
  16.4467478  49.9751186  43.1189060  15.2001405 100.0200462  22.1587944
  14.6229970 100.7816410  22.1029258  14.6531999  99.2843437  21.8834424
  25.9750485  36.2281656  55.4061747  25.4848194  35.4999566  55.0245762
  26.8041825  36.2354350  54.9279261  20.5043101  85.4818535  48.9233923
  20.8943129  85.3532505  48.0587578  19.5618129  85.4053783  48.7747955
   3.4755492  52.9910755  65.1400518   2.6656371  53.3324766  65.5191517
   3.3221415  52.0500851  65.0549841  20.5812788  83.2613945  86.1686039
  21.0446024  83.2549000  87.0061684  20.3735328  82.3418617  86.0026646
  18.0119216  70.2910185  67.8596544  18.4747899  69.8070335  67.1757364
  18.5682094  71.0501862  68.0341244  18.4093261  54.7067499  60.3519058
  17.6755404  55.3181601  60.2888918  19.1682565  55.2612686  60.5329132
 107.1316880  38.3658862  59.2051172 107.7589713  38.4813523  58.4913826
 106.8242277  39.2513084  59.3993521  37.5312614  56.4726448  41.9751787
  37.7909303  57.2011375  42.5391817  37.9642487  56.6500807  41.1401510
  37.2933507  47.0717478  77.6609135  38.1468368  46.6635609  77.5153971
  36.7926455  46.8680954  76.8709469  38.2779932  77.6185799  63.7739992
  38.5931325  77.3248148  64.6287632  37.6797175  76.9278812  63.4889793
  33.8776636  35.1928520  45.2279615  33.7924123  34.3935895  45.7477140
  33.4513450  34.9845600  44.3966341  29.7936153  67.4073410  29.1204405
  30.5297804  67.5022364  29.7248316  30.1717138  67.5664616  28.2555962
  15.9304547  17.3489618  66.6484070  15.3515148  16.5867245  66.6408873
  15.4987741  17.9832518  66.0760784   3.9115938  50.0090019   0.5819471
   3.3289632  49.8763267  -0.1658289   3.5970196  50.8154193   0.9905679
 101.0416455  84.3470860  52.3333645 101.1037941  83.3989906  52.2171879
 100.9863300  84.4691372  53.2811356  43.7243907   0.3588689  48.6853218
  43.4626435   1.2764085  48.6088514  43.7912540   0.2066530  49.6279716
  38.2080793  97.8854370  13.0646253  38.9205742  97.6895428  13.6730731
  38.6483955  98.1719589  12.2644651   5.3932959  65.3845549  82.4943829
   6.3292956  65.2870131  82.3193932   5.1651156  64.6135712  83.0137634
  17.0644057  75.8754301  71.8745613  17.2594500  76.7888355  72.0840406
  16.1843741  75.7324648  72.2228956  19.3207490  38.7790060  56.2856817
  19.4699955  38.5646939  57.2065687  18.5938013  39.4015718  56.2994289
  32.6602316  49.3642092  48.3262014  32.9410410  49.1720486  47.4315214
  33.3584905  49.0109921  48.8774729  26.3490748  93.6058044  64.7420835
  27.0191050  94.0411377  64.2150402  26.7010784  92.7300072  64.9011755
  19.5656633  73.0049086  83.0667686  19.8983681  73.5960340  83.7421322
  19.1863310  72.2736597  83.5542202 100.2925731  70.2656221  21.1115861
  99.4064559  70.2050161  20.7547164 100.6443347  71.0759354  20.7429504
  38.2671356  66.2831974  46.7174196  38.4844780  67.1992111  46.5444803
  37.3183584  66.2819529  46.8441200  11.6018128  76.9384909  69.1364098
  12.4025738  76.4422321  69.3059397  11.9033170  77.8332615  68.9791775
   8.5181701  62.6790285  72.6922894   8.7917793  61.7620087  72.6713085
   8.4322816  62.9244852  71.7710924  37.9975224  77.0976019  26.0674667
  38.2379460  76.2746954  25.6417251  37.1389794  76.9253445  26.4540720
  52.8284597  92.2551823  13.1341505  52.5073957  93.0988026  12.8156435
  52.8628111  91.7018890  12.3538172   6.0336614  35.0884819  45.8185863
   6.1012846  34.4605923  46.5379000   5.2228397  34.8509288  45.3687334
 101.2529267  44.3748283  56.9933271 100.8339174  43.5704899  56.6872263
 101.2689049  44.9442720  56.2241030  33.3553267  41.7955780  47.4724817
  33.3270979  41.6497564  46.5268755  32.7189708  42.4938917  47.6262379
  22.0868158  42.5112820  13.7291932  22.4712777  43.3837557  13.6443079
  21.6752028  42.3473358  12.8807068 104.6411492  52.7867794  40.8540821
 103.9966978  52.3837614  40.2722788 104.9245597  53.5739040  40.3889561
  19.2663133  68.1870651  48.9146757  19.3904340  67.5110006  48.2485199
  18.9609885  68.9514923  48.4261417  49.8038149  85.0763798  54.6653223
  49.9084759  84.6750736  53.8026333  48.8631344  85.2355289  54.7429180
  72.8064291  30.7343856  20.0271757  72.7989135  31.6907016  19.9868543
  72.2218082  30.4602710  19.3205507  17.6976168  69.7611046  37.6077342
  17.6206207  69.1725445  38.3586717  18.5800743  69.6056557  37.2710800
  37.7184153  63.6577749  46.2557983  37.6711845  63.3035612  47.1437931
  38.1886888  64.4858074  46.3529253  55.7684231  84.6634579  80.5141354
  55.9455299  83.7236404  80.5542183  56.0822439  85.0022984  81.3525581
   5.4660481  59.5692968  77.9303646   5.4169506  59.9399805  77.0492220
   6.3912553  59.3542051  78.0485106  17.0126998  42.8420973  72.2068548
  16.4021826  43.4943008  72.5505638  16.9752347  42.9559803  71.2571955
  70.1395057  78.1949833   6.3226755  70.8959602  78.1441977   5.7383497
  70.4548358  78.6875132   7.0804460  96.3955952  63.1025267  65.9133768
  95.9787918  63.0188608  66.7709970  95.8295776  62.6058102  65.3225088
 109.5784220  49.0204000  69.2241144 108.8528385  49.6326256  69.1018867
 109.1967410  48.2911110  69.7126770  18.5407805  45.3682756  47.3471308
  19.0811121  45.6351900  48.0907917  18.8354373  44.4806528  47.1433353
  27.0527458  55.1601553  40.0008392  27.4393630  55.3291178  40.8600330
  27.2447705  55.9482384  39.4926238  27.5714827  41.3504124  44.2082787
  27.5958109  40.7777548  43.4416628  28.3425450  41.1013508  44.7178507
  31.3873935  33.8179421  20.8713412  31.4800739  34.7607660  20.7344961
  32.0743322  33.5986137  21.5008163  12.7792943  36.1538363  39.9560285
  13.0236912  35.5438304  40.6520128  13.0066395  35.6968570  39.1462660
   8.8866007  37.2523117  30.2534938   9.0344810  36.8955684  29.3776512
   8.0354333  36.9008565  30.5146909   6.7475313  41.8702412  53.7512541
   6.8612176  42.2193480  52.8672647   6.9011813  40.9299660  53.6590242
  94.7755481  74.0429211  49.0517998  94.4937493  73.3112812  48.5026884
  95.3726281  73.6489582  49.6878195  27.5598741  91.1375713  64.8413897
  28.3737516  90.9616756  65.3135109  26.9829392  90.4120255  65.0800323
  15.4985547  67.2697592  65.6508923  15.1795161  66.3695812  65.5866194
  16.4505899  67.1835089  65.7000971  67.8667749  82.9228020  28.0178523
  68.6379827  83.3106899  28.4313965  68.1968559  82.5441933  27.2030330
  40.8004951  57.3821926  32.9759479  41.7395115  57.4535418  33.1473923
  40.4605436  56.8737555  33.7122631  29.9395227  30.1135445  45.8098841
  30.1454425  30.6665111  46.5635824  29.0821433  29.7400713  46.0139608
  24.2231178  10.2886021  63.8549137  24.4902563   9.3724865  63.7800837
  25.0462008  10.7755852  63.8950872  36.5524173  21.0198522  53.0343533
  36.9294381  21.7972231  52.6223040  37.3090816  20.5223250  53.3444452
   9.5295858  38.0213094  61.3658524  10.4650581  38.2236910  61.3529730
   9.2474359  38.2490563  62.2517157  35.2828741  45.9877872  53.6668587
  35.3354239  45.8706331  54.6154070  35.0484872  45.1225233  53.3312798
  18.9663744  61.6083574  66.0656023  19.8875034  61.6059685  65.8053160
  18.4944665  61.8669653  65.2739859  17.5390089  46.6398144  28.4484053
  16.8622148  47.0643759  28.9755964  18.0519664  47.3636961  28.0890942
 108.3577659  71.6036558  61.8588495 109.1891656  71.6818953  62.3266983
 107.9972052  72.4903488  61.8612766   0.0075689  24.8990440  43.1197548
   0.4330144  25.7534218  43.1923103   0.3706670  24.5177889  42.3203564
   6.3242060  61.2643719  56.0920525   6.1624533  62.2031212  55.9981537
   5.6458998  60.9637690  56.6968441  15.8253574  68.4574556  50.7556438
  15.7703137  67.5816059  51.1378622  15.8581996  68.3050108  49.8112345
  16.2021196  70.3611088  70.0867367  16.6845846  70.1035547  69.3011665
  16.4737439  71.2644625  70.2492285  31.9400859  44.7568178  66.2098312
  32.4814224  44.0174007  65.9333324  32.4227858  45.1479721  66.9379997
  24.8282647  87.7993965  76.2042809  25.6041312  87.8472710  75.6457376
  24.3863606  88.6382484  76.0727930  34.8682618  18.0632210  77.0727587
  35.8122659  18.0324602  77.2281408  34.5947027  17.1459579  77.0776892
  41.4214134  62.1024370  51.2903309  40.8393431  62.5143576  51.9288826
  42.1320438  61.7351532  51.8160009  32.4468589  46.2641525  68.2091045
  32.8760004  47.0670557  67.9134512  31.6685772  46.5668631  68.6769438
  29.9646711  60.4441595  57.0682716  29.0957546  60.6354523  57.4212933
  30.0225472  59.4887733  57.0789957  20.3668737  56.3263226  53.7174129
  19.9286175  56.4914942  52.8826189  21.2944746  56.4759874  53.5346794
  19.5984972  38.4358764  87.5233364  19.9327493  37.6060414  87.8637505
  18.9894426  38.7424135  88.1951427   4.2268741  59.4430780  34.5027471
   4.5553249  59.9032021  33.7303257   5.0090194  59.0718603  34.9110103
   7.0440447  44.5102644  72.5256681   7.4808800  45.0206709  71.8438339
   6.1408836  44.8272896  72.5205946  26.9029045  34.6835661  85.8415508
  26.9606757  34.4950533  84.9048805  27.4529123  35.4572582  85.9645176
  32.5592446  49.3365669  57.5893879  32.1786380  49.8980761  58.2647228
  32.0830584  49.5654726  56.7912149  20.2390718  54.6369648  39.6056890
  19.8534870  53.9989424  39.0052867  19.5412683  54.8283148  40.2323341
  32.6783633  57.0745897  53.7177706  33.2271481  56.3147116  53.5237122
  31.9166708  56.7109108  54.1692114  40.8843994  44.8663139  69.2394018
  40.3201437  44.4848919  68.5668230  41.2429619  45.6549120  68.8322401
  28.4261894  62.2739983  18.3274627  27.7395439  62.9299259  18.4478867
  29.1574836  62.5929117  18.8563621   5.7197285  46.2185240  40.0196075
   5.2656215  46.9496775  40.4384613   6.6485000  46.3979912  40.1659250
  39.6571302  47.3810053  53.2032681  39.6116996  48.3371067  53.1969833
  38.8470292  47.0999289  52.7778721  12.4477470  30.0478864  73.1168509
  13.1871581  29.4709134  72.9255295  12.7038515  30.8946562  72.7513075
  12.8334439  80.6433010  80.0030899  12.2860253  81.1489868  79.4023848
  12.9808116  79.8125172  79.5510817  31.6584682  76.7317629  50.5665302
  31.3739109  77.4156141  49.9602270  32.5707006  76.5655041  50.3289986
  95.8760358  63.5337400  45.7280397  95.8642245  64.4907188  45.7447767
  96.7804767  63.3016539  45.9386492  41.0927820  35.1897645  35.0191808
  41.8170166  35.2262640  35.6439829  40.8930254  34.2571425  34.9382687
  14.5765686  73.4080505  12.1619081  15.0433457  73.5120821  11.3327348
  14.0344644  72.6293421  12.0355248  36.4270663  38.5312629  17.2573853
  37.1616244  38.5373092  17.8710794  36.8322515  38.4003019  16.4001179
  29.6794152  96.5228939  42.2397518  30.3352404  96.5676498  41.5439606
  28.9188147  96.9806862  41.8817854 102.0156277  55.5351925  31.0765147
 101.6886200  54.7628689  30.6151915 101.2805201  56.1482000  31.0682917
  37.5188231 100.4034138  68.8098335  37.7587819 100.8261204  69.6344328
  38.3539557 100.1370716  68.4253168  34.8963618  41.3776064  82.5370789
  35.0201941  41.0238600  81.6563034  34.9474549  42.3266554  82.4233913
   3.1684726  58.9358711  80.3311443   3.1312612  59.8758268  80.1541138
   2.9480261  58.5257339  79.4948292  22.4311638  44.9495125  40.3239727
  23.0521679  44.2241096  40.3901339  21.6571569  44.5653868  39.9121571
  55.1990281  89.1347053  14.4941099  54.3586253  89.5247271  14.7345979
  55.7297753  89.2010477  15.2879198  26.5351558  33.3527327  59.7788239
  26.6499162  33.9791417  60.4934406  27.0961285  33.6840034  59.0775394
  21.0469699  41.9664526  49.7646141  21.9416523  42.1076775  49.4550467
  21.0405254  41.0603952  50.0732374  35.8038998  51.6970062  66.2383175
  36.1370325  51.0054970  65.6664133  36.5163994  52.3346233  66.2832546
  45.6130409  78.3686066  40.5343246  45.6141615  79.1605854  41.0719109
  46.5057325  78.3088112  40.1940918  27.9713583  42.9490280  55.3864002
  27.4423790  43.7161636  55.6052876  27.3859072  42.3932457  54.8720169
 105.5497129   4.2456022  45.9866476 104.6187271   4.3757272  45.8061886
 105.9911810   4.9119443  45.4600286   5.0206143  44.3286419  44.3374729
   4.6221709  45.0709724  44.7918034   5.9274411  44.3190861  44.6437502
 104.8817588  37.2003722  16.8962300 105.2196295  37.5406766  16.0678172
 103.9444603  37.3927283  16.8697155  29.8057461  58.1255198  77.8699636
  30.4172516  58.0191755  78.5986519  30.3484726  58.0351019  77.0866966
  25.5835271   2.8638574  37.0562935  25.1732779   2.2318035  36.4660096
  25.2003312   3.7056246  36.8096733  21.8819857  47.1749735  29.9779940
  22.5463367  47.2094822  29.2897511  22.3602915  47.3743200  30.7828021
   9.8520344  29.2692685  74.2125273  10.6933475  29.4460273  73.7915993
   9.5845133  28.4183812  73.8651752  41.0841513  32.6276851  71.9001293
  41.9151974  32.1528697  71.8880177  40.7609558  32.5677896  71.0011387
  34.7390151  46.4040422  71.1522579  34.0467191  45.7665825  70.9773207
  34.3744755  47.2396469  70.8605289  11.8842876  68.8565111  82.7208805
  11.9934738  69.6364641  83.2649326  11.3242233  69.1439486  81.9998169
  25.3564620  62.2362471  37.3377728  25.6186652  62.5673676  36.4787960
  26.0076427  62.5939178  37.9413199  24.0892982  48.2400942  84.4376564
  25.0367880  48.1041336  84.4404888  23.7958336  47.8988028  85.2824211
  33.2643270  46.5293646  27.3460507  34.1197085  46.8276882  27.6551747
  33.0032492  45.8571863  27.9755306  37.8564191  74.0613508  58.3849812
  38.7933397  74.1836071  58.5381746  37.6906300  73.1507683  58.6290741
  15.3572595  14.1583300  82.2066593  15.7151175  13.7248182  82.9814148
  14.4239116  13.9466381  82.2234058   1.8313257  46.1557579  63.5241318
   1.6840564  46.4890337  62.6389933   0.9980765  45.7542944  63.7706232
  28.9337754  62.9732037  36.6077161  28.4617710  63.2477665  37.3938823
  29.0194869  62.0242262  36.6989827  40.6677532  28.1679654  66.6741037
  40.4285669  27.5505280  65.9828806  39.9133110  28.7528682  66.7443705
  54.9505663  56.9107676  16.6262710  55.7430029  57.3423481  16.9456673
  54.4030333  56.8087721  17.4047542   4.5927581  40.2189112  67.8186131
   5.1441902  39.7105742  67.2238445   5.1881313  40.5054092  68.5112047
 105.0973306  59.5070791  16.4672160 104.5172275  59.4703960  15.7067120
 105.2858118  58.5905933  16.6691113  26.2498736  38.9575720  77.7600527
  26.5716338  39.6787119  78.3010340  25.8921432  39.3836141  76.9811153
   3.0270359  56.9270802  75.3178120   3.9799678  56.8906546  75.2351952
   2.7927586  57.8009605  75.0052786  38.4085846  10.8041823  47.9242325
  38.2338858  11.1073530  48.8151884  38.7605429  11.5723753  47.4745274
   4.2040437  78.8474178  57.4669123   3.9413989  77.9554224  57.6940441
   3.5341918  79.4031191  57.8653193  35.6874919  43.4990358  71.9349623
  35.9752560  44.3439198  71.5891361  34.7494292  43.4701347  71.7467165
  31.6183853  47.4943495  42.1573162  31.6087198  47.5431585  43.1132221
  31.9597602  48.3437204  41.8775654  31.2769413  49.6408939  55.2574873
  31.2544894  50.4809093  54.7991228  31.1271000  48.9898872  54.5719433
  13.4440958  25.7679582  49.8715401  13.8005328  26.5597129  49.4686604
  12.6161337  26.0492492  50.2608776  12.9190290  35.6672406  58.7873316
  12.3964715  36.3428545  58.3552313  13.5222328  35.3612638  58.1100178
  72.4319792  97.2573662  71.2209034  72.6717377  98.1739044  71.3576508
  71.8078184  97.2787380  70.4955101  13.4342396  42.5093079  49.8204470
  12.6832771  42.2157669  50.3363132  14.1078794  41.8484068  49.9805880
  32.4016070  63.5193491  54.7232008  32.2620535  62.6251364  54.4115353
  31.5766335  63.9685917  54.5392609  32.5576639  65.7050848  72.5109148
  32.8882742  66.3756990  73.1085825  31.6852951  66.0126781  72.2647524
  18.8716340  60.6765699  59.4607925  19.6014297  60.9877014  59.9963570
  18.8104475  59.7421122  59.6589613  21.3844204  98.9300156  60.4835749
  20.7020736  98.8353443  59.8189926  21.8626904  99.7179031  60.2252531
  22.3277426  52.5250435  21.4057159  22.1719003  52.2373915  20.5061579
  22.1370363  51.7541504  21.9401193  25.5037522  77.8181553  77.6565313
  26.3364315  77.3978090  77.4416113  25.1242566  78.0457687  76.8077612
   3.7884679  77.8369713  54.8987007   3.8491854  78.6017179  54.3262386
   4.0410554  78.1635714  55.7622766  41.3922930  77.1630716  57.2760630
  40.9711552  76.5862036  56.6388035  42.0495605  77.6402140  56.7695379
  12.4849784  52.6971197  21.6436458  13.2449400  52.2126627  21.9661236
  12.6320350  53.5963106  21.9370079 106.9294828  72.9680061  45.5701542
 106.5004603  73.7527037  45.2289486 107.6778216  73.3005047  46.0657978
  35.6491995  54.9426794  63.6347723  35.1691151  55.2567577  62.8685427
  36.3176775  55.6102514  63.7887764   1.3263723  68.9201641  27.3710418
   0.8973658  68.0676508  27.2975588   2.1285403  68.8297558  26.8566632
  13.0580831  62.4399996  64.9733925  13.1912673  61.7187643  64.3583250
  13.4917104  62.1527004  65.7769203  26.8611407  49.1035986  52.6604700
  26.6098666  48.2076788  52.4359226  26.0328317  49.5443106  52.8499651
  25.2847481  62.0528793  62.8668547  26.2086225  62.2313690  63.0424404
  24.8532176  62.1694136  63.7132788  21.7463183  92.3151588  74.8470592
  22.0197010  92.9443073  74.1794682  21.8508196  92.7839375  75.6750441
 101.1755879  88.3765602  65.4387045 101.1066807  87.4578094  65.1791382
 102.0755668  88.4703922  65.7508993  33.8686180  46.0172701  50.6198263
  33.3228207  45.7411718  51.3561058  34.2520308  45.2053308  50.2881956
  74.6034120   0.6023897  60.1440287  74.9631642   1.2332452  60.7675934
  75.2909731  -0.0563132  60.0461054  95.0623561  97.2572708  46.3195562
  94.4162108  97.0786572  47.0028019  95.1076509  96.4453697  45.8145952
  36.0875654  63.8965511  70.0066566  35.6920195  63.9339972  70.8774996
  36.9185901  64.3621254  70.1008320  83.3164667   2.7979101  36.8064117
  83.2374166   3.6050809  36.2980223  83.8184761   3.0509866  37.5811195
  30.2674699  50.8198833  58.7542915  29.8343086  51.6356325  59.0055943
  29.6236706  50.3639984  58.2121420  16.4108396  86.0713577  55.6383324
  17.3097754  85.7580853  55.7383728  15.9845650  85.8438587  56.4646292
  22.9924965  91.3980198  32.4296212  22.1883678  91.3588238  31.9118619
  22.7502108  91.0245037  33.2769799  32.9540968  65.9478951  61.0704279
  33.1205583  66.8892860  61.0224771  32.2643447  65.8598328  61.7282391
  41.0205936  62.4528217  64.6982813  41.5454817  62.1968889  65.4567194
  40.6357479  61.6339159  64.3860006  62.6713753  67.7303219  53.7804127
  63.6162806  67.8830338  53.7886810  62.5153971  67.2378016  52.9746056
  31.3470173  63.7966204  47.6823044  30.9915566  62.9650497  47.3686552
  30.5894423  64.3801546  47.7247047  50.0139952  71.0727262  58.0692244
  49.9828815  70.5232668  57.2860527  49.6090078  71.8970871  57.7996922
  13.8124096  79.1171837  88.9366627  14.6069014  79.1135788  89.4705200
  13.6411345  80.0437832  88.7683773  15.2113461  98.2476807  41.3788891
  15.6812358  97.6505661  41.9610357  15.3431201  97.8823757  40.5040073
   5.6713039  44.8434734  49.9287701   6.0245097  43.9611292  50.0425529
   6.3631082  45.3212261  49.4711781  28.6616826  56.6304588  59.4106579
  28.0778337  56.1070585  58.8616514  28.9634466  57.3342609  58.8363504
  47.6402855  76.6743994  51.3946581  48.3037281  76.7279434  52.0825577
  46.8062687  76.7186785  51.8622971  33.3717370  44.3657494  76.1067057
  32.7054429  45.0106430  76.3441849  33.7881017  44.1346598  76.9370508
  16.1923349  59.1417027  46.1442137  16.2282491  60.0712872  46.3696384
  16.2858629  58.6882925  46.9820118  58.6109257  95.2928448  69.8839855
  57.7634668  94.9493313  69.6010590  59.2501450  94.8279190  69.3441057
  69.3369389  66.4651728  59.4961119  69.8600864  67.0679522  60.0245094
  68.5652781  66.9734907  59.2463493  33.3613968  94.4769573  67.6360941
  34.2724943  94.5212841  67.9262114  33.4057450  94.5997715  66.6878414
  22.6501107  81.2288570  70.9301758  23.0964661  80.5256844  71.4019203
  22.8100944  82.0108700  71.4584684  26.2483168  74.2451954  55.3317165
  26.5135169  75.1230907  55.6059456  25.2919030  74.2789555  55.3125429
  62.6998138  83.2087708  53.1786203  63.2172537  82.5232410  53.6011600
  61.8117189  83.0775642  53.5107374  25.3266573  48.9721155  30.1013327
  25.4410648  49.9216080  30.0612831  25.7657027  48.6446476  29.3163252
  34.2476630  79.7942495  64.2381334  33.5194016  80.1075363  64.7745228
  34.8153377  79.3294716  64.8529148  21.7557049  88.8278008  68.4861040
  21.4971590  87.9068089  68.5200596  22.2190237  88.9770508  69.3102932
  35.3662562  95.1414490  54.6716452  34.5445108  94.9108791  54.2382812
  35.2502751  96.0544014  54.9348688   4.0611818  93.7225533  68.5083008
   3.1935418  93.6607933  68.9078236   4.0315041  93.1080341  67.7750158
  23.3580852  54.3681812  57.2181034  23.2857490  53.7641335  56.4790964
  24.0069199  55.0134945  56.9373560  24.6319556  88.7809753  60.5974817
  25.1210809  88.9497185  59.7921753  25.3025413  88.5554504  61.2422132
 104.1785301  73.2845592  66.5312338 103.9307697  72.4123526  66.2244701
 104.5696519  73.1336546  67.3917484  18.4398413  79.7705698  42.9836416
  17.7882767  79.6143198  42.3000622  18.0283189  80.4098988  43.5651350
  32.5786901  71.2885427  62.4414206  33.3997703  70.9571171  62.8050375
  32.8111482  72.1333122  62.0559883  22.6874304  92.1696091  42.4855042
  22.5819397  91.3243294  42.0489359  23.6304760  92.3325920  42.4672031
  47.2122765  58.1497812  62.6330376  47.1646976  57.9293394  63.5632944
  47.6691008  57.4090719  62.2344255  29.6237183  65.7375574  69.9664402
  29.8994637  66.3484430  69.2830563  29.8128223  66.1940241  70.7862616
  66.1081647   6.2062562  44.4557095  66.1375879   6.8689931  45.1457357
  66.2859582   5.3815664  44.9079466  18.7727952  61.3468361  70.9229755
  17.9681277  61.5058994  71.4163733  18.6839890  60.4491234  70.6028891
  24.6574903 100.5915451  50.6593561  25.2789998 100.8587646  51.3365173
  24.0017509 101.2887478  50.6475115  27.2522140  95.8318520  78.5346317
  27.6842308  95.4969406  77.7488661  27.9704261  96.1140156  79.1010094
  72.0440483  91.3580608  59.1095543  72.2166586  90.9798145  58.2473707
  71.1860561  91.0121918  59.3554306  80.9278034   1.9901670  33.2408452
  81.6097187   1.6262067  32.6762605  80.2629732   1.3030637  33.2868600
   6.2565589  28.1360292  66.7442894   5.7591063  28.7488842  66.2028313
   5.9777498  28.3268857  67.6398754   9.6202183  80.5129910  30.1946712
  10.2915597  79.8837614  29.9308562  10.0573492  81.0757828  30.8337426
  31.5047526  45.4547596  35.2254105  32.0449448  46.2447834  35.2424383
  31.0898137  45.4668760  34.3629098  29.0263367  61.0218096  78.7509823
  29.8113346  61.1399841  79.2858171  29.3068910  60.4492521  78.0370522
  13.8084626 100.3806019  46.0169077  13.6490488 101.3181973  46.1253071
  14.6309459 100.3322601  45.5296564  26.7621922  58.0994129  60.6498098
  27.4291587  57.4306059  60.4946136  26.4285660  58.3117676  59.7781277
  38.9177918  88.9193249   1.1550533  38.8925958  87.9624557   1.1573489
  39.8479247  89.1345978   1.2239321  33.6933446  75.3980732  26.0490465
  33.5527802  74.4554996  26.1386561  32.8594518  75.7344580  25.7208729
  20.8831286  87.6743889  87.8157902  20.7061577  87.8997421  86.9024754
  20.9517431  88.5185432  88.2618046  15.8705151  83.6679173  88.4757042
  15.2210808  84.0979195  87.9193211  16.7137682  83.9547729  88.1251812
  35.9753942  70.5738497  74.8446655  35.1605964  70.8711529  74.4397640
  36.3706589  69.9964523  74.1915131  33.2997966  52.8566504  60.8267307
  32.7638245  52.0965815  61.0531378  32.9545403  53.5639954  61.3714218
  32.5353217  25.9402204  70.1102972  32.4548173  25.0029230  69.9336004
  33.4437227  26.1480331  69.8915482  45.4873657  87.4897003  37.7307630
  44.8623753  87.5691700  37.0101404  44.9425793  87.4462986  38.5166097
  53.3307505  77.3060465  53.1035805  54.0797138  77.8232479  53.3998728
  53.3639717  76.5104055  53.6346912  31.6681170  76.8076277  24.8055983
  30.9629202  76.3764286  24.3229055  32.0928502  77.3698902  24.1577601
  39.5204139  71.5115452  61.8212700  38.6382818  71.8509865  61.6700792
  39.4282913  70.5619907  61.7432737  44.4192982  85.2016163  51.6738749
  44.9774218  84.5775032  51.2099600  44.6168041  85.0576591  52.5993490
   8.6093700  47.0971346  77.6368189   8.5670298  46.4442062  76.9381618
   9.4558203  47.5264263  77.5124741  46.4924383  71.0345554  35.2643824
  46.0855389  71.9009686  35.2648330  46.6342640  70.8360720  36.1899757
  29.0520430  52.8098679  62.4046850  29.9004650  53.2333231  62.2739220
  28.4838200  53.5076761  62.7309036  18.9741111  69.0693045  29.8048830
  19.2585230  68.1561089  29.8425055  18.5054135  69.2082882  30.6278300
  21.8896508  51.9646358  59.7440434  22.5129128  52.6712418  59.5752621
  22.2537494  51.2089062  59.2830181  41.5006542  59.6987391  54.0117025
  42.2139406  59.9690247  53.4334326  41.2771797  60.4897404  54.5022249
  22.8454304  50.5887747  87.4849033  22.5620651  49.9370480  86.8436623
  23.7180161  50.2991247  87.7512264  37.0313430  64.8513699  41.2429094
  37.8745508  65.2153397  41.5126514  36.8787861  65.2198076  40.3727293
   2.9851982  76.4057064  49.0756321   2.4068338  76.8540716  49.6926403
   2.8075194  75.4753160  49.2135954  30.6645489  75.9864855  62.0943689
  30.7710862  76.2264109  61.1738682  31.5038824  76.2072515  62.4981165
  24.4145083  71.3155222  39.9195409  24.9278212  71.4774799  40.7110643
  24.0351057  70.4470158  40.0536537  38.7600517  61.5362835  58.5341549
  39.6478724  61.4179325  58.8717937  38.6295056  60.7976532  57.9395008
  22.6491165  47.7524090  60.3311348  21.8152952  48.2101822  60.2242804
  22.4036169  46.8395615  60.4817057  15.8013618  76.3442612  28.5135484
  15.9475684  76.4991045  29.4467568  16.6685450  76.1344814  28.1668234
  32.7793264  38.7091875  67.8004789  32.0493412  38.3223653  67.3170328
  33.4660196  38.0430007  67.7708626  61.7674732  78.1486416  54.4704866
  61.1612749  77.4091053  54.5134211  62.2075224  78.1472874  55.3205395
  32.6185322  54.9327850  49.7604227  32.5934005  53.9826250  49.6473265
  32.8827190  55.0586033  50.6718016  27.9524183  53.1214619  56.2841272
  28.5627937  52.6886845  55.6871557  28.4050918  53.1262827  57.1275091
  38.7157273  58.1166601  61.5198469  37.8774333  58.5713816  61.4378548
  38.6002278  57.5350475  62.2712612  26.0234928  94.0500450  36.1658335
  25.3618383  94.7015381  36.3982201  25.7143164  93.6789227  35.3394532
  21.4461660  58.8606453  67.0486450  21.7377496  57.9908180  67.3218060
  22.0286870  59.4642687  67.5096655  54.2316055  89.9955082  37.5296259
  53.4688902  89.5368099  37.8818893  54.9042463  89.3187046  37.4539161
  11.7380977  80.0188351  28.3899498  11.1708128  80.1591110  27.6318312
  12.6252103  80.1371384  28.0504394  12.0863724  51.6432190  38.8011980
  12.7816033  52.2911167  38.9157081  11.4344466  52.0850754  38.2571507
   5.9453875  60.9236145  33.0184269   6.5357637  61.4178562  33.5871220
   5.1228493  61.4124823  33.0443239  15.0992501  64.6779060  39.4422269
  15.1753283  63.7246752  39.4846392  15.8069324  64.9997425  40.0006533
  43.2563257  94.6200657  71.8196344  43.5537291  95.0471020  71.0162497
  43.3579302  93.6843872  71.6452646  32.4295068  46.3557673  48.3138514
  32.8328133  46.3431311  47.4458551  33.1670547  46.4286280  48.9196110
  44.1875696  95.0850391  49.7623253  43.6998892  95.5992508  50.4057407
  43.5602617  94.4317150  49.4526672  13.4375358  47.0007610  53.6512375
  12.7272749  47.3474407  53.1112623  14.2258668  47.1352863  53.1252432
  36.6900086  72.4528074  76.4842892  36.7839766  71.7376947  75.8549881
  37.4039698  72.3187113  77.1075916  58.8891840  76.4583731  68.5177708
  58.9022493  75.6961250  67.9389429  58.2414246  76.2393856  69.1876078
   7.3052669  67.2478151  83.8841820   6.4122653  67.2960997  83.5429382
   7.6341766  68.1445885  83.8221836  47.2085571  96.4221668  33.4778476
  46.2584448  96.3157368  33.4311008  47.3654556  96.7945099  34.3455911
  13.1782234  81.4002419  63.8450193  12.7656007  82.0728970  63.3032417
  14.0772498  81.3494110  63.5203648  38.1491828  48.8308573  57.9861069
  37.2532558  49.0778112  57.7568436  38.6995149  49.4198465  57.4699116
  25.7982635  69.3521929  58.0510473  25.4590535  69.3587112  58.9461040
  25.0322700  69.5240068  57.5033569  32.8042412  66.0029459  35.8344460
  32.3068523  65.3435326  36.3181877  32.5924563  65.8365440  34.9159217
  69.0437411   1.3746465  52.5777531  68.4980129   0.8734811  51.9717360
  68.4520005   2.0303739  52.9466629  33.9054370  89.6436024  39.3293810
  33.0529904  89.4122887  38.9605165  34.4811773  88.9235592  39.0719056
   7.6743281  97.0031261  70.0128460   8.4245479  96.7901134  70.5678511
   7.0858204  96.2542152  70.1078463  13.8842642  90.4137135  80.6055164
  14.6738434  90.9523869  80.6567669  13.6032426  90.3135014  81.5150356
 102.6660759  61.9474411   3.8964975 102.1479882  61.2628174   3.4732854
 102.0659001  62.3475027   4.5257586  75.4323146  49.0821067   0.4041441
  75.2683561  49.7833911  -0.2263682  75.1364920  49.4389812   1.2416132
   2.6016366  92.6283550  49.4224501   2.9777929  93.0272675  48.6378431
   3.3527941  92.4698257  49.9941683  42.4869680  48.1746387  78.3188772
  43.3571768  48.0061007  78.6802053  41.8833637  47.8851509  79.0030479
  60.6277132  28.6581278  53.7573719  60.8697796  29.5677161  53.9313936
  60.0420475  28.7064981  53.0017996  19.6647882  71.7090273  54.8130560
  20.3884339  71.1194706  54.6009350  18.8879025  71.1500788  54.7970295
  33.8594294  30.3479958  27.0688486  34.4241452  29.6630859  26.7107606
  34.4485593  31.0855675  27.2274232  40.4712582  62.0174265  55.4303312
  41.3856506  61.9239807  55.6975079  40.1165485  62.6835155  56.0191774
  63.8067055  80.1146889  58.1129932  63.6554909  79.9469852  59.0431786
  62.9368114  80.2980328  57.7581692  29.6191812  84.3215275  58.9912844
  30.1240993  83.5106564  58.9299154  30.2549458  84.9787140  59.2743778
  19.7655249  57.8120327  58.4840488  20.5190730  57.3167658  58.1629419
  19.1174555  57.7434587  57.7829552   8.8795829  80.6591988  34.5506334
   9.1246015  80.3305626  35.4156184   8.7622213  79.8715162  34.0195751
  35.6587434  79.0462923  40.6070757  36.1983919  78.4909773  41.1697817
  34.8572516  79.1901064  41.1102247  21.4196825  52.5370789  53.1632566
  20.6522250  52.8972435  52.7188206  22.1252012  52.6108456  52.5205803
  67.5693321  74.5187187  71.4653397  68.2149267  75.1716709  71.1949873
  67.4649286  73.9538193  70.6996918   4.1820276  89.1329002  33.5095310
   4.9889719  89.4538593  33.1069660   3.8150936  88.5300541  32.8628707
   7.0259041  66.4169788  55.3700256   7.8851318  66.1054516  55.0855780
   6.9641387  66.1461592  56.2860346  11.6237330  71.5551424  32.1282005
  11.3900805  72.4239016  32.4551535  12.2854328  71.7218399  31.4569354
  64.3107510  84.8287868  55.9712458  65.1737404  84.4219685  56.0486221
  63.6960316  84.1320801  56.2013674  92.4804673  13.6648027  11.0548360
  92.3388729  13.8132898  11.9897802  92.1638355  12.7743284  10.9030874
  40.7925034  66.4112711  49.8001003  40.7957411  66.4337635  48.8431692
  41.5459967  65.8673286  50.0294447  43.8595915  71.9275665  58.5817862
  44.2009068  71.0569334  58.3774996  43.0874729  71.7613125  59.1225529
  60.9301949  64.8872662  46.3015366  60.0282145  65.1972342  46.2203836
  61.3805246  65.2595663  45.5433607  12.2303200  65.3549719  47.5272894
  11.3252199  65.6606102  47.4672127  12.1714115  64.5226002  47.9962444
  64.4769049 100.6792259  42.2848988  64.2551994 101.6000175  42.4235106
  64.7314644 100.3611469  43.1510687  36.4403319  56.5130806  59.2443609
  36.0882807  57.3819923  59.4374371  35.8953214  56.1876059  58.5279369
  13.6243305   2.3230947  25.6574965  13.8027535   2.6004613  24.7589064
  14.2740021   1.6419710  25.8313823  40.9219313  88.2364941  20.1721263
  41.1377239  87.8356075  21.0141182  39.9990845  88.4779739  20.2513266
   9.5495743  82.5714970  56.8099546  10.3122759  82.8841591  57.2965336
   9.0339565  82.0896530  57.4566364  34.0134382  72.2812319  76.8200588
  34.8894525  71.9753122  76.5850210  33.5237002  72.2599173  75.9979057
   9.0205109  67.5394249  58.6424541   9.3138492  68.1829357  57.9974174
   8.2282615  67.1615648  58.2606268  37.9115272  84.1796494  70.8892918
  37.0658779  83.7344646  70.9433413  38.3880544  83.7066269  70.2070904
  31.0644317  76.2269831  46.1842823  30.9447217  76.9664097  46.7802334
  30.3779769  75.6071138  46.4308023  34.4170737  49.5215225  32.3133802
  34.3558788  50.2804422  31.7332721  34.9384308  49.8284626  33.0551410
  20.8018804  79.2184973  69.9925375  21.2205911  80.0162888  70.3157091
  21.4231300  78.8623762  69.3573523  35.6909561  56.5883303  56.5728092
  35.6530571  56.3156891  55.6560421  35.9690452  57.5036287  56.5391827
  36.3368487  74.0205622  61.3021755  37.2153234  74.3984461  61.2607241
  36.3226962  73.3697844  60.6003761  38.9695692  89.8637867  11.3713849
  38.2450962  89.2703629  11.1733484  39.3541598  89.5125866  12.1744931
  27.1648216  56.7614460  66.9387245  27.1469283  56.8902349  67.8870535
  27.0514488  57.6397848  66.5755463  25.4114175  71.2667990  52.9294634
  25.6467390  72.1404076  52.6169443  25.4781914  70.7091093  52.1543789
  81.1839126   5.9332002  53.1682539  81.2402128   5.1289762  52.6522160
  80.5883096   5.7163347  53.8855124  75.3307675  10.7655538  85.5857754
  75.6206511  11.5675081  85.1509476  74.6561264  10.4099096  85.0073242
  13.2145441  89.9945259  83.1270313  13.8043237  89.9690342  83.8805199
  12.7022338  90.7935619  83.2508087  30.1052499  59.4502306  52.8408718
  29.6409082  58.6713648  52.5343037  29.4654155  59.9131393  53.3817577
  42.4562788  82.7866840  50.0652885  41.9091988  82.1796989  50.5637836
  43.3490133  82.4669743  50.1958418  39.6822596  89.6264362  52.2758865
  40.5579233  89.4008923  51.9619131  39.8182607  89.9143410  53.1785727
  49.1743994  89.4599342  52.3475647  48.5965347  89.7826385  53.0390644
  49.8818779  90.1034069  52.3069525  48.0417204  64.6593094  65.5708408
  48.8782644  64.2795897  65.8396053  47.4419689  64.4482231  66.2863684
   9.5694929  36.9475865  58.5144567   9.7027355  37.0585537  59.4558239
   8.6251825  37.0462990  58.3929396  53.7827921  95.3484058  66.3162422
  53.4413481  95.2288342  67.2024441  53.3569574  96.1456108  66.0010338
  33.2394348   5.4182828  46.4011574  32.3972996   5.5915845  45.9804392
  33.0920498   4.6233858  46.9136572  61.5017223  98.3056545  62.5824118
  61.8672609  98.5906792  63.4198904  61.7342186  97.3790455  62.5225401
  25.2352762  65.0233984  64.1465282  25.8765364  64.3269539  64.0051794
  25.7463884  65.8316469  64.1049051  39.7520733  75.6859636  70.3580141
  40.6321192  75.3584099  70.1723814  39.1681814  75.0592279  69.9308062
  17.4622726  61.7127371  54.1313219  17.1626735  61.7254210  55.0403404
  17.2813666  60.8217478  53.8319206  48.2314444  84.9531460  59.7572184
  47.3040485  85.1901054  59.7525835  48.3553648  84.4867802  60.5838823
  63.0384254  94.0770531  78.0772495  63.3481646  94.8049068  78.6162567
  63.6722231  93.3768940  78.2331562  24.2536712  96.6272640  59.8074007
  24.2781949  95.6800270  59.6718693  23.3414936  96.8686962  59.6465492
  12.1610594  38.9225388  61.4745092  12.8354168  39.4095778  61.0009480
  12.5235868  38.0416942  61.5689564  22.2117233 101.9505119  52.7271366
  22.9149318 102.5449562  52.4656820  21.4645100 102.2121334  52.1891212
   1.5749314  83.1412888  87.0353127   1.7214686  83.4991646  87.9109192
   2.4535665  83.0271149  86.6730976  40.9233046  82.0644283  42.5256920
  41.5828419  82.1133232  43.2176828  41.4298534  82.0201969  41.7147160
  74.2567492  75.8365726  28.5468864  73.7049818  75.6440067  29.3049765
  74.1211033  76.7698002  28.3827949  36.5489197  79.6906328  36.1064792
  36.8916106  79.0469885  35.4863858  37.0205379  79.5137548  36.9204330
  34.1675234  84.1096687  79.4466162  33.8203216  83.6274910  80.1970768
  34.2888665  85.0021267  79.7706795  37.9463148  39.4824266  31.0678458
  37.7539301  40.0269556  31.8312001  38.1167459  38.6131549  31.4305496
  47.4476624  61.8431807  56.7654562  46.8433762  62.4429798  56.3280678
  48.2809448  61.9695616  56.3116884  28.2545424  78.4461308  59.7613764
  28.1546926  77.4945498  59.7887659  27.7900815  78.7581491  60.5380058
   8.5680979  54.0429068  64.2573881   8.3711207  53.5422277  63.4657097
   9.5132202  53.9454317  64.3734646  22.8992256  45.2409259   3.0244978
  22.2066625  45.8124153   3.3561475  22.8919491  44.4879810   3.6154707
  -0.3386668  49.5643139  83.3156776   0.2472915  49.7556782  84.0479755
   0.1711592  49.7864819  82.5366116  10.1116872  54.8610640  67.3839617
  10.3893054  55.5467224  67.9914427  10.2323937  55.2466345  66.5162086
  38.0228400  42.1780491  53.9978838  38.3972669  41.6594410  54.7099829
  37.3197842  42.6794910  54.4107962  40.7249594  80.3188515  54.6688080
  39.9446774  80.7063103  54.2722368  41.0531998  79.7104883  54.0067005
  70.3486919  67.1941328  43.7773180  70.8412743  68.0004740  43.6243010
  70.6004238  66.6189241  43.0548239  17.2994256  36.7669821  38.1848311
  16.5000892  36.3800073  37.8277016  17.1278429  37.7086592  38.1904531
  36.2171984  73.2080603  34.7257161  35.3532004  72.8928518  34.4604206
  36.8321872  72.6344109  34.2686129  55.3156328  92.3806000  38.3442664
  54.7942114  92.7576447  37.6356125  55.1475763  91.4397812  38.2908702
  53.2868338  67.3466587  58.2919598  53.4450102  66.6595507  58.9393330
  54.1051531  67.8424549  58.2640982  54.1868258  79.6808481  58.0099106
  54.3385601  80.5759144  57.7064896  53.2893562  79.6896458  58.3426380
  52.6571131  80.4951572  48.1943941  53.4274530  80.8408928  48.6452532
  51.9270849  81.0097408  48.5386276  61.9107199  71.3938189  64.4128036
  62.4899101  71.9690609  64.9126720  61.0429096  71.7863560  64.5079517
 108.3651233  68.0418825  55.9288406 107.8946855  67.2270012  55.7530928
 107.6880054  68.6503124  56.2247372  31.3485646  97.1072674  55.0119591
  30.7891083  97.2263908  54.2444611  32.1994448  97.4545574  54.7443342
  43.2169342  64.2252111  55.7006788  44.1340160  63.9733171  55.5923080
  43.0284882  64.7761393  54.9409437  32.4944067  81.4525700  73.2366228
  32.1798444  80.6108952  72.9066706  32.4880695  82.0273685  72.4712467
  30.3768396  67.1997261  45.6123638  30.0811505  67.4657440  46.4830160
  30.9245443  67.9255438  45.3132868  44.7064829  62.3792839  60.7346249
  44.9179363  61.4470911  60.7849550  45.4266930  62.7615166  60.2331972
  35.0053763  63.9526081  72.3903131  35.0332522  64.0669823  73.3402443
  34.1898727  64.3758821  72.1219349  47.4006176  75.4190445  54.7261333
  47.2458696  75.8274651  55.5778837  46.6112518  74.9035072  54.5607615
  34.7106743  79.0412283  68.8273573  34.9020195  79.9144077  69.1696692
  34.0059471  78.7139559  69.3863630  43.1653690  85.8158398  45.1496506
  43.8671637  86.0977364  44.5629215  43.3314466  86.2876797  45.9657478
  41.5351725  86.7248058  47.6759052  41.7899179  85.8289909  47.8969336
  40.5956650  86.7580128  47.8560591  24.9390292 103.0254078  38.7144613
  25.5927324 103.6933899  38.9211226  25.4490471 102.2292995  38.5650611
  44.3908072  72.7893639  45.4276609  43.7021017  72.2293854  45.0694180
  45.2037334  72.4187899  45.0840616  23.3333826  65.9324312  54.7729445
  23.7176061  66.7128801  54.3735695  24.0860534  65.4050016  55.0404215
  17.5244892 100.2895546  87.3999882  16.5780044 100.1474190  87.4139595
  17.7379894 100.3896809  86.4722919  62.3138142  92.8300762  66.4936686
  62.0315218  92.7521038  67.4049664  62.5063133  93.7609673  66.3813686
  23.2013535  77.1673870  59.1741276  22.9825020  77.6743603  58.3922625
  23.7230039  76.4348173  58.8463259  96.4069484   5.3391946  75.6616926
  97.1778320   5.5392755  75.1307154  96.7596554   4.9262537  76.4499283
  41.6852665  71.4186621  51.4130020  41.2167645  70.6061172  51.2219191
  42.5843763  71.2484407  51.1321831  46.7139721  99.8708344  45.3262520
  46.1598539 100.5328655  45.7396603  47.5541830  99.9452400  45.7787371
  78.7591003   8.3723081  53.7641907  78.0170988   8.9572061  53.9177036
  78.8582443   7.8905881  54.5853758   0.6689953  82.8917503  69.1937256
   0.6108234  82.3958969  68.3770370   0.8624066  83.7873936  68.9168835
  43.8614464  58.0726671  57.3758602  43.4247303  57.6059294  56.6633511
  44.4837236  58.6523008  56.9365168  69.5192242  96.0627747  32.3508739
  69.8974228  95.6838703  33.1443644  69.5431519  97.0077038  32.5017667
  57.4304056  93.4705353  75.8632517  57.4043131  92.9608727  76.6730642
  57.9366541  92.9303646  75.2564955  69.1087579  16.5541090  39.8045611
  68.4345554  17.0934785  40.2177906  68.6248468  15.9761442  39.2146325
  55.2877426  70.1976061  50.0613117  54.3734694  70.4085302  49.8719835
  55.5294895  70.7943392  50.7696247 108.5395788  14.7886098  39.1538906
 109.1987728  15.1769269  39.7291327 109.0159582  14.5799364  38.3503032
  54.1052114   7.1190847  16.0237610  53.5205828   6.7788328  16.7010140
  53.6392854   7.8727830  15.6616950  12.8916907  64.1749573  29.2132950
  12.0680761  63.7852621  29.5066047  12.6368034  65.0153399  28.8324738
  69.0530777  88.4434509  85.8843899  69.8121166  87.8839493  86.0488701
  69.3327856  89.0247917  85.1772499  75.8621264  97.5095272  73.9141035
  75.0838137  97.8835964  74.3270683  76.5823936  98.0639267  74.2142439
  94.1882585   0.2309621  62.4501228  94.4337248  -0.6512915  62.7286959
  93.7999796   0.6288255  63.2293320  37.6834249  72.6458454  41.0836601
  37.5379753  73.3577013  41.7068291  36.9382906  72.0589352  41.2122869
  73.5255097  32.9701723  67.2016907  72.9099129  32.4751485  67.7422667
  74.1550730  33.3316625  67.8255510 102.3988033  71.8344784  82.2852325
 103.0111195  72.3700571  82.7896690 102.8125699  71.7416096  81.4270878
  58.5367680  84.6579742  64.1480112  59.4639301  84.8536682  64.2833042
  58.4093094  83.8042736  64.5617533  96.0998631  87.8753662  50.6960297
  96.6697788  88.5906887  50.9784222  95.8572769  87.4280739  51.5067816
  62.5508213  80.5757523  71.3691616  63.2663393  81.1834335  71.1821318
  62.7956533  79.7701025  70.9139442  84.6738504   8.4643091  66.6287947
  85.3607391   8.7842287  67.2136545  84.0588259   8.0122484  67.2064018
 103.0744861   8.8175596  76.1858225 103.0513309   9.2776311  77.0248890
 102.4381040   8.1092370  76.2834072  19.0563357  96.0132217  65.5901146
  18.7973189  96.3029861  64.7153711  19.1670942  95.0662041  65.5056953
  15.8058500  60.0575590  59.8849297  15.6753969  59.6036386  59.0523577
  16.7244494  60.3262234  59.8698854   6.5827584  94.6069908  58.5625029
   5.8848512  94.6008396  59.2175770   6.6731560  95.5278778  58.3174896
  44.1301918  76.8262720  60.1396608  43.3539534  76.6453695  60.6697178
  44.2835999  77.7644014  60.2519751  41.7580967   1.0998643  88.9495754
  41.8713002   0.8111490  88.0440044  42.1846383   0.4210103  89.4724941
  74.3641424  66.3449669  81.3867760  74.5195818  65.4153204  81.2199593
  74.1402006  66.3873196  82.3164463  29.3581724  64.0550137  40.4820681
  30.1887965  63.9183903  40.0264072  29.4995141  64.8431683  41.0065365
  78.8254808   0.1133550  28.2098198  78.4091686  -0.2893435  27.4477506
  79.6193765   0.5197252  27.8622222  46.8484354  79.0786839  46.4802456
  46.5756464  78.4496212  47.1481514  47.7806473  79.2168903  46.6479063
  70.1356030  74.0049839  36.8591404  69.4244289  74.2574167  37.4479914
  70.9210396  74.3797112  37.2577643  59.0101480  72.5637770  64.3720055
  58.5941648  73.2649994  63.8705301  58.3100557  71.9283342  64.5213652
 101.6925142  27.2398464   3.3806188 100.9317181  27.7733318   3.1508024
 101.6346762  26.4787809   2.8029783  37.1255827  78.0965519  21.0243011
  37.8261542  77.5105238  20.7379293  36.3188696  77.6405764  20.7844400
   4.2021775  73.0992317  23.9946294   4.4059321  73.9365292  24.4113445
   5.0223184  72.6071119  24.0322661  11.8052208  84.3439198  65.3175116
  11.4009857  83.8732243  66.0463905  11.5270329  85.2522087  65.4352474
  42.6912689  96.6178131  67.9672194  43.0922031  95.8021927  67.6668072
  42.1628714  96.9123745  67.2254276  54.5013571  78.6219168  78.2064056
  53.9336586  77.8766823  78.0099821  55.3213072  78.2268286  78.5027504
   4.6237239  92.2202873  71.4573193   3.7169620  92.5139141  71.5456104
   4.6309632  91.7042637  70.6511545  21.1835156   8.4762872  72.2003126
  20.6887970   7.8642000  71.6554928  21.6426334   9.0366472  71.5746641
 107.0424364  23.4235088  13.1806619 106.6631601  23.2941953  12.3113687
 107.3417757  24.3326990  13.1785352   0.6237229  32.7262775   6.7488153
  -0.1075760  33.3077423   6.5406473   0.9806999  32.4758998   5.8966978
  46.2937546  91.5031433  17.0622921  46.9511700  91.8085957  16.4371979
  46.4909458  91.9791126  17.8690171  44.6503353  66.2630987  56.9075489
  44.8723173  66.1371708  57.8301001  43.9996815  65.5856991  56.7231369
  73.8862991  60.4996300  54.0880632  72.9987764  60.1473522  54.1546965
  74.4295025  59.7412872  53.8734102  61.0786533  99.3360424  59.9313641
  61.4852333 100.1441097  60.2443218  61.0295296  98.7767887  60.7066441
  52.0481110  96.9788742  76.1856461  52.3341894  96.1070824  75.9129381
  52.6075554  97.5794792  75.6931782  38.5716844  63.0282927  48.9251614
  39.4971299  62.8115892  48.8119364  38.2542229  62.3944426  49.5683479
  84.5748711  89.6690559  57.7464676  85.0309658  88.8360596  57.8661823
  83.8542175  89.6401405  58.3757973  30.2143264  98.6146832  56.9064522
  29.5586252  98.8840771  56.2632418  30.8550286  98.1149864  56.4004564
  52.2497129  67.2016048  50.9391594  53.1525373  67.1430540  51.2517548
  52.1572781  66.4651251  50.3347683  32.1803737  75.0023699  81.7270851
  32.9267907  74.8921347  82.3161030  31.4149022  74.9623680  82.3003960
  46.9427013  87.6653767  69.2086554  47.7471113  87.1771622  69.0331507
  46.5398598  87.2062874  69.9456596  23.4906340  61.1898136  39.4254732
  23.5563016  60.2386475  39.3405890  24.2498875  61.5257740  38.9491367
  62.6794147  67.8730154  72.9643774  62.6214170  67.0415640  72.4936771
  63.4088421  67.7535534  73.5725737  54.3563663   9.1583932   5.4831421
  54.3385922   8.2015336   5.4648691  55.2822827   9.3788541   5.5846751
  26.9448304  78.4740257  45.1484823  27.7218461  78.5381365  44.5931721
  27.0948577  79.1131783  45.8450508  31.9258618  93.8262367  47.3350859
  32.5493765  94.4166279  47.7580547  32.1847415  93.8247204  46.4135551
  84.8147701   2.0141710  39.0035725  85.6429790   2.4940027  39.0115595
  84.8404812   1.4787973  39.7966385   3.6403653  50.5552483  33.5139179
   3.3652806  50.6708431  32.6044130   4.2045665  49.7821856  33.4970880
  61.5987492  89.2334652  54.1794968  61.0499620  88.4519863  54.2455435
  62.4939203  88.8957500  54.1503859  24.2772317  78.1658363  45.2240562
  25.2227879  78.1099987  45.3620434  23.8997602  78.0253363  46.0923910
  74.2615031  17.6618875  52.7093506  74.9272965  17.5260366  53.3835125
  73.6302136  16.9563688  52.8505611  42.4066734  92.0693874  59.4526482
  41.8901825  91.3545132  59.0805960  42.4456358  91.8746185  60.3890085
  12.2693992  77.1973991  44.0072775  13.0735326  77.5392628  43.6164665
  11.9971478  77.8748322  44.6263075  61.1652851  97.5319862  41.5822268
  60.9374857  98.3897972  41.2237692  61.0563755  97.6310349  42.5280428
  52.7404118  89.2135334   5.7156664  53.6276150  88.9738274   5.4480106
  52.2405338  89.2310905   4.8995474  43.4669542  83.9172459  22.9228330
  42.8020811  84.2341137  22.3114657  43.6912727  83.0440235  22.6012921
  80.0548147   6.7881406  25.3980589  79.3717598   7.3929227  25.1083994
  80.3885912   6.3989175  24.5897722  59.8349571  74.6467352  71.1407757
  60.5542231  75.2216434  70.8793116  59.1097832  75.2418041  71.3311625
  76.7520403   9.6860136  39.8975492  77.4327778  10.3580106  39.9330521
  76.4120268   9.6420778  40.7912445  14.9906170  78.6089039  27.3994589
  14.9382544  79.0713167  28.2359171  15.3226805  77.7402925  27.6263523
  50.4093409  95.3146172  66.5940285  50.5319691  95.2023792  67.5366831
  49.8371172  94.5908833  66.3390923  33.2333183  77.9003716   9.2022252
  33.1947684  78.5731554   9.8820084  32.5227952  77.2975445   9.4212949
  88.8716720  25.9934247  66.2582350  88.4017681  26.2446989  67.0533991
  88.2182382  25.5373777  65.7278776  40.6297922  52.6530933  24.3990350
  39.8874784  52.5902605  25.0000787  40.2656460  53.0539608  23.6097693
  59.0504408  78.1207657  16.8458378  59.1163826  77.1909523  16.6282964
  58.4748888  78.4839916  16.1727560 100.0045321  57.6823131   7.4479635
 100.1716897  58.1213085   8.2819708  99.0538285  57.7206413   7.3434503
  38.5719633  93.6393166  38.6300659  39.1531587  94.2894650  39.0247273
  38.2283640  93.1429291  39.3728781  28.2275343  44.8649549  52.1100521
  27.6577139  45.6249619  51.9920349  28.6934447  45.0396013  52.9277658
  24.4006300  84.1879559  62.6879883  24.6197939  84.9208450  63.2633734
  23.5606503  83.8679886  63.0170488  33.0809212  76.8138218  65.7733727
  33.0942369  77.3357153  66.5756702  33.7116385  76.1118889  65.9337568
  85.6425070  12.7328313  27.6697993  86.1395572  11.9346441  27.8488564
  84.7342085  12.4966825  27.8580880  32.9570842  93.7602520   8.9159477
  32.7350092  94.5353222   8.4000158  33.5633922  94.0822124   9.5830035
  86.6952060   5.0295652  76.4841270  86.1739897   4.8377813  75.7045174
  87.1422647   4.2065824  76.6817665  64.1490744  10.9864152  49.0920258
  64.6319984  11.8064035  49.1951132  64.4413732  10.4427064  49.8235846
  36.1106801  90.6577396  49.1824818  36.5545321  89.8958874  49.5550537
  35.3416061  90.2954769  48.7425709  19.2084074  64.8864889  57.4841595
  19.1253686  65.8312845  57.3549414  19.5496988  64.7955084  58.3738089
  87.5212301  85.8590603  40.6179476  87.5888408  86.7616272  40.3064251
  86.6597379  85.8126926  41.0325670  72.2684908  80.5663300  51.1748838
  72.0695400  79.6779013  50.8793306  72.8705311  80.4452991  51.9091415
  99.5279764  22.2797597  35.4403949  99.8944877  21.7949022  36.1798620
  98.9780544  21.6422761  34.9849391  38.8887095  82.3617935  49.8435354
  38.7672114  82.7654934  48.9841747  38.8380909  83.0919075  50.4604626
   5.5005201  29.0538589  19.6044786   4.8698744  28.6811344  18.9883669
   5.0479063  29.8069183  19.9843080  25.7544184 100.8271217  33.3399272
  26.4156103 100.1733017  33.5670495  25.5781960 101.2850571  34.1617942
  14.4631875  63.0843592  44.9536943  14.3623936  62.5768995  44.1483641
  13.8051629  62.7237225  45.5479813  33.6598206  95.4747486  48.2277966
  34.3413806  95.5425262  48.8964605  34.1035867  95.6990623  47.4098778
  37.2246599  92.3513412  40.6494474  37.2457790  92.9192448  41.4196873
  36.9749308  91.4929485  40.9915447  64.2427301  73.6526823  13.4711552
  64.4647121  72.9977274  14.1329622  64.8429823  73.4745693  12.7471328
  38.9248109  97.8229904  55.3216982  38.0786300  97.6442146  54.9115229
  39.2149448  96.9729424  55.6525803  27.2886586  79.1301584  66.1188698
  27.1021891  78.5693836  65.3658819  28.0526209  79.6419334  65.8530140
  47.5113726  58.1250572  65.3084660  46.9424868  57.6427364  65.9084368
  48.3500481  58.1808805  65.7664394  21.0148740  58.2437897  71.7921257
  21.4762259  57.4294424  71.9926786  20.5172038  58.4389210  72.5861549
  61.6741514  84.1769600  82.5211525  62.4359322  83.6230659  82.3505116
  61.9703627  85.0627613  82.3117447  12.7700686  99.2045498  63.6326981
  11.9772136  98.8834572  64.0622473  12.6288521 100.1469994  63.5428047
  50.6012821  93.4247780  45.5802202  49.7403336  93.6365128  45.2194262
  51.2130308  93.9494419  45.0637627  50.8602476  76.0564041  44.5537376
  50.7643700  75.3005028  43.9743805  50.0728893  76.5782499  44.3988848
  21.5260410  61.8113804  64.8396254  22.4764371  61.8856049  64.9260664
  21.2910056  62.4806213  64.1968918  81.3661884  24.6944917  74.1145277
  81.6741060  25.5765928  74.3226767  81.1246227  24.7372449  73.1892967
  40.5625916  99.9838448  44.9655819  41.2479925  99.8198795  45.6133318
  40.7399750  99.3561172  44.2650604  46.8130922  88.7764454  65.3797293
  47.5923300  88.3517647  65.0210333  47.0838737  89.0818596  66.2455416
  44.3341255  78.8055038  67.5030231  44.0527916  79.7199392  67.5329733
  44.7837305  78.7206554  66.6622591  67.4588394  74.9173689  60.4289484
  67.1842241  75.6249666  61.0121536  67.7383280  74.2164469  61.0178709
  34.2036176  99.0441227  57.3750782  34.7577333  98.5023117  57.9368782
  34.4950342  99.9401569  57.5437164  47.6959562  84.1160202  73.6249638
  48.1576586  83.3257294  73.3447933  46.7925692  83.9795494  73.3394909
  93.5820459  11.5098299  43.9803791  93.8852905  11.9080461  44.7962809
  93.1708215  10.6894601  44.2526340  27.4309182  98.7879372  33.8345051
  27.9710150  98.5418797  33.0835152  26.9941330  97.9759598  34.0916920
  25.6587577  85.9929848  49.1456842  26.0495305  85.2036572  49.5205164
  25.0814772  86.3243103  49.8335838  14.7758794  85.2202129  57.6596403
  14.0189767  85.4045677  57.1034575  14.4440961  85.3097057  58.5530281
  14.7925067  94.5537853  40.9020758  15.4707229  94.5204830  41.5767193
  15.1945961  94.1411877  40.1376677  30.0655937  77.1032619  80.9868622
  29.6131229  76.5770054  80.3276539  30.0992775  76.5407372  81.7605972
   8.0401739  41.4280216   6.5495641   8.2973083  42.2355262   6.1045225
   8.6895450  41.3203422   7.2445161  47.5397778  48.5718632  64.8844385
  46.5937948  48.5545158  64.7393560  47.8408670  47.7073431  64.6048307
  63.7267113  90.7299519  70.6200695  63.0932665  90.1027393  70.9687662
  63.2231903  91.5342999  70.4946899  64.3792439  81.4945507  75.4131937
  65.3184175  81.3180828  75.3580618  64.1892672  81.4895821  76.3513374
  39.4146824  86.5468597  67.0947504  39.4222593  87.2416115  67.7531528
  38.5356522  86.5837955  66.7176867  51.1646843  70.8779907  60.5683804
  50.7280111  70.7007170  59.7352409  50.9335470  70.1330280  61.1232138
  45.0954628 101.9760036  45.8990049  45.6002426 102.4425030  46.5651894
  44.1858912 102.0603371  46.1850023  51.6946077  99.0930939  85.1974487
  52.5729895  99.2658901  84.8586082  51.1420107  99.7524738  84.7778130
  62.3695421  73.2824755  68.3201790  62.3201704  73.6451149  67.4357080
  63.2954454  73.0721951  68.4414816  63.9409590  94.1525841  43.1419420
  64.8749876  94.2261887  42.9459715  63.5556602  93.7960911  42.3415089
  33.3904409  76.4952469  53.4390354  32.7791786  77.1759081  53.7206173
  33.2728672  75.7896948  54.0751266   5.2770075  71.3864414   2.9151781
   5.4999670  71.2834445   1.9900282   5.8233341  70.7428256   3.3663042
  98.1179498   7.7123369  60.3683805  98.1258129   8.6649240  60.4618216
  97.8252815   7.5622571  59.4694614  19.7255933  86.5711021  29.1220379
  19.6879852  85.8910561  28.4494662  19.8296273  87.3868942  28.6322379
  14.1876566  54.3676233  70.1518011  13.7301934  53.5788727  69.8605394
  14.6581888  54.0945625  70.9393740  23.1209159  94.1832066  32.8013086
  23.7221074  94.3671131  32.0795178  23.1612420  93.2331085  32.9104495
  78.2165310  20.7740442   2.4259908  77.8900281  20.9070436   1.5360887
  78.6751632  19.9346486   2.3898943  90.4169846  92.6643562  44.4645548
  89.7368336  93.2572365  44.1449833  90.1230621  91.7945576  44.1938257
  99.2368006  23.1157030   1.2108656  98.6699842  22.3516000   1.3161956
  98.6820673  23.7683500   0.7836016  72.2731256  70.5293655  57.6450586
  72.1206188  69.5964622  57.4945211  72.4374485  70.8889246  56.7733097
  62.8161907  99.4330597  52.4227524  62.8645515  99.9603176  51.6253233
  62.2793627  98.6789513  52.1790838  51.6372204  86.0462475  16.6741943
  51.7984915  85.1662636  17.0145679  51.2353230  86.5158272  17.4050868
  59.3854951  35.7098783  37.6862454  59.8583649  34.8861803  37.5673175
  58.5669421  35.4566778  38.1129718  15.5368125  82.5186062  41.1287689
  16.2384939  83.0742073  41.4681578  15.0630796  83.0794525  40.5145550
  11.7370972  62.9600517   8.3867700  11.8092569  62.5547496   7.5226267
  12.4063095  63.6444370   8.3869608  97.2081591  94.9530792  35.3092980
  97.2621084  95.0165462  36.2628675  97.7698423  95.6593704  34.9900889
  36.9871449  71.6952515  63.1057072  37.6534557  72.0493317  63.6946774
  36.4941883  72.4618673  62.8132582  22.5386200   2.7921117  57.7541780
  22.8113899   3.1860460  56.9255400  21.6707954   2.4309076  57.5734615
  92.5051235  12.3340333  22.5428152  91.9867920  13.0758584  22.2309399
  92.6848339  11.8196786  21.7558122 102.8655956  64.6160404   2.3309763
 103.5871193  64.6497432   1.7028864 102.7703760  63.6860649   2.5366838
  40.7261848  69.9504042  56.9308996  40.6058693  69.3534994  56.1923504
  40.8871174  69.3759060  57.6794195  32.8418493  82.8142071  67.7435112
  32.8846550  83.1788921  66.8595409  32.5789857  81.9029331  67.6141787
  70.6087017  71.1418772  59.6849060  70.5822849  70.2785301  60.0974131
  70.8963871  70.9702015  58.7882471 105.0145363  14.0723718  72.2097206
 104.8185323  13.8773931  71.2933159 105.1217865  13.2140268  72.6195765
  79.6507597  69.9278307  44.1956949  79.7416019  69.5885658  45.0861311
  80.5494499  70.0007486  43.8743210  37.2614217  99.6322727  53.2681990
  37.6256180  99.2030907  52.4939919  37.1362853 100.5427837  53.0007172
 107.2649097  73.5195208  59.1823673 107.5569450  73.0045557  58.4301996
 106.3479639  73.7195921  58.9941788  75.3614901   9.7177042  37.5113225
  76.2117528   9.4680513  37.1494389  75.5186867   9.8091615  38.4510875
  81.9473267  79.9334240  86.1723232  81.0475540  80.2404499  86.0611057
  81.8585682  79.0810251  86.5986633  35.9943366  96.0661221  77.6884365
  36.5064645  95.2575684  77.7024841  35.1472473  95.8195877  78.0597734
 105.1240901  81.1010647  46.7017365 104.3009342  80.8483124  46.2836885
 105.7374258  81.2121391  45.9752989  48.2632923  72.5298595  68.7826586
  48.8605022  72.3358154  68.0602217  47.4062538  72.6226616  68.3665943
  76.9773506   9.2529977  44.9232435  77.0563625  10.2061475  44.9619246
  76.1132931   9.0996088  44.5409966  69.1556740 102.7499866  48.6972427
  69.8184443 102.3423004  48.1397867  68.5075378 103.0968952  48.0842161
  96.3274002  81.9971561  61.9286251  96.2145805  82.8642273  62.3181200
  96.6570282  82.1716404  61.0470724  85.6924700   2.8383268  22.5212789
  85.5082201   3.7731374  22.6130152  84.9743389   2.5042833  21.9837570
  13.2976589   4.8729909  63.9507151  12.3625813   4.9968065  64.1135645
  13.6204205   5.7470811  63.7315607   3.0219231   8.1847299  27.4311852
   3.3815203   7.3004163  27.5012612   3.0485640   8.3805955  26.4946175
 101.3435959   8.7479413  37.9384708 100.8926986   9.0073884  37.1349716
 102.2715162   8.8841547  37.7470613  41.0180044  83.6794090  39.7258258
  41.9082499  84.0202808  39.6392131  40.5142546  84.4123840  40.0796986
  61.1796856 102.0231724  70.3941774  61.3081074 101.0752869  70.3586197
  60.2402353 102.1429729  70.2551937  40.5193520  85.9584045  30.1100707
  41.2419033  85.3349209  30.1837516  40.4202271  86.3155365  30.9926009
  40.8068705  73.6416388   4.1971838  41.3873482  72.9013062   4.0206084
  40.2985573  73.7446356   3.3926710  20.6229377  90.7324028  72.2175026
  20.9966040  90.6771946  73.0970240  21.1163688  91.4331245  71.7911863
  54.7778797  79.7107601  68.9228010  54.0750074  79.1379929  68.6159849
  54.3359566  80.5257416  69.1610050  69.1858387  72.0395088  13.5302615
  69.3405771  72.9840136  13.5444582  69.6105671  71.7152548  14.3244278
  84.7545980  16.8180955  48.8050556  84.5971369  16.2404550  49.5518923
  85.6304334  17.1730340  48.9572573  36.8254805  67.4533796  57.8746271
  37.3029757  66.6285372  57.7859592  35.9165287  67.2262144  57.6785851
   6.2670547  96.3499451   8.7080455   6.1886597  96.9288540   9.4663024
   6.6097993  96.9112682   8.0125767  48.4677267  94.7041512  44.1119719
  47.9543543  94.3484116  43.3866215  48.1999207  95.6214333  44.1677094
  43.6190271  88.4159756  47.9853821  42.8156471  87.9607391  48.2375193
  44.3090391  87.9777241  48.4834337  59.4796896  68.9650965  52.5036478
  59.8186350  68.1539679  52.1249390  58.9461565  69.3495369  51.8081045
  22.4325728  80.6099033  67.9438972  22.5261354  80.9271717  68.8421345
  23.2639980  80.8306503  67.5240946  93.9118742   1.9352163  34.2769170
  93.6779093   1.0604394  33.9666510  94.8653291   1.9696916  34.1996455
   2.3929662  82.9265881  28.8257289   2.5855821  82.3449135  29.5611119
   2.4199426  82.3573494  28.0566549  42.8684616  79.1904116  46.1421728
  42.8487587  78.5456228  45.4350042  43.3817434  79.9172449  45.7893467
  54.6316624  77.2832823  56.3787889  54.7435951  78.1209373  56.8282795
  54.2183161  76.7157221  57.0293665  58.5047197  96.0264206  60.2169371
  57.9575396  96.5423203  59.6247625  58.3102751  96.3746166  61.0870981
  68.1000398   2.1302045  63.7003899  67.1527170   2.2620405  63.6625767
  68.4005259   2.7428831  64.3716288  96.9586109   1.2765993  53.1453228
  96.0437654   1.4598478  52.9315424  97.0177149   1.4221395  54.0895462
  46.1964592  79.3468276   2.4589021  45.9155449  79.0811626   3.3345468
  46.8418869  78.6874954   2.2040994  44.8794127  92.6598740  78.0600452
  45.1999950  93.5152340  77.7740145  44.9761486  92.6739979  79.0122414
  92.8009962  97.8383377   5.4901750  93.5080646  97.2033241   5.6043871
  93.0425905  98.3268478   4.7032697  22.0107913  94.8443413  51.4364529
  22.7394247  95.4240036  51.2143850  21.2294579  95.3289604  51.1701965
  77.6662731  93.2723999  54.6061802  77.2119904  92.5514126  55.0421095
  76.9671822  93.8686752  54.3379354  44.9183750  82.3820686  34.3937397
  44.1193438  82.0919895  34.8337770  44.6771765  83.2116699  33.9816451
  30.9766769  80.8952332  68.0839825  30.5919695  80.0488377  68.3117104
  30.2421856  81.5082550  68.1148672  48.7321472  95.6589699  75.2450848
  49.2819834  95.8376598  74.4822025  48.8429356  94.7219181  75.4059649
  92.4423479   6.3813032  41.2908554  92.9507135   7.1776594  41.1371994
  91.7732738   6.3884557  40.6063747  59.6953057  11.0162843  76.8085718
  59.2846464  10.3787817  77.3926783  60.5400227  10.6260599  76.5840530
  71.1985588  83.8628197  18.3460367  71.3316679  83.8846397  19.2936850
  71.9794178  83.4271431  18.0044603  21.2385058  69.4429350  52.8649998
  20.5737472  70.0709677  52.5823259  21.0103512  68.6319065  52.4106693
  60.6047748   7.3958791  56.8590736  61.2017630   7.6843084  57.5494671
  59.7573756   7.7671541  57.1046400  97.9636644  -0.0763880  42.8005886
  97.0539640   0.1927865  42.6731920  98.4355949   0.3202737  42.0683479
   7.4953562  71.5103960  19.4714713   7.0109344  71.7250395  18.6742914
   6.8187284  71.3891792  20.1375890 108.5694954  80.2331821   4.6909197
 108.7482426  80.3925220   3.7641485 107.7332423  80.6701366   4.8521288
  98.0503248  24.9990667  79.7152519  98.1888460  25.2476705  78.8013363
  97.2492002  24.4753660  79.7022247  87.5280308  24.2445959  28.5793257
  87.5036072  25.1865304  28.7478256  86.7397283  23.9049829  29.0029716
  64.5869898  28.7162126  81.9363689  63.7054323  28.3565343  81.8377781
  65.0327443  28.1013788  82.5190449  44.2278528  91.9312477  41.0010433
  43.9868593  91.0174084  41.1528683  44.1012383  92.3564339  41.8492270
  80.4773067   4.2594827  76.7951870  79.7966980   3.6061204  76.6335630
  80.0394319   4.9400438  77.3063993  17.4142609   5.3494752  41.8720770
  17.6468811   6.1958326  42.2539139  17.7844296   4.7048105  42.4750805
  14.3613945  77.4626827  36.8010426  14.8707997  78.2730293  36.7917562
  14.5429074  77.0754814  37.6574063  94.2920851   2.9564012  57.2040892
  94.4216083   3.1261266  58.1371737  94.1148304   2.0170988  57.1538401
 102.9287504   4.9465097  43.1914711 103.1915735   5.7472337  42.7375937
 102.6639675   5.2410615  44.0628862   8.5764465   8.3049978  83.8893032
   8.4325848   7.7509893  84.6565247   8.8414822   9.1507257  84.2508793
  16.4079247  19.7000421  13.5081005  16.0117588  20.5311979  13.2464468
  15.8036766  19.0333856  13.1814837  91.2121700  20.1268877  67.0394707
  91.8843244  19.6270193  66.5762568  90.3855871  19.8170007  66.6693830
  70.4257059  66.5996265  52.8605652  70.0308657  67.2440195  53.4480143
  71.1912394  66.2785053  53.3370876  98.7126827  93.7241173  62.2390795
  99.3080235  92.9813480  62.3395348  98.0752850  93.4336662  61.5867043
  39.0480590  90.7795715  43.4769726  39.1982484  90.0171185  42.9180956
  39.3962431  91.5166283  42.9752254  10.9894905   4.0351308  47.5195122
  11.7821846   3.5729135  47.2470570  10.3038559   3.3675207  47.4987698
  40.7414007  99.2424774  59.8000193  40.7301474  98.2904243  59.8985815
  39.8179722  99.4885921  59.7458076  99.0198301  12.1081079  41.6111803
  99.8423074  12.5945486  41.6672182  98.5575269  12.5035966  40.8721972
  88.8899683  20.8242143  48.7628078  89.7305225  21.0807336  48.3834648
  88.8404678  21.3100828  49.5860434  67.4372362  21.6181673  12.8007174
  67.7306603  21.3858903  11.9197059  66.5342473  21.9129003  12.6824927
  78.3518528   1.9470800  55.1466608  79.2301868   2.0163072  54.7725391
  77.9788278   1.1654485  54.7390604  96.6633701  66.0881901  46.1080360
  96.5944862  66.9641018  45.7282066  97.3407459  66.1707926  46.7792797
   4.3371735  41.8773569  24.0449619   5.1779661  41.7682184  23.6006761
   4.0396175  40.9840597  24.2173052  66.9111347  91.9206333  77.7083492
  67.0612431  90.9760571  77.7466869  67.6438522  92.2994995  78.1939650
  47.6795626 102.7524471  70.8837795  46.7320585 102.6184940  70.9064674
  47.9070663 102.6975346  69.9556351   6.5718693  97.2148228  57.6985121
   7.3084193  97.8202057  57.7835417   5.9130293  97.5524807  58.3052635
  67.7319241  81.5143681  50.2515650  67.4862146  82.2222424  49.6559381
  67.5889874  81.8766212  51.1259604   0.3409634  24.6045507  48.6968851
  -0.1923361  24.8714555  49.4456100   0.6418953  25.4275239  48.3116674
  87.8367780  15.7185949  43.6216497  87.7685140  16.2489713  42.8277540
  87.2926735  16.1759389  44.2627525  73.1498528  76.3137531  66.4036226
  73.7644815  75.7088804  65.9881783  72.2863054  75.9517384  66.2049770
  50.5913639  79.7242069  12.5862682  50.0083542  80.2956009  12.0864332
  51.1919546  80.3234577  13.0294573  79.7965978  21.1658872  69.7407246
  79.5366024  22.0809377  69.6343613  80.6811975  21.2088979  70.1038599
  82.2356104   1.4252771  64.7258520  82.2742199   2.1205152  64.0690517
  81.5182852   0.8616174  64.4360924  71.3542461  84.8163319  69.2150736
  71.3603687  83.9202881  69.5516729  70.4938364  84.9129868  68.8069248
  83.1297659  14.5673288  30.2031779  83.9932560  14.9801553  30.1890278
  82.5244592  15.2845491  30.3914237   4.0115748  10.0817121  22.1328735
   4.3048248   9.3532575  21.5855217   4.4725189  10.8444417  21.7835903
  74.2211151  74.5866299  44.8518562  74.3751764  73.7093735  44.5012712
  74.4653463  74.5218945  45.7751083  67.1519613 101.9586182  78.2568979
  67.3769093 102.8734112  78.0872011  66.9395781 101.9333076  79.1898966
  66.2966251  97.4096680  47.7346611  66.7760420  97.1094513  46.9624805
  65.5871868  97.9469681  47.3822021  83.8692354  25.7373823  61.2528563
  83.3603834  25.4598535  60.4910994  84.1408466  26.6317476  61.0465384
 103.7252544  31.9025243  76.5604877 104.5906757  32.2622503  76.3658953
 103.8373922  31.4466680  77.3946619   9.0945601  91.4830780  61.3546991
   9.3814886  92.2979069  61.7669678   8.7955737  91.7472363  60.4846048
 107.2138283  57.6089660   7.1413953 106.6918824  58.3989898   7.2816713
 107.5478122  57.6979247   6.2487657   9.9492607  31.8967737  78.5506630
   9.5990429  31.3493074  77.8479195   9.1744003  32.2419561  78.9941454
  49.5824528  87.7763748  40.7846308  50.1026630  88.1198025  41.5110397
  49.1063690  88.5366058  40.4505444  42.1769190  71.9737101  36.7575192
  42.4265671  72.8016949  37.1678257  42.4634361  72.0609522  35.8483839
  39.1963911  88.9091969  87.5593376  38.3900285  89.4175911  87.4724388
  39.1945386  88.3256149  86.8006134  43.2293177  90.6408787  43.7839937
  44.0179253  90.1030159  43.8549948  42.6480913  90.3050041  44.4663429
  89.0544485  39.5334638  37.0405579  88.2134222  39.3902410  37.4745989
  89.6936153  39.5401300  37.7530551   1.3725220  89.3767548  76.7292929
   1.5331494  88.8532448  77.5143909   0.7648979  88.8498592  76.2102556
  56.2566805  86.9299889  67.4636412  55.8344507  87.0734119  68.3106279
  56.1792469  87.7704144  67.0120573 105.3370880   7.6379884  45.0765276
 105.9748625   8.3460725  45.1665211 105.0363706   7.7002920  44.1699314
  46.5965033  74.2064810  49.8107576  46.0808992  73.6683846  50.4114485
  46.2832785  75.0986719  49.9594593   4.6300230   4.3963350  61.9846916
   5.4021654   3.9303411  61.6639423   4.5811663   5.1821054  61.4402485
  69.9934196  99.3205833  60.7181072  69.2543030  99.0708256  61.2726879
  69.6279955  99.9582672  60.1048756  94.1067671  18.1199182  35.4230642
  93.5767626  18.7675394  34.9583936  94.6384977  18.6359037  36.0290837
  49.4949055  73.7828732  57.6817179  49.7191381  74.3536425  58.4166813
  48.5706472  73.9641094  57.5110245 102.0466064  12.1400465  39.3137407
 101.7782377  12.5960268  40.1114178 102.9922413  12.2799982  39.2644763
  45.6127214  87.3452282  31.4390182  45.0038052  88.0726624  31.3113904
  46.3437843  87.7272224  31.9246721  87.8166364  42.5723375  72.9585838
  88.3573507  43.3520807  73.0845308  87.1674513  42.6150907  73.6607027
  65.5796528  72.5707531  54.3618107  65.3177786  73.0607319  55.1412821
  64.7760582  72.1423006  54.0670347  30.4072976  81.0767841  77.5479507
  30.4009223  81.6708565  78.2984686  30.0208139  81.5864086  76.8358088
  72.6266693   7.9487909  44.6639204  73.5660504   7.9640020  44.4807100
  72.2194098   7.7842630  43.8134480   7.9142914  17.0113481  24.3383622
   8.2589111  17.7981676  24.7607231   6.9792566  17.0196641  24.5430064
  64.4533514   1.6606821  49.9565125  64.4298385   2.2728933  49.2210674
  63.6026191   1.7653573  50.3825760  75.3339242  10.0924791  20.7123828
  75.5044841   9.8469461  21.6216993  74.8536013  10.9181894  20.7733107
  38.9112486   1.9567979  42.0584631  39.6367286   1.4076532  42.3557091
  39.3160172   2.8008760  41.8586493  88.4258531   6.2170518  64.6522999
  87.4913477   6.4023126  64.5594931  88.8550161   6.8636621  64.0919924
  78.7481951   2.7121747  50.9278965  78.2192301   1.9621957  50.6559277
  78.1461786   3.2597078  51.4318895   1.8012295   4.6611131  36.2532854
   2.2717438   4.5476736  37.0791054   2.3732767   4.2658342  35.5954480
  68.8449335  93.5141373  43.1840420  69.7399473  93.4579659  42.8493452
  68.2937002  93.3040714  42.4302244  66.7538357  97.0570660  85.4245949
  67.6716280  97.0442581  85.6961155  66.2939882  97.4723339  86.1542034
  30.9241986  97.3326874  44.7810459  31.7251086  96.9343662  44.4402933
  30.2709675  97.1786404  44.0985537  67.1108007  92.5405693  33.1418920
  67.7185631  93.1832504  32.7760839  66.8240643  92.9261971  33.9697242
 105.6686424   0.9829916  71.3655043 105.6856512   1.1990560  72.2978449
 106.3907837   1.4865125  70.9897375  87.7075981   0.8788408  56.5917921
  88.0650734   1.7257036  56.3248348  88.4730600   0.3093160  56.6689205
 104.5937942  11.7681612  11.6372681 104.1625189  10.9688772  11.9395435
 104.3114685  11.8633188  10.7276142   6.2356075  64.5581905   3.7291486
   5.9065279  63.8010589   3.2447012   6.9992145  64.2267505   4.2016752
  63.9374946   7.6038564  66.2003040  64.1291283   8.5232461  66.0152578
  62.9830979   7.5660432  66.2629604  16.8065345  78.9150000  40.9861469
  16.3582468  79.5508480  40.4285049  17.1550906  78.2650566  40.3759766
 105.4128050  24.1854204  68.9596367 105.8211159  23.3221830  69.0255070
 104.4813131  24.0011800  68.8387394  63.2511139  81.5329838  48.5642910
  63.3754778  80.5853844  48.6175013  63.7415552  81.7955399  47.7853441
  65.6368589  93.7375069  26.9952226  64.6910429  93.6764908  27.1291566
  65.9953117  92.9904842  27.4744821  38.9844084 101.3088799  37.4694180
  38.3400059 101.5992546  38.1149077  38.8392305 101.8777370  36.7134070
 101.3325405  81.4596844  78.0065966 102.2432518  81.3899708  78.2929182
 101.1251354  80.5939770  77.6548052  31.6040596 102.2538558   5.8385999
  32.1326479 101.5015022   6.1046751  31.9265350 102.4762718   4.9652345
  25.0529790  92.9923725  71.8908453  24.5716405  93.6629772  71.4062500
  25.4022670  93.4526634  72.6539755  89.2579006  12.1159185  75.2826643
  90.0359272  11.8217481  74.8089886  88.6579012  12.4111761  74.5977831
  68.1076168  29.5450605  72.9248047  67.8214477  30.4022230  73.2404137
  68.6994694  29.7424711  72.1988773  65.4839872   5.2589715  35.2763581
  65.2944063   4.9207128  34.4012165  64.9755811   6.0678113  35.3358316
  65.7380056  98.9803123  49.9188185  66.2951279  99.7314548  49.7147799
  65.8678007  98.3795071  49.1850424  38.6281800  82.9299641  63.3143568
  38.1117058  82.1837711  63.0099392  37.9883170  83.5140228  63.7214088
  25.6217226  61.5799419   1.1578806  25.2483591  62.4467079   0.9980257
  25.1350912  61.2446872   1.9108827  78.2478594   7.4534048  87.5220108
  77.4540113   6.9301904  87.4111843  78.9544653   6.8094362  87.5694466
 102.9631876   2.3628057  49.2001963 103.2979892   1.7193998  48.5755634
 102.0283102   2.4233354  49.0037870  42.9337931  97.7290440  72.4934769
  43.2678080  97.6911259  71.5972519  43.6162949  97.3143864  73.0211926
  89.1858768  88.8822079  62.9427004  89.7657776  88.5608578  63.6331224
  89.7166634  89.5155430  62.4596024  59.3374825  85.0688362  30.1337171
  58.7887049  84.8048115  29.3952298  59.6140432  85.9599590  29.9200535
  34.6056780  62.3796932  29.9578054  35.5247005  62.5326530  29.7381933
  34.5699295  61.4568321  30.2093656  85.5484174  21.1114992   7.1849489
  85.8215879  20.7396234   8.0235875  85.3522133  22.0274938   7.3816663
  68.9319372  94.6205425  45.8616543  68.8845682  94.4601917  44.9191713
  68.6134052  95.5168533  45.9684229  14.5233498  40.1100648  68.2197428
  14.1855393  39.3457330  67.7529335  13.7974510  40.7339872  68.2145882
  63.8437271  99.7372913  64.4540739  62.9441118  99.8066139  64.7736359
  64.3757820 100.1207542  65.1512861  71.6887115   8.1622041  84.4451237
  71.3480781   7.9948724  85.3238773  72.0649217   7.3258794  84.1708088
   6.6925558  35.8897392   8.3636053   6.0087665  36.2032215   7.7716692
   7.0083364  36.6787712   8.8039930 105.1392864   5.8451379  60.1415396
 104.3737959   5.9821905  59.5834398 104.7869991   5.4478563  60.9379625
   3.3862219  12.0359338  65.3557682   3.4571467  12.7646078  65.9723949
   2.6632843  12.2805513  64.7780514  72.6948452  89.5660019  48.6754322
  72.3303413  90.3343105  49.1148329  71.9311285  89.0366650  48.4457016
  31.3651905  10.6050695  56.4009619  31.7635593  10.1219190  55.6770182
  31.3445053  11.5134920  56.0999966  97.1610712  10.0900377  43.4525681
  97.8012251   9.5875753  42.9486179  96.3814138  10.1095975  42.8976059
  16.1210203  93.6586094  50.0327826  15.6919539  93.0575180  50.6417274
  16.3571608  93.1121254  49.2832327  57.6427317  95.1034927  64.0494299
  57.4660587  95.5663204  64.8684597  58.2293701  94.3896484  64.2994452
  25.0466856  76.0672180   9.5355089  25.3410372  76.7076675   8.8878877
  25.8446869  75.8087818   9.9966390  33.9518809  90.4205513  73.3021307
  33.6461735  90.5814552  74.1948175  34.8122692  90.0159550  73.4128809
  64.9389362  83.5164452  43.8239384  65.7685328  83.2466602  43.4299612
  64.5059776  84.0303516  43.1422710 104.3971895   3.7049783  64.8252916
 104.0680717   3.4735883  65.6938362 105.0370668   3.0227197  64.6220398
  64.0526413  16.8711198  47.4914074  63.2046031  16.5700544  47.1651793
  63.8598346  17.2432149  48.3519888  71.7224072   1.3597311  45.4554939
  71.7310070   1.6931928  44.5582962  71.3587593   2.0772947  45.9742355
  40.0866747  88.5600948  71.7940807  40.8218431  88.9471722  72.2694016
  40.4625082  87.8005695  71.3489866  85.1091932   0.8805955  17.9088271
  85.2003788   0.2895082  17.1614730  84.7594475   0.3293813  18.6088753
  65.8559631  33.6362089  32.9878497  65.9666418  33.0498517  32.2394109
  64.9636911  33.9713396  32.8996706  17.6044297  92.8392601  56.8012238
  18.4291804  92.9755688  57.2675276  17.5723541  93.5483170  56.1590195
  67.7817011  92.0395184  17.8357244  68.3763552  92.7811241  17.9481602
  68.3575535  91.2768173  17.7817369  13.4879994 101.2712288  56.8152714
  14.1591406 101.2519550  57.4974966  13.4467864 100.3703785  56.4943171
  44.5639992  93.9009190  59.8187304  43.7148333  93.4813976  59.6803331
  44.6822119  93.8947678  60.7685804 104.2905805  73.2490531   0.9010751
 104.7672818  73.8903991   1.4280088 103.5476754  73.7363807   0.5449255
  27.7965355  86.3288307  68.6589575  27.8746796  87.0596981  69.2721176
  27.3366070  85.6500053  69.1528130  43.0366850  98.7356377  36.5333605
  43.1551886  99.6507263  36.2787986  42.1091795  98.5608578  36.3739371
  95.2791952   4.7768415  23.7035251  95.2422737   3.8959897  23.3307481
  94.8949503   5.3382028  23.0301285  66.9791603  89.0756321  27.2564125
  67.7603245  89.6117687  27.3926806  67.3126698  88.1817532  27.1790099
  25.7211088  20.3056062  62.7956581  26.4234303  19.6552576  62.7997494
  26.1020838  21.0722364  63.2238770  62.8232574  75.0377655  42.4181652
  62.5014734  74.3059540  41.8917274  62.1278620  75.1978683  43.0561495
  98.9350961  22.1162523  70.5236721  99.3636488  21.9699777  69.6803570
  98.3850549  22.8867830  70.3823614  52.9629040  91.7241001  45.0907278
  53.6622524  92.3633480  45.2267647  52.1647406  92.1828938  45.3527880
  40.2422380  81.0139751   5.7338727  40.7475758  81.0736656   6.5446150
  39.6726704  81.7831135   5.7494789  62.8066730  75.7882261  52.4115229
  63.7592363  75.7932520  52.5054598  62.4791145  76.0222006  53.2799625
  37.3106575  81.7423439  22.6279259  37.3140144  81.4514065  21.7160153
  37.9141068  81.1463928  23.0716848  71.6580437   2.5043882  33.7847900
  70.7769297   2.1935285  33.5768604  71.5246366   3.3842672  34.1372705
  52.2464943  69.2336369  56.7225599  52.1774626  68.4058523  57.1982050
  51.6184282  69.1506624  56.0050058  37.5623822 100.5960560  46.3814449
  37.4912763 101.4343834  46.8379259  38.4278202 100.6183434  45.9730864
  58.9036417  94.3249321  55.6873083  59.1271257  93.4940147  55.2679539
  58.1698132  94.1124249  56.2639999  23.4633493  72.8393650  64.9754143
  22.9695010  73.6492014  64.8469257  23.6033058  72.5012779  64.0909147
  76.5711330  14.5457662  65.8304787  76.9999479  13.6960710  65.9322929
  76.0419129  14.4535650  65.0382280  88.2766460  25.0750936  72.2905302
  88.4186147  25.3671373  73.1909657  87.6463579  24.3588365  72.3676014
  55.5952692  83.5736370  42.7480459  55.6237364  84.4454384  43.1422329
  56.0708952  83.0165386  43.3642054  65.3717613 102.9841232  25.9963441
  65.1741695 103.4947872  25.2112246  64.8067284 102.2143555  25.9298706
  32.5155315  53.0622400  70.1520872  32.6794300  53.6282648  69.3977737
  32.4268112  52.1853364  69.7787333  69.1237783  95.5041599  36.4641881
  69.9456263  95.6458664  36.9339967  68.9529657  96.3367367  36.0238743
  67.8048753   4.8060239  27.7378750  66.8896555   4.5638956  27.5965333
  67.7742409   5.4623617  28.4339380  67.4381756  20.5132020  50.1656961
  67.2777294  21.0726942  50.9255981  66.5647053  20.2860559  49.8468113
  92.4639581  20.1451601  50.0757694  93.1278728  19.7152914  49.5366287
  91.7097830  19.5567049  50.0414658  96.4588283   6.4369119  28.1212020
  96.5787815   5.6733144  28.6857963  95.5960058   6.3099111  27.7266908
  98.2419227  35.6585039  49.6695614  98.2133697  36.4251626  49.0971470
  99.1482328  35.6214822  49.9752855 102.8714918   3.5926641  51.7595339
 103.2112192   4.4217218  51.4226580 103.2915615   2.9241193  51.2184095
  76.7253135  49.2089857  79.3611717  76.2437700  48.6659540  79.9852371
  76.0448931  49.6559156  78.8576698  71.8364595   2.7744974  86.9102287
  72.0630764   3.0733980  86.0295773  71.1426638   2.1294607  86.7730904
  96.9395183   4.2299188  33.4039783  96.4170431   4.4592870  32.6354480
  97.1500086   5.0707353  33.8101315  85.8791279  23.5219110  67.3660088
  85.8267664  24.1175283  68.1134987  85.1487421  23.7790121  66.8032742
  79.0101026   7.9538072  33.1235170  79.5055984   7.1402276  33.0296683
  78.1244348   7.6700605  33.3500552  93.8679504  59.0367937  41.2134314
  92.9825783  58.8964033  40.8778143  94.1339207  59.8783398  40.8428907
  85.7974409  19.3465913  33.5843349  86.4809631  19.1315092  34.2189789
  86.2580847  19.8074258  32.8831458  18.8844166  24.1487134  78.0818558
  19.4805012  23.9912809  78.8140631  18.3171043  23.3779443  78.0648565
  69.9080658  76.8760014  49.2547035  70.7282400  77.3025560  49.5028877
  69.2385197  77.5462008  49.3917322  71.3063988  71.7226211  22.0146139
  71.7640385  71.9993869  22.8084715  70.4209980  72.0724193  22.1142824
  39.0328741  78.2512331  34.6194196  38.7331629  77.3456526  34.5398617
  39.5010805  78.2761240  35.4539227  42.7540684  80.2759933  34.8956847
  42.1541357  80.4752827  35.6144333  42.3294687  80.6433487  34.1204453
 107.9841064   0.5412591  76.8447971 107.4329971   0.6235422  77.6230907
 107.7327369  -0.2988516  76.4610577  33.2642841  71.1314297  55.4198122
  34.0248585  70.5699682  55.2697468  32.5151777  70.5373478  55.3735781
  68.6673115  16.3699354  30.0484920  69.0316366  16.4083494  30.9328151
  69.0389918  17.1312917  29.6030450  34.8446306  36.1095516   0.7944448
  35.7438120  35.7844154   0.7497842  34.7462019  36.4187709   1.6949613
 106.5222334   7.0699705  53.8189888 107.4708818   7.1902765  53.7762928
 106.2435697   7.6211847  54.5502520  62.9161787  99.1792202  38.7357879
  62.8876352  98.9531708  37.8061008  61.9978714  99.2817402  38.9856529
  99.0498661  16.3092149  44.4791698  99.7976850  15.7142938  44.5344448
  99.1973089  16.9449724  45.1793861  51.5479946  84.9913692  36.8040895
  51.6815853  84.0484905  36.7073059  50.6482887  85.0746059  37.1200562
  62.4471331  84.8023129  58.6844873  62.2923183  84.2448521  57.9219246
  62.9225683  85.5569172  58.3369732  23.3520540  42.0282642   1.9972379
  23.2895836  42.3286334   1.0905321  23.1075081  41.1035530   1.9605882
  51.5107298  85.2778244  60.9732866  50.9524679  84.5005131  60.9541798
  51.6275787  85.4659557  61.9045162  87.9339504  84.1395569  68.7042379
  87.3078632  83.4282780  68.5688114  87.9790592  84.2411423  69.6549654
  42.1483707 101.8849945  47.7969074  41.5233564 102.4940014  48.1902170
  42.3400927 102.2603321  46.9374895  56.3448906  88.1420040  28.6802793
  57.0730209  88.7558651  28.7763858  55.6150627  88.5631084  29.1344309
  46.2018728  85.6965065  56.5840483  46.1151934  86.0119057  57.4836302
  46.8380547  86.2886047  56.1829042   4.3112383  41.6892541  50.3093672
   4.9661026  40.9981836  50.2103853   3.8206778  41.4437974  51.0937977
  57.3892593 102.5470543  49.6966839  57.1618271 101.6400623  49.9012804
  58.1321907 102.7423573  50.2677679  78.8287163  95.6906509  47.8013992
  78.6045790  94.8162937  48.1199741  78.3255386  95.7872486  46.9928741
  60.5098723   9.2966760  88.2453346  59.5719694   9.1369260  88.1402206
  60.8659004   9.2242444  87.3597622  77.4803089  21.0702623   5.7577735
  76.8770574  20.6695474   6.3836718  78.2893347  20.5668844   5.8489603
  99.2846273   1.8277086   5.4413468  98.9951776   2.7317155   5.3179556
  98.5688852   1.4103616   5.9206855  39.8289275  75.2568769  48.8537788
  40.6722403  75.2155113  49.3047190  39.2073822  75.5213261  49.5319986
  23.3380318  71.7915058  57.7547598  22.4047565  71.8282557  57.9642296
  23.4445381  70.9675598  57.2793579  37.9731727  92.3580933  33.0105686
  37.2454333  92.9699802  33.1211019  38.7483287  92.9163456  32.9496121
  17.0211947  83.0425930  60.4381084  17.7222443  82.4066257  60.2956152
  16.2796366  82.6969624  59.9412537  12.4742472  74.8319197  86.1637402
  12.9166269  74.3186569  85.4876518  12.0457804  75.5409384  85.6842136
  88.5663294  24.4001783  81.8658638  88.1337332  23.5762514  81.6417408
  88.5478805  24.4279016  82.8224850  49.5017719  92.3368073  55.9091139
  50.1605177  92.4234200  56.5981579  49.4933128  93.1909370  55.4771137
  64.0347338  68.2435226  61.3264322  63.8830566  69.1876507  61.3695145
  64.9835873  68.1573343  61.2343550  50.0904179  84.8615551  75.2894783
  49.2266941  84.8795700  74.8773050  50.0282907  84.1673279  75.9455395
  42.6657009  95.5405712  46.5088224  41.9618750  95.6955338  47.1387768
  42.7248240  94.5872974  46.4454460  99.6116565  30.9258283  67.8550625
 100.4399704  30.8617509  67.3796511  99.1618227  30.1026834  67.6645088
  61.0271120  79.2949247  28.5596371  61.6885710  79.2276859  29.2482495
  60.4892063  80.0438499  28.8165307  95.2338241  43.6076082  33.5571003
  94.2974542  43.7576402  33.4269404  95.4722093  42.9774393  32.8771806
  89.8196220  90.2290058  71.9762897  90.6759453  90.1329422  71.5594959
  89.3281841  90.7993984  71.3852072  93.8212465   6.9969190  77.6478767
  94.0354084   7.7306093  78.2241392  93.1989549   7.3607362  77.0180988
  84.2375755  99.8507309  29.7724676  83.5918999 100.5100060  30.0268459
  84.8767471  99.8540592  30.4849815  54.2319392   3.2586587  46.4468813
  53.9826189   3.7021841  47.2576571  55.1817356   3.3665765  46.3971519
  51.1083364  65.1648998  54.4785213  51.2688065  65.7927179  53.7740183
  51.8528605  65.2734327  55.0702477  53.0075550 100.6629086  49.5170832
  52.7137232 101.5733147  49.5494080  52.3537350 100.1820469  50.0245523
  28.9643621  98.1643295  66.9438219  28.8251519  98.0254078  67.8805971
  29.9029827  98.3340740  66.8637419  21.3166881  82.2181416  49.0600634
  21.8817806  82.9906654  49.0495157  21.3768435  81.8896198  49.9571085
  52.1249819  88.9285851  45.8813620  51.4837837  88.6966610  45.2095652
  52.2668314  89.8677826  45.7630014  46.4891195  94.4916725  67.1139956
  46.6891956  95.3027534  66.6467237  47.3003006  93.9851952  67.0728302
  67.5601839   3.4352697  42.3726606  66.9909142   3.3738435  41.6055965
  67.6350068   2.5346578  42.6881361  65.6636761  24.8355497  76.4546108
  65.5841802  24.2294897  75.7179880  65.2895306  25.6553091  76.1317587
   6.7655764  43.8010229  14.4778991   6.6415653  44.5630754  15.0436997
   7.5742111  43.3975233  14.7933853  74.1021729  84.3868446  66.8222427
  73.7231493  84.9515533  66.1486864  73.5947514  83.5769463  66.7691326
  94.1179012   6.0731042  74.3879461  94.8618435   5.9054769  74.9664640
  93.5023235   6.5696634  74.9271345  79.9957012  21.2349714  27.1735430
  80.1529669  21.9279588  27.8148437  79.3285774  20.6807531  27.5785351
   6.3257132  21.6804327  25.7197046   7.2039661  22.0437444  25.6061244
   6.2285147  21.5804208  26.6666913  76.5930748  77.2215843  71.5428734
  77.3603392  77.4503517  71.0182762  76.0097170  76.7727280  70.9309483
  79.4802355   2.4349416  70.5150652  79.5616411   2.9152788  69.6911240
  79.8347639   1.5669549  70.3223276  47.0974159  79.1460848  27.6787639
  47.9942703  79.3444824  27.9480624  46.5492010  79.5986414  28.3197713
  37.0842133  11.8097414  56.2195730  36.3207588  12.3830999  56.2876940
  37.7925644  12.3869718  55.9344625  91.6643404  53.6649240  60.1616526
  91.5055727  53.2244314  60.9965086  90.9837507  54.3361486  60.1117754
   8.9587936  22.4967969  56.5435791   9.4971523  21.7937482  56.1801052
   9.5420990  22.9579462  57.1463442   6.9731150  24.2059720  10.5022025
   6.0791884  23.8642229  10.4839551   6.8659267  25.1518167  10.6028688
 100.8344005   0.4235471  74.7146034 101.7069076   0.8165754  74.7368002
 100.2657293   1.0799230  75.1171112  83.0579780  34.1394819  56.3073778
  82.4863504  34.5757211  55.6755781  83.4806703  34.8552240  56.7820120
  81.7871380  94.8212814  73.8990211  81.6568470  94.1066360  73.2756853
  81.5637589  95.6116199  73.4073973  93.7497734  19.6256364  83.3582020
  94.4501804  20.0891794  83.8173199  93.3033775  20.3054822  82.8534508
  54.6107864  97.0794868  33.8844967  54.5899248  97.8134441  33.2704067
  54.3126392  97.4526787  34.7139955 107.7689813  21.9017137  70.4578638
 107.4603390  22.6786054  70.9241295 108.6097072  22.1651758  70.0836945
  87.3346828  13.6524213  61.4956331  86.6445183  13.0072797  61.3416910
  87.5465845  13.5594572  62.4244404  84.7759724  98.8621140  73.4067011
  84.4697571  99.7083855  73.0806875  85.5700970  99.0684605  73.8996696
  79.6278070  18.2005895  42.5307751  79.4626020  18.9865983  42.0100784
  80.5624794  18.0291570  42.4157476  85.7935165   0.1839460  36.7462492
  85.3241514  -0.0473677  35.9447360  85.2066635   0.7875741  37.2017384
  38.4821209  95.7799713   4.4290979  37.6221880  95.5512897   4.7818716
  38.2920488  96.2151710   3.5980089  94.8697017  34.2529405  53.3245754
  95.1795887  35.0074781  52.8237009  95.3571485  33.5111154  52.9663610
  82.5259851   1.1560358  25.5638742  82.3588203   1.3008703  26.4951682
  82.5945305   2.0358671  25.1931667  78.9860796   5.6329263  39.4354248
  79.0551447   5.0868047  38.6523485  78.0768369   5.5332578  39.7175169
  85.9778309  99.1442108  63.1297302  85.6367111  99.8960972  62.6454449
  85.5062580  98.3932304  62.7693319  72.6969385  75.3750706  51.3370705
  72.8131866  75.4135847  52.2864056  72.2591686  74.5378733  51.1831474
  11.1615238   8.4270109  63.9922810  11.5853748   7.9620374  64.7136593
  11.8481216   8.5217107  63.3320951  70.7444428  10.5674089  74.8578548
  70.4004811  10.0924695  75.6143904  71.5814422  10.9218706  75.1578903
  11.0085354   3.6920560  50.8496475  10.1891289   3.9333261  50.4176807
  10.7379494   3.1510747  51.5915012  39.5929871   1.9552339  51.6934013
  39.5477829   1.9830144  50.7376719  39.6321831   2.8742612  51.9581413
  19.0437063  50.1288406   0.4065473  18.4134325  50.8463184   0.3415258
  19.8044809  50.4327575  -0.0885241  89.9096394  91.2047100  55.4033756
  89.9263287  92.1158218  55.6963634  88.9857864  91.0266685  55.2271891
   2.5450169  87.4566746  42.9294157   1.9286381  88.1605053  42.7271223
   2.1304928  86.9733334  43.6440992  92.1928047  17.1962751  61.9761515
  91.9064831  16.4429868  62.4926853  93.0657600  17.3992837  62.3122549
  72.0520639  98.3047676  55.0652695  71.3371181  97.6690197  55.0350142
  72.3907852  98.3270550  54.1702843  44.8165274  92.3951912  52.8301907
  44.9411058  93.1409740  53.4171534  45.5343294  92.4633694  52.2006321
  99.9864029  28.6373342  56.1570454  99.2284940  28.0984701  56.3838243
 100.7059549  28.2653917  56.6670799  77.2242880  85.2822590  45.8722878
  77.8211880  85.9553814  45.5454063  77.0849276  84.7018623  45.1239920
  37.5001106  17.4863065  19.1177678  38.4313545  17.4706472  19.3386114
  37.0604096  17.6737989  19.9470687  67.1167611  24.8584379  62.4344540
  67.0901250  25.6125368  61.8455172  67.9546069  24.9398626  62.8901005
  54.3071079 101.7201614  59.7855282  55.1232910 102.2189426  59.7495365
  54.5818520 100.8253956  59.9858570   4.0910111  28.5550798  48.4376717
   3.8581524  27.7304185  48.8642120   3.6662827  28.5099519  47.5810528
   5.7182751  32.7106298  19.7965658   6.5986548  32.9910959  19.5465529
   5.6788359  32.8591932  20.7413435  50.0850544   0.5611814  72.6668882
  49.5700035   1.1342443  73.2348156  50.4093609   1.1380018  71.9752741
  82.4753189  64.5947313  48.7234402  82.0159721  64.3995762  47.9066467
  83.3734989  64.7859049  48.4533262  87.4689792  60.9065355  29.2257214
  88.1898474  61.2460626  29.7561097  87.2679352  60.0542558  29.6122813
  48.3828806   1.6693700  42.4175644  48.6885201   1.4628137  41.5343046
  47.8968250   0.8913721  42.6908779  68.1915020  16.9963468  74.1262436
  68.8536357  17.3551191  73.5354042  68.0013727  17.7103532  74.7347546
  18.2253323   0.2685274  56.8882704  18.6931953   1.0811914  57.0804071
  17.9218636  -0.0406634  57.7418137  60.8951521  72.6254463  30.4747200
  61.0164928  73.5507822  30.6874681  60.3186083  72.6289654  29.7106433
  99.9401544  26.6488088  38.9795351  99.0488647  26.6459955  38.6305070
 100.4946064  26.8236459  38.2191086  14.8141918  15.1349271  78.1913900
  14.3543491  14.8565210  77.3993874  14.8310814  16.0903276  78.1352139
  84.2924999   0.3558935  46.9918060  84.6635555   0.5756677  47.8463507
  83.5971712   1.0003293  46.8597031  96.7224764   8.4151758  73.2460117
  96.8375896   7.6842130  73.8531876  97.5267481   8.4244264  72.7270794
  83.1337284   4.7959913  68.0505228  82.4753927   5.2178110  67.4983501
  82.8217386   3.8966192  68.1506348  43.9911890  98.6412430  66.0846424
  44.6762371  99.0447998  66.6176414  44.4670057  98.1486893  65.4158974
 105.0685905   3.6326421  24.7202492 105.5893062   3.8390077  23.9440393
 105.6224083   3.0412305  25.2299047  34.6637306  17.5315393  31.3344955
  34.6008358  18.4826768  31.2472296  35.0044212  17.3941244  32.2183919
  31.5659937  66.3487712  17.4677236  31.5604099  65.4367534  17.1771486
  31.9311985  66.8337051  16.7276533  94.7478030  51.9070522   4.1014059
  95.5143306  51.5022270   3.6954744  94.5592330  51.3552085   4.8604448
  14.7541485   0.9903158  44.6511841  15.4613934   0.7903779  45.2644157
  14.0892944   1.4245046  45.1856756  99.5268463  14.1859926  47.7905130
  98.6579107  13.7861074  47.8261042  99.8725628  14.0870393  48.6775970
  11.1211548   9.6734918  49.1097403  11.1678276   8.7854780  49.4639635
  10.4685173  10.1143659  49.6537352 101.1217140  41.8162073  67.5119257
 100.5307649  41.0825170  67.6813221 100.8158706  42.5099386  68.0962515
  85.2663540  20.3590883  43.6499596  84.6733640  20.0671590  44.3423271
  85.5241846  19.5543493  43.2003450  60.2737665  86.2822819  49.9404430
  60.8485889  86.2128925  49.1782141  59.9617481  87.1870422  49.9235487
  91.9753193  21.0864271  60.4777193  91.9029163  20.7189191  61.3585854
  91.6888307  21.9947828  60.5728817  67.2110580   1.2310518  49.9587727
  66.2841629   0.9980405  49.9058294  67.2540258   2.1225847  49.6130085
  72.7356337   3.3964075  61.4755726  72.4083756   2.6074232  61.9075871
  73.6858534   3.3509267  61.5816307  89.0511799 102.4939728  81.1576366
  89.9271679 102.3301220  80.8083153  89.1881084 103.1317616  81.8581486
  59.7870182   4.2037309   8.1137401  60.3309869   4.9646486   7.9104137
  60.3400110   3.6559785   8.6708754  80.4136871  18.7416471  38.9391136
  80.6691240  17.8256143  39.0480042  80.9132360  19.0409196  38.1794286
   5.4683790  10.6468595  82.5657749   5.4946384   9.7653402  82.1936703
   6.3207207  11.0241903  82.3481274  82.6694797  30.1995862  69.3281126
  83.3048366  30.0379861  70.0255632  83.0968307  29.8759569  68.5351038
  96.7428564   3.9507879  29.7606683  96.8707012   3.5721124  28.8909054
  97.3964666   3.5170186  30.3091860  82.2675918   0.1980222  58.5249281
  81.3758348   0.5338491  58.4342766  82.5136207   0.4115976  59.4249773
  87.0807956  13.0574811  50.1807690  87.1092008  14.0087236  50.0780058
  86.4637588  12.7625478  49.5110607   5.3008184   4.6753610  73.5031414
   6.1847887   4.3219388  73.6027384   4.9619446   4.7283090  74.3967819
   9.9026642   1.3037122  75.9819698   9.0206871   1.6753114  75.9659624
   9.8023853   0.4683984  76.4385080  63.2435321  11.2879575  32.0075536
  63.1983279  11.6571725  32.8895211  63.5464858  12.0122255  31.4599371
  92.2703193  11.8861402  39.7726679  92.7462028  12.3721040  40.4461718
  92.9176067  11.7351354  39.0838647  49.8832989  97.7364731  50.6673193
  50.6254864  97.5977230  50.0789833  50.1987886  98.3781528  51.3036680
  97.3906349   7.3410238  48.5183573  96.5423750   7.0231832  48.2090712
  97.5964044   8.0756868  47.9402828  68.1731796  74.5469856  40.2301741
  68.2104111  75.1035500  41.0080433  68.1713009  75.1612186  39.4960475
  22.9272232  23.3746923  14.2649055  23.1725464  23.9230932  13.5197139
  23.6301384  23.5066713  14.9010885  66.7167950  83.3000278  32.6908040
  66.7671537  82.4231243  33.0712676  66.8844414  83.1663418  31.7579293
  24.3211994   2.4765123  64.4540358  23.9215717   2.9287828  63.7110853
  23.5912666   2.0309080  64.8839903   9.2345390  17.3143114  41.4569902
   8.4845123  17.4930776  42.0242119   9.8155270  18.0642236  41.5846920
 106.3738989  38.0768026  30.7473087 106.6556667  38.0020441  29.8355794
 106.3794588  37.1771825  31.0742450  16.3853989  15.4642118  48.0692911
  15.8046303  14.8638929  48.5368013  17.2123013  14.9879087  47.9945374
  20.9692249   4.3857206  70.8240986  20.7984886   5.3221334  70.9251213
  20.1001034   3.9861215  70.7898140  97.0209122 100.2229404  51.8385792
  96.6627884  99.7588921  51.0818481  96.8294716  99.6517277  52.5824165
  22.4348283 101.6018963  35.9219980  23.2985926 101.7172813  35.5259824
  22.3517036 100.6561565  36.0440588  49.6802664  78.6478949  46.5464115
  49.4746447  78.0601120  45.8194590  49.7401714  78.0731821  47.3095274
 108.4910845   4.8251260  37.8155112 109.3463682   4.5145429  37.5184226
 108.6474537   5.7274641  38.0940485 106.8985294  36.6476453  53.6768293
 106.1338686  37.1772588  53.4509230 107.4655269  36.7053617  52.9077959
  15.0358830  34.9077333  48.8675547  15.1293716  34.8760618  47.9154587
  15.0486527  35.8413042  49.0785503  73.5716842  25.9654058  44.5003176
  73.8053488  25.9798063  43.5721874  74.0800880  26.6786493  44.8863888
  26.6692718  45.6292240  18.4001119  27.1222195  46.4519016  18.2149847
  27.1723398  44.9669353  17.9262598  17.9723320   8.2667554  60.5096388
  18.6600742   7.6586259  60.2386618  17.7367458   8.7343610  59.7083473
   9.7878323  11.1110414  58.9708567   9.0776692  11.7468275  59.0584850
   9.7959671  10.8878149  58.0400896  79.1743301   2.1504606  15.6178689
  78.2282947   2.1259798  15.7615519  79.2923664   2.7801622  14.9066877
 104.2656778  29.7448743  39.2472744 103.9367746  29.3050683  40.0312567
 103.5058473  30.2097238  38.8968468   3.0395279   2.3885454  74.1920805
   3.3958302   2.8239740  74.9664736   2.1972904   2.8179468  74.0421057
  62.7716923  91.1387539  58.3286047  63.4106970  91.3116074  59.0199995
  62.2669554  91.9492435  58.2608843  25.2800713  53.9082540  47.8502178
  24.7299919  53.1281103  47.9210424  24.6592770  54.6335042  47.7804422
  93.1306719  22.9094041  74.1404438  92.2619604  22.6216520  73.8597822
  93.3007215  23.6969102  73.6235762  81.1810898   5.6141771  41.0631180
  80.3707050   5.6736291  40.5571795  81.2463688   6.4577020  41.5108109
  88.8647484  21.1899580  61.0876656  89.7915529  21.1851800  61.3269234
  88.4334778  21.6477979  61.8092012  77.6238083   7.5046934  51.1865187
  77.2182630   8.3638586  51.0699558  77.9928945   7.5318254  52.0692778
  72.8553365  33.7637628  40.7669926  72.0122551  34.1724695  40.9629631
  72.8451203  33.6366189  39.8183322  90.1359749 102.2844696  59.4655418
  90.3766823 101.4681053  59.9035311  89.4564247 102.6638889  60.0227547
  78.8513731  25.3437437  31.0468292  79.3785309  25.9200395  31.6001987
  78.1382393  25.8997167  30.7328796  50.2068138  95.2714348  62.0349264
  50.6177425  94.5635986  62.5312614  49.2922211  95.0029469  61.9473505
  60.7353210  98.1292152  44.4040918  61.2227011  97.6261806  45.0565100
  60.9654617  99.0408230  44.5836449  86.3667107 101.1722374  69.2837763
  85.8368969 101.6260338  69.9392128  86.1715126 100.2448559  69.4182825
  55.9566689  85.7443714  74.5222235  56.5084696  85.3549862  75.2005529
  55.6587601  85.0000381  73.9993048  65.0937437   3.4217752  37.4944377
  64.8821639   2.5863851  37.0777822  65.0439976   4.0625776  36.7851281
  84.3260479  86.4320660  40.0893164  83.3961773  86.2479019  40.2221966
  84.6021461  86.8655682  40.8968306 101.6709303   2.7936090  71.8193293
 102.1688532   2.7656854  72.6363468 101.4789270   1.8763460  71.6243887
  22.7698803  27.1076584  60.7534981  23.5595775  26.6105247  60.9667349
  23.0557942  27.7403760  60.0945950  88.8934411  19.5878780  56.3384104
  89.6584536  19.8392773  56.8558884  88.9861168  20.0769019  55.5207920
   2.4446012  85.8128988  38.8218713   2.7290512  86.1072444  37.9566073
   1.5819956  86.2110137  38.9386868  13.2726920  10.0738633  36.3092756
  13.0129015   9.2326283  36.6848636  13.7168241   9.8447424  35.4928923
  59.5948400 101.6817271  38.2250929  59.1317203 101.0356670  37.6918411
  58.9156356 102.2988778  38.4971905  32.9383874  17.2399116  26.9571400
  32.8730154  18.1863618  26.8298936  33.5313416  16.9456768  26.2657189
  52.9965916  94.9371563  28.9635921  52.7869000  95.1067703  29.8820090
  53.8912990  94.5974087  28.9809871  82.3931421  24.6538043  59.1166592
  82.4443163  23.8145137  58.6592722  82.3740328  25.3069806  58.4172106
  87.6011887  91.2908291  12.1095240  88.4936621  91.5936445  12.2769284
  87.3104765  90.9279834  12.9462206  75.2267050  86.5834736  39.0074921
  75.0483542  87.1644913  39.7469783  75.0704984  85.7037829  39.3509674
  10.8258641  41.0723448  39.6127868  11.4345813  41.6764784  39.1876793
  11.1551130  40.2023363  39.3871474  65.0038584  78.1314408  43.2903957
  64.5749071  77.6568257  42.5783730  65.8424767  78.4092914  42.9219532
  99.7209396  75.2419578  64.6645927 100.4117694  74.5848547  64.7494602
  98.9179649  74.7770392  64.8997784  15.5083370  11.9120491  13.3499312
  16.2441790  12.0351303  12.7502489  15.5428469  12.6722229  13.9305997
   2.8344962  17.7329624  28.1829715   2.7356741  18.5049868  28.7401462
   3.0333316  17.0218527  28.7920833   7.2815442  28.8299274  63.7042618
   7.4370372  27.8860927  63.7392902   6.4907604  28.9619613  64.2271948
  10.5984616  18.8407564  29.6958280  11.4927781  19.1808510  29.7234988
  10.7029355  17.8896761  29.7234631  20.9386073  65.8841434   1.1891897
  21.1440443  65.1188090   0.6522615  20.1534568  65.6319907   1.6751917
  23.0459785   8.9914906  65.8474159  23.3981466   9.4940305  65.1127958
  23.7518406   8.3910513  66.0871267  10.4907395  65.0405180  72.7760506
  11.2732102  64.7697722  72.2957706   9.9370695  64.2598497  72.7914381
  22.1754408  13.2502937  61.2777996  22.3093700  12.9685521  60.3728580
  21.8073750  12.4827862  61.7156219  21.0526180  17.1006846  69.3862200
  20.2110004  17.3408270  69.7738314  21.6393042  16.9936419  70.1349354
  75.7305087  18.2210088  19.6366441  75.9015025  19.0798473  19.2501342
  75.9471143  18.3277822  20.5628800  26.2279536  89.8083567  35.9602118
  26.8636919  89.6202337  36.6506267  25.4632260  90.1481794  36.4249110
 105.6152573 102.0431474   3.8403171 105.0719657 101.3526397   3.4604958
 105.0865378 102.3980611   4.5549667  17.5378728  21.1978436  40.4884338
  17.2986722  20.3058672  40.2366590  16.7007768  21.6513133  40.5877686
 102.9711653   1.4035991  28.2208872 102.5718309   2.2510695  28.0245233
 102.7201123   0.8444268  27.4856782  12.8484881   4.0871266  13.9448619
  13.0327594   4.7110328  13.2427096  11.9043803   4.1574562  14.0860963
  94.9782230  15.0161409  61.3283443  95.1188720  15.3967166  60.4613876
  95.3944803  14.1554105  61.2824774  30.3616881  28.3984828  43.5808754
  30.3621030  28.8306403  44.4349670  30.8192182  27.5711894  43.7308216
 100.6226602  92.5772761  51.8298578 101.5297165  92.4453758  52.1056938
 100.4965367  91.9532656  51.1150599 103.2315750  14.6774745  48.4515381
 103.8911737  15.3441226  48.2598591 102.6106669  15.1153231  49.0337706
   6.5166426  56.0584831  25.3301525   6.3413537  55.4522896  26.0498977
   7.1945870  56.6430712  25.6690931  11.6232061  19.4303536  51.4547205
  12.2529888  19.3823647  50.7354832  10.8279669  19.7811246  51.0537386
  98.0818334 102.6342987  82.6431370  98.9463201 103.0442328  82.6139641
  97.6922622 102.8360354  81.7923927  84.6100367  57.6904440  42.2379637
  84.9017585  58.5362196  41.8976879  85.4179562  57.2390509  42.4823809
  15.6908965  27.4344444  28.2494593  16.1987388  27.0583153  27.5305343
  16.1327124  28.2599020  28.4485817  99.6551504  91.3517248  41.4450264
  99.6994820  91.8875896  42.2369337  99.0289774  90.6599866  41.6586542
  31.8307900  31.4854860  78.5982990  31.8430352  30.5514431  78.3893776
  32.2237945  31.9070315  77.8340530  38.8368130  30.4763627  65.9970045
  38.5041761  30.4770470  66.8945456  38.1018209  30.7880783  65.4689360
  12.1594560  71.3395596  63.6446905  11.7764306  70.7222271  64.2679310
  11.4516830  71.5278769  63.0283928   1.7962366  17.7123678  19.6256876
   1.2625805  17.5313437  18.8519478   2.1031682  18.6102986  19.5002162
  17.6521719  29.5242238  41.3541794  17.5794005  28.8043785  41.9808865
  17.4429989  29.1275978  40.5085039 105.2919368   6.4924979  23.5966086
 105.2373542   6.7074114  24.5277715 105.9248866   5.7757705  23.5529208
  25.3440261   4.4982201  46.8744946  24.8416424   3.7428030  46.5692282
  25.2519393   4.4780251  47.8270435  30.0268674  40.1045322  44.8713827
  30.1710391  39.1783285  44.6774864  29.8833418  40.1316786  45.8173704
  32.0572090  33.3355021  57.4535608  32.3604131  32.5915337  56.9331646
  31.1053538  33.2378078  57.4791861 107.4327524   1.3858035  53.7483358
 108.1358399   1.9894931  53.9880371 107.8414577   0.7725981  53.1374550
  54.7093383  87.6557954  69.6954172  53.9896325  87.5201925  70.3117518
  54.3439523  88.2311901  69.0233700  14.2682695  24.6459818  39.2160082
  14.1060948  25.3152561  38.5511756  14.0154278  25.0612330  40.0405502
   6.4075172  18.7114954  34.4693851   6.5432912  17.7656436  34.5256114
   5.9286690  18.9326262  35.2681589  22.6268387  42.9392099  69.3682098
  22.0385051  42.6707697  68.6624908  22.3287606  42.4427795  70.1304007
  12.2966743  19.2523944  65.4828405  13.1123376  19.7341609  65.6200504
  11.6297579  19.9325120  65.3885317  75.5139514  89.4415902  42.5767851
  75.3183214  89.5278536  41.6437721  74.8542067  88.8302874  42.9043198
  11.4649451  47.6822996  25.1237774  11.9626212  47.8639698  25.9209871
  10.9277630  46.9215298  25.3449154  19.0304542   6.9911844  43.8749933
  18.3931196   7.2423148  44.5435476  19.3461359   7.8225005  43.5207462
  96.9967295  12.4032795   0.5786262  96.2543155  11.9314480   0.2012295
  97.2475458  13.0342066  -0.0960997 104.9830831  42.2027397  34.0977788
 104.5860870  41.7250776  34.8261070 104.2436142  42.4521732  33.5435224
  50.8834686  88.2057332  32.5416565  50.7405963  87.5551437  33.2290816
  51.4876523  87.7815949  31.9323111  22.8142118  12.0992017  58.4418011
  23.7665772  12.1875751  58.4794903  22.5245070  12.8487849  57.9217768
  12.9733109   8.6981320  31.1680079  12.1365881   8.7293816  30.7041645
  12.9691339   9.4784451  31.7223763  97.5371423  78.3084761  26.9340587
  98.0261149  77.9441749  27.6719069  96.6181316  78.1808650  27.1693635
  25.4407501  17.6443613  54.7246742  26.2041855  17.1955502  54.3614006
  25.3394628  18.4243906  54.1792154  84.1743649  21.9447255  41.4834118
  84.9347366  21.6330075  41.9742250  84.4869555  22.0236111  40.5821371
  25.2841735  34.3679237  65.2833652  25.7800961  34.5047593  66.0905647
  25.7868576  33.7108707  64.8018885  86.2994471  94.2080550  23.6876416
  85.6194308  94.8810487  23.6578107  86.6396656  94.2507797  24.5813179
 105.8005466  81.9167983  55.9071589 106.7207971  81.7712723  56.1266947
 105.8252730  82.4357091  55.1031971  30.3905797  37.3863411  53.6244440
  31.2078166  37.1257782  54.0492535  29.9830294  37.9940534  54.2415476
  44.7086287   5.8586162   9.7783512  45.1230049   6.6304678   9.3926460
  43.7695694   6.0204703   9.6877748  10.1276338  40.8172894  28.0008435
   9.2528373  40.5195332  28.2504487   9.9897504  41.3186502  27.1971917
  20.7234240   6.8917745  54.5936632  19.9733078   6.3940793  54.9190187
  20.6810951   6.7943424  53.6423779  27.4540305   0.5914813  43.5289240
  28.2041049   0.6960530  42.9435301  27.4836111   1.3619798  44.0960979
  47.0389700  13.6017478  29.2161393  47.9880428  13.4922564  29.1569400
  46.6898012  13.0456030  28.5197067 103.5102947   3.7690052  56.8154669
 103.5147448   3.0201536  57.4116468 104.2019881   4.3422830  57.1458387
  58.6518526  15.5329645   9.4158643  57.8616953  15.5030203   8.8764352
  58.7248945  16.4492202   9.6830189  19.6350038  29.2308760  35.6824350
  19.0054309  29.7318244  36.2010098  19.1693723  28.4270763  35.4515171
  87.9607072 100.6240067  49.9065304  88.3094170 101.4047398  50.3367519
  87.1294119 100.4569103  50.3506708  11.3583910  21.7660117  17.8410459
  11.4856577  22.6627398  17.5313437  12.1755648  21.3185310  17.6214540
  15.6089163   1.5934867  19.7136557  15.9327698   2.4392629  19.4037962
  16.3833511   1.1550039  20.0660968   2.4496219   0.2217806  38.0741501
   1.8299103   0.2346374  38.8035512   1.9102430   0.3772761  37.2988296
  22.2092199  44.9132299  60.5973148  21.7979980  44.0837574  60.3541946
  22.6863694  44.7167683  61.4035177  21.4660525  18.3315098   7.9886138
  22.1108127  18.3594739   8.6955315  21.4660239  17.4187195   7.7004367
  22.8214884  11.4247990  73.1056833  22.6371598  10.9900761  73.9383125
  23.3606815  10.7985067  72.6227140 109.2319460  22.0901895  53.0003071
 109.1071057  21.8758416  52.0758057 108.5882979  21.5512276  53.4601641
  28.0045438  12.8481293  54.6373177  28.2175946  11.9825065  54.2886972
  27.0753717  12.7942610  54.8608541  10.6820416  26.4167762  50.1882029
  10.5389404  25.7562304  49.5103836   9.9426645  27.0177794  50.0968456
  31.7281675   3.6754453  32.8697348  31.9780993   2.9070234  32.3566151
  32.5581431   4.0333557  33.1848121  82.2744025  22.0166492  58.1820345
  81.8888177  21.1417389  58.1363153  83.1332577  21.8792963  58.5817003
  38.5468483  14.0038633  66.2632656  39.4059801  13.8867795  66.6687489
  38.7404752  14.2553365  65.3602171  29.9139810   4.9102134  58.1904411
  29.2078304   5.1238596  57.5805759  30.1365829   5.7456177  58.6012697
 102.6837840  89.9358939  58.8990068 102.3952689  90.4878913  59.6258450
 102.2777834  89.0857159  59.0680933  83.6855140  98.5455596  46.9105053
  83.6964705  98.7801321  47.8384542  84.5709028  98.7408560  46.6036224
  76.3752521  10.7995009  72.8968000  77.1030344  11.2521088  73.3230782
  75.8224739  11.5027475  72.5560474  18.5117459   2.8803331  71.1800623
  18.4543788   3.5050678  71.9030046  18.6934817   2.0409495  71.6027212
  94.6916426  44.9139500  26.8982124  95.4837681  45.4364395  27.0237970
  94.3855787  45.1496792  26.0224319  20.7533480  65.0269090  34.8262930
  20.6151940  65.5090367  34.0110016  19.9143482  65.0841271  35.2834988
 108.4051778  21.1634445  81.0378170 108.1293509  20.2926230  81.3238621
 107.7153144  21.4483762  80.4385376  94.8185148  98.0329492  35.7897377
  94.8717084  98.9832177  35.8916783  95.1899972  97.8637754  34.9239349
  12.7194524  23.0264020  60.6322908  12.5199807  22.5473595  59.8279524
  13.5901809  23.3945298  60.4821396   1.2527768  41.3614750  70.8225536
   1.7582928  41.6534948  71.5811110   0.4593669  41.8965578  70.8430767
  17.7378964  36.3974857  54.8049927  18.2007110  36.3142633  53.9712620
  18.0580378  37.2199202  55.1755905 105.4365722  32.8959298  24.9876809
 105.1042367  32.1415854  25.4742503 105.5711121  33.5701561  25.6536770
  52.2361469   6.9447786  24.6883488  52.5303936   7.4020457  23.9005947
  51.2875605   6.8720549  24.5828414  35.9179497  46.1270142  56.5660906
  36.8496013  46.2628889  56.7387056  35.5084729  46.1485672  57.4310160
  10.3132212  55.7305384  59.5372486  11.0541558  55.7982540  58.9350367
   9.5871723  56.1452150  59.0712786  10.9599662   0.4686155  32.6382971
  11.8847156   0.3205109  32.8361273  10.5100906   0.3181084  33.4696770
  35.9551764  36.9794226  39.1143847  35.3809762  37.0798182  38.3551431
  35.8765030  36.0559750  39.3537354   8.2414860  35.7911253  22.1376371
   7.8253633  35.7475638  22.9985523   9.1421527  36.0588837  22.3202229
  12.4480307  12.1595991  50.9723091  11.6039896  11.8213749  50.6732607
  12.9042959  11.3926792  51.3185596  91.5233817  94.0195220  46.7845774
  91.4015808  93.6253678  45.9208393  92.4533584  93.8965498  46.9749784
  96.5884067  20.4059458  24.6700406  97.4745978  20.0487232  24.6126866
  96.3281788  20.5482888  23.7599564  26.1456585  22.2924638  56.7092133
  26.0463715  23.2319045  56.8635654  25.4027939  22.0615506  56.1514854
  29.0853953   9.4157362  28.1884789  29.4888473   9.9942535  28.8356066
  28.2652783   9.8512501  27.9561687  10.6467044  37.1881437  22.7450395
  10.9002841  37.8088975  22.0619607  10.2053010  37.7241468  23.4038997
  76.2647044  94.6013932  52.1661568  75.8508279  95.3006648  52.6720762
  77.1200546  94.9556707  51.9230604  21.0431123  35.3335452  10.3213537
  20.6586075  34.4583726  10.2717793  20.4188609  35.8403516  10.8406699
  74.7477041 102.7018073  43.0006409  73.8831488 102.7480793  42.5924301
  74.5903837 102.9173562  43.9198923  29.3231225  32.9761481  56.2626410
  28.8746715  32.3210192  55.7279205  28.6212420  33.5369277  56.5929794
  32.0088887  11.8223405  33.4762645  31.0544324  11.7624116  33.4356189
  32.3067355  10.9127474  33.4636950  93.3713092  16.2841308  33.7845659
  93.4322179  17.0012641  33.1535029  93.4044470  16.7137647  34.6392870
  32.8653002  31.1391544  55.3832293  32.2714138  30.8146453  54.7063065
  33.3384180  31.8571329  54.9626350  25.9045315  14.3795991  18.9305460
  25.5075932  15.1753569  18.5763693  25.6523466  13.6915934  18.3146870
   3.9082572  18.6370337  47.5480700   4.1559121  18.5016787  46.6334248
   3.2088250  19.2895520  47.5127792   4.7043711  32.5435376  54.3971825
   4.1250834  31.7953253  54.2528391   4.1399843  33.3085060  54.2852640
 106.0043588  83.7843071  58.6564350 106.1800327  83.1487977  57.9625320
 105.0584617  83.7334060  58.7939739 101.6462393  64.6678686  66.5256929
 100.8332152  65.1680231  66.5969038 102.0219530  64.9394655  65.6882524
 102.7640850  61.6889620  56.5504169 102.9968495  61.3073397  57.3968315
 102.0987673  62.3449898  56.7582989  51.4534950  10.8345544  19.7782159
  51.7405081  10.1612961  20.3951263  50.8239555  10.3879762  19.2121100
  19.8575187  22.3875022  25.5545425  19.6564662  22.5096369  26.4823842
  20.1242876  23.2552290  25.2510357  48.7398863  14.1741037  45.0321770
  49.6575165  14.4464481  45.0285721  48.2475138  14.9901128  44.9431181
  95.1485337  22.8831124  56.0655689  96.0157789  22.6244974  56.3773918
  94.7259129  22.0593643  55.8225441  49.4996834   5.2583522  61.7675447
  48.6946058   4.8441321  61.4568853  49.9893093   5.4585111  60.9697723
  78.6895689  78.4550439  59.6384430  79.3624386  79.0390526  59.9883175
  78.1514432  79.0166914  59.0805864   9.0569437  39.5560288  43.1005001
   9.4118357  40.3928280  42.8004169   8.1542736  39.7542644  43.3497429
  25.1624393  23.0684781  49.0734482  25.9482050  23.4780073  49.4355106
  24.4716501  23.2784891  49.7018909   9.7104746  15.7661295  72.9178715
   9.1724080  15.5091321  73.6666489   9.2996162  16.5665674  72.5911808
  36.8962455  58.3227873  23.1063056  37.2954702  59.0570164  22.6396585
  37.2079897  58.4133387  24.0067768 102.9901571  19.5062292  45.3657770
 102.3344321  19.3809450  44.6798038 102.9830493  20.4483771  45.5347109
  30.0071692  41.3095808  22.8271723  29.9650478  41.8527699  23.6141944
  29.1060138  41.2837172  22.5054908  33.3499765   4.3554008  17.3751593
  33.6080813   3.9926377  16.5278006  33.3963823   5.3037488  17.2538567
  69.7612476  21.4590287  65.5899048  70.6832361  21.2096763  65.6531572
  69.6917009  22.2550035  66.1169863  39.0660024  37.6852036  51.9797850
  39.3199825  38.6079121  51.9981766  39.7841072  37.2303081  52.4198151
 103.5704436 101.2466780  43.0409384 102.6414957 101.0428183  42.9326487
 103.6813083 102.0945803  42.6108217  23.1896377  20.8120370  48.5583496
  24.0111589  21.2975764  48.4836340  22.7135611  21.0217261  47.7548504
  95.0381471  25.8770180  26.7736077  94.7868217  26.1643529  27.6513910
  94.4883956  26.3948512  26.1855149  72.9070659  95.7785856  39.9498367
  72.5636369  95.7866769  39.0564036  72.1457061  95.5868213  40.4973698
  22.0844626  17.3919678  52.5117111  21.2092352  17.0791793  52.2828674
  21.9724512  18.3312535  52.6580954   2.7013518  95.4200869  15.0646961
   2.4034597  94.5116757  15.0169253   2.0132138  95.8724611  15.5526066
   3.4918118   0.2100152  48.3804035   2.7142191  -0.2988343  48.1509399
   3.7290055   0.6629962  47.5712204 104.6075239  95.8332973  42.1481562
 103.8652506  96.1068057  42.6870918 105.3139439  96.4313280  42.3922062
  90.5679072  63.4483862  64.1860771  89.8203493  63.8804770  64.5992231
  90.4914726  63.6723709  63.2586002  13.2558060  19.0149665  60.6703949
  13.1905150  19.0101027  59.7154379  14.1766787  18.8238859  60.8484840
  24.3452778  72.2396671   6.8772882  24.5988407  72.3922740   7.7875900
  23.8818111  73.0369627   6.6208720  33.2677722   3.4858698  53.5714293
  32.5366759   3.9189529  53.1307840  34.0435410   3.7809783  53.0946445
  85.3380897  71.2699830  35.2369714  85.0969996  70.3623377  35.4221320
  85.5806222  71.6320120  36.0892296  20.2993417  42.5368500  18.4001529
  19.8943126  43.1919241  18.9685369  20.8681107  43.0423689  17.8194785
  25.8385849  32.0084548  86.3894653  26.2481546  31.5370512  85.6640244
  26.1387968  32.9116821  86.2880516   1.5271239  16.6550887  55.5595827
   2.4568254  16.6373718  55.7866764   1.1366859  15.9639883  56.0945272
  10.8949220  19.5627105  78.7350702  10.8091247  19.8938632  79.6290541
  11.1342359  20.3311515  78.2169437  88.7712706  12.8469145  56.9073582
  89.4933022  13.2215714  56.4028454  88.9334239  13.1330073  57.8062963
  24.8073506  10.8280098   1.9352113  25.5339837  10.3039050   2.2721829
  25.0315118  11.7281091   2.1714368  91.1725224  14.3351686  17.2328615
  90.4950453  14.0230989  16.6329706  91.8882288  14.6140289  16.6616940
  69.5584133  95.5157267  20.8833861  69.4365227  94.5743226  20.7603693
  70.2429243  95.7524078  20.2575612  60.9313536  20.4417872  31.9040298
  60.5814075  20.2824926  31.0274482  61.6143227  21.0996008  31.7733741
  41.1196423  24.1879082  54.5229006  40.2556324  24.5811105  54.6458244
  41.5304756  24.2377853  55.3860092  70.1430834  19.4869137  42.0113277
  70.2567805  19.7436845  42.9264116  70.7931031  18.7979519  41.8733501
  14.8179543   6.6225338  30.4674268  15.5273485   6.8346459  31.0740590
  14.0799737   7.1535480  30.7668257   8.0175126  44.8607826  44.7338915
   8.1097364  45.0822067  43.8072348   8.4628379  44.0183210  44.8243141
  17.1950614   0.2669972  78.3245802  17.9585028   0.3329492  77.7509594
  17.0212257   1.1681470  78.5965014   3.3701345  34.8531795  54.7514820
   3.1944355  34.5970488  55.6568861   2.7934813  35.6016278  54.5980978
  81.6554943  58.5868152  87.3933005  82.0519320  58.6886527  86.5280275
  81.5529743  57.6411196  87.4999845  30.0766301  21.4408636  49.1418362
  31.0292602  21.4926457  49.2196035  29.8483610  20.6042719  49.5471001
  50.5399513  38.3219337  55.4961824  50.9163666  38.5458565  54.6450615
  49.9292850  39.0349483  55.6830597  81.5423181  93.4954714  80.3623295
  82.1631011  92.7691959  80.3041458  81.2505724  93.4887343  81.2739563
  16.2312758  18.7988961  39.8305750  16.5218973  18.1951451  40.5141354
  15.3219998  18.5511827  39.6629786   9.6541923   3.4095082  35.1938438
   9.7423792   2.4788037  34.9883080   9.8759580   3.4716767  36.1229205
 103.3179321  93.2577299  17.6748514 102.6894917  93.5575288  18.3316720
 104.0439715  93.8783847  17.7371836  82.8996434  71.1723339  71.1418962
  83.3954956  70.5104410  70.6599617  83.5024824  71.9114410  71.2227583
  58.4113073  12.4207556  64.2821074  57.5312376  12.2044647  63.9739943
  58.7681580  12.9945385  63.6041212  42.5266314  22.1185184  49.2501926
  43.2651281  21.5116739  49.3011189  41.7716122  21.6009808  49.5300722
  21.9637537  16.9747841  34.7053456  21.5889621  16.1570919  34.3780184
  22.1316147  16.8070138  35.6326580 107.5394603  42.9327154  68.6010218
 106.7862378  43.4597731  68.8676596 108.2996305  43.4408855  68.8841105
  23.7230587  13.1143439  39.6767426  24.0584755  14.0095770  39.6289253
  24.0300107  12.7001691  38.8702250  46.5050030   7.5189441  16.0738730
  47.1914625   7.3452914  15.4297853  46.8078661   7.0826799  16.8702281
  91.8633045  22.9475260  57.2137308  91.4484144  23.7214088  56.8326807
  92.2591366  22.4963427  56.4680910   8.9432026  60.0440346  31.2360907
   9.2132879  59.7785794  32.1151900   8.2158066  59.4597041  31.0223341
  96.6886535  94.5101022  37.9749036  97.5908461  94.6618973  38.2563925
  96.6700115  93.5884308  37.7172065  96.0405626  98.1991719  53.8407230
  95.3068700  98.8139286  53.8427830  95.6298509  97.3359119  53.8889980
  77.9776801  15.9641600   3.7581536  78.5256423  15.5112481   3.1171849
  78.5555113  16.1091483   4.5073682  20.0232291  40.6457615  20.7786274
  19.8838222  41.1069489  19.9515200  20.7432556  41.1173677  21.1974144
  10.5560374   7.7160782  33.7295747   9.9087501   7.3431879  33.1310725
  11.3884807   7.6322639  33.2645535   9.1866118  14.7109640  61.7298079
   8.4886515  15.3115046  61.9914055   8.7447912  13.8715672  61.6015863
  45.1887703  28.6115384  34.4953060  45.0449181  28.1371498  33.6764693
  46.1280823  28.7955236  34.5036840  32.7762270  56.4937067  44.0567636
  32.2261906  56.8257952  44.7662783  33.6560822  56.4587688  44.4320869
  43.4847403   2.9063195  34.2130375  43.9352369   2.7951044  33.3758283
  44.1814709   2.8609011  34.8678160  12.9336405  48.7719536  18.8681436
  12.1919107  48.3671570  18.4184682  12.5335741  49.3678665  19.5014453
   8.4698695  12.3795319  38.0647659   9.3222159  12.5281465  38.4742188
   8.3960623  11.4271057  38.0041814  39.0021086  20.1682568  82.9021645
  38.1156135  20.4643917  83.1087208  39.5694613  20.7096910  83.4509754
  16.5519416   8.8196635  67.9925299  17.4774694   8.7111747  68.2112980
  16.1604846   7.9659373  68.1773090  28.7337303  29.1905403  41.3769960
  29.4438028  28.7375093  41.8317413  29.0307093  30.0982833  41.3134432
  20.4505348  46.5156031  57.2608709  20.4222775  47.0379019  58.0625153
  21.0812688  45.8208227  57.4497890  57.9943577  66.2366375  80.5003111
  57.4052135  66.7479190  81.0550462  58.8721243  66.5043493  80.7725017
  32.3735595  46.2994194  57.8589582  32.2259331  47.1444798  57.4343252
  33.0864835  46.4629269  58.4764004 101.0000910  33.6487412  56.2768078
 100.2058829  33.1514978  56.4722919 100.8514203  34.0025234  55.3998995
 106.4416213  20.0783992  25.2905393 105.9858580  20.5523324  24.5949101
 106.7044259  20.7581854  25.9110665   4.4047573  60.0026178  42.1359396
   4.2185935  59.4336891  41.3890171   5.1734310  59.6103668  42.5500774
  30.8679485  43.8430929  42.0325613  31.0283566  44.1664982  42.9190779
  29.9175930  43.8905239  41.9286108  39.3868589  38.2233238  72.4605083
  39.2326188  37.3751259  72.8764391  40.1474619  38.5802102  72.9191494
   8.9080596  57.1207142  57.6812649   8.8351595  56.7904615  56.7858028
   8.8397044  58.0713129  57.5922632  98.5744525  48.3331966   8.7908125
  99.3755932  48.0373001   9.2230719  98.4765173  47.7468681   8.0405754
  10.2562511  63.4320450  41.0106039  10.3238380  64.3077660  40.6301069
  10.4280424  62.8391314  40.2790499  28.8509870  46.9867659  42.3075914
  28.5235667  46.2352371  41.8133879  29.6655321  46.6767073  42.7033377
  25.6046438  15.5487657  24.7696447  26.1380172  15.8060753  25.5216670
  26.2385249  15.3838682  24.0716243   6.3413709  25.4268932  36.5180945
   7.0992851  24.9333787  36.2046623   6.0293508  24.9313688  37.2752810
  49.4347715   7.3428035  43.7159061  49.2158699   7.3399228  44.6477365
  50.1767445   6.7425591  43.6423206  26.5164018  43.5376024  60.4166842
  26.1932683  43.2986355  61.2854242  27.4049711  43.8581038  60.5714512
  12.6635945  52.8717756  46.4058208  12.7209532  52.1107006  45.8281469
  12.5458145  53.6140585  45.8130550  14.0668726  35.5268908  29.9075961
  14.4449174  35.1995015  30.7237649  13.1570172  35.7262969  30.1281261
  34.5019031  63.4291458  43.8797712  34.2000699  63.6988258  44.7471857
  35.3790259  63.8048172  43.8038826   8.3161110  54.3848133  37.4098039
   7.9963547  53.6410618  37.9205155   7.9254532  55.1503611  37.8311777
  10.2079511   7.1133298  61.6979313  10.4535294   7.5333381  62.5222588
   9.3059492   7.3948658  61.5450811  86.5078081  38.2178116  26.5899086
  87.0392169  37.7820086  25.9236431  85.6065572  37.9833293  26.3685536
  21.0090137  38.9365649  43.8279200  20.3217077  39.4873452  44.2027378
  21.5471745  38.6818385  44.5774078  23.1321645  23.4456491  64.4802809
  24.0790153  23.4808826  64.3444014  22.8414965  22.7038693  63.9497089
  25.3038692  51.8417978  36.0558486  25.3170061  52.6924706  36.4945030
  24.3740869  51.6483545  35.9361959  11.8187594  79.2250538  31.5714860
  12.0937586  79.5543194  32.4271679  12.3290420  79.7358179  30.9430242
  28.5517168  35.3949714  33.3099723  29.4836450  35.2110195  33.4278846
  28.1071854  34.7041249  33.8012505  17.5044465  67.8737831  61.7636251
  17.8590560  68.7415504  61.9571733  16.6358399  67.8748369  62.1658134
  20.5681562  28.9122081  57.4897766  21.3444114  28.6938906  56.9740295
  20.8077478  28.6892509  58.3892870  18.7436318  13.4132171  35.8127356
  19.2386162  13.8101685  36.5294313  18.8825870  14.0018761  35.0708437
  11.3247001  25.2071977  32.8452015  11.6178370  25.3075719  33.7508655
  10.4142034  25.5024052  32.8540421  95.5991174  47.1404791  49.2271996
  96.2441612  46.4762592  49.4700289  95.3184928  46.8912029  48.3466625
  41.7094278   4.6722624  47.0541811  41.8329763   5.6008244  46.8573570
  40.9158087   4.6442387  47.5886106  89.2395856   7.3582193  88.6699230
  88.8367321   7.9614660  89.2944504  89.8345687   7.9058048  88.1576961
 104.4194083  21.3126206  40.9152889 103.7591435  21.9446445  41.1995935
 104.1324503  20.4807067  41.2918568  69.7818469  69.9717894   5.5910833
  68.9950727  70.4788115   5.3907163  69.4595050  69.0867474   5.7614477
  96.3352814  98.3868488  49.7234058  95.5037179  98.6266088  49.3144464
  96.4619555  97.4678283  49.4876337  47.1489859  51.8395233   7.7655697
  46.1935186  51.8827486   7.7275050  47.3779202  52.3046494   8.5702288
  35.0536537  55.8393621  40.7899904  34.9249363  56.5077877  40.1170349
  35.8371925  56.1220407  41.2615776  39.7689581   7.4752110  36.3542390
  38.9948487   7.2930884  36.8869829  40.2594709   8.1242985  36.8585348
   2.4052984  45.2391863  57.4392223   2.6797348  45.9127522  58.0614948
   1.6684583  44.8034048  57.8674698   5.6627470  37.2530723  37.4228501
   5.7646888  36.3022518  37.3806572   6.4643520  37.5976038  37.0292020
 101.6761961  96.7755233  31.3982892 101.0101690  96.0924595  31.3204312
 102.2696938  96.6161119  30.6644082  27.4853277  54.0175629  43.2794571
  27.5331259  54.9694872  43.1912184  27.9136848  53.8326883  44.1152620
  30.0135875   0.9610666  42.0466280  29.3605161   0.7771711  41.3714123
  30.6123734   1.5854549  41.6369629  19.7181213  22.2032905  12.4642837
  19.3290937  21.4862847  11.9634891  20.5232668  21.8333077  12.8263402
  18.5171723   4.5596293  58.1359863  17.7258730   4.1504312  58.4861755
  18.7863576   5.1794940  58.8138771  54.5300435  80.3834274  22.8338487
  55.0667797  79.6197012  23.0456789  55.1504527  81.0222819  22.4828680
  57.5167260   4.1797773  21.9308050  57.3796890   4.8483983  21.2596948
  58.2563183   4.5041934  22.4446066  10.3627741  55.2163410  54.4515324
   9.4835991  55.5946398  54.4645309  10.2270067  54.2882299  54.6423531
 103.6509491  27.4027610  41.1051750 104.2669917  26.9977808  40.4946709
 103.5851343  26.7788863  41.8281412  19.0447509  56.3992453  83.3921909
  19.7129524  55.7429743  83.5897923  18.9866638  56.4017582  82.4367523
  24.7919202  37.7172923  69.3973970  25.3663516  37.6398873  70.1591539
  23.9108896  37.5848222  69.7473526  47.4471807  32.0636463  39.2941213
  46.7951918  31.4456797  39.6246624  47.7079630  32.5707340  40.0629425
  29.6471572  35.0710464  13.6369467  29.2111802  34.2307258  13.4954774
  30.2610683  34.9049282  14.3523145   8.8239790  78.2642042  74.2979002
   9.7656752  78.1496297  74.4255972   8.6923577  78.1363260  73.3584547
  10.2231861 101.4885645  31.0724950   9.5650364 100.7935417  31.0763097
  10.0931765 101.9460974  31.9031525  14.4233859  10.7594848  40.3309774
  14.7430730  10.8031106  39.4297934  15.1707745  11.0313046  40.8636665
  25.1234698   5.4752332  39.0131044  24.9995136   4.5325366  38.9026928
  25.3588271   5.7897162  38.1402135  19.8168409  31.6343498  65.4465723
  18.9904594  31.2976050  65.1002693  20.3896761  30.8685112  65.4863453
  32.4493909   2.2852357  23.1822395  33.1717896   1.7081332  23.4298778
  32.1787143   2.6960158  24.0033531  30.3900552  54.2895412  39.3561530
  31.2214494  53.9225483  39.6567082  29.7276044  53.8503075  39.8895049
  14.7468650  27.2946930  32.3438311  14.0617466  27.3321033  31.6764140
  14.4454181  27.8899503  33.0301452  11.7022550  27.5118279  36.3946867
  11.6713548  27.8155160  35.4874659  10.9853876  26.8809700  36.4606333
  97.2681810  36.6013288  56.3870430  97.9937996  36.0618234  56.7011213
  96.4848531  36.0882592  56.5855074  37.7231574   8.1914222   9.2673749
  38.5893941   8.5981357   9.2885900  37.2360396   8.6990732   8.6183470
  41.3118410  26.0271645  14.9682438  40.7815313  25.2365875  15.0681782
  41.6470766  26.2034059  15.8473265  20.0159526  18.5015309  17.2220623
  19.5531487  19.0103686  16.5563834  20.4536319  19.1580248  17.7639890
  97.7115799  53.2419014   6.5964812  98.5056330  53.4313345   7.0963085
  97.0779039  52.9540157   7.2536016  29.4852519  60.3379917  36.6703343
  29.9920082  60.0236654  37.4190879  28.5932469  60.0355577  36.8408942
  11.4872754  66.0602474  32.7427554  10.7585859  66.5348244  32.3427248
  11.0704434  65.4494333  33.3505249  30.4061842  14.1211545  37.4377346
  31.0376573  13.4309423  37.2350502  30.2696848  14.0509844  38.3825493
  42.8556013   9.3441677  23.5901499  43.7731409   9.5682526  23.4348011
  42.3795366  10.1588607  23.4293103  27.6819038  18.9874411   2.5985810
  27.9936790  19.8079824   2.2168207  26.9362020  19.2438293   3.1411886
   9.9064153  67.2611570  38.8461518   9.7747862  67.9665232  38.2126236
  10.3437304  66.5704918  38.3481860  14.2167832  83.9741015  39.3356824
  13.3242537  84.0097546  38.9916635  14.7421385  84.4436156  38.6877704
  21.9202566  36.4408231  23.0531716  22.3280859  35.9299564  22.3539400
  22.0946622  37.3519158  22.8171134  25.8432937  30.1153731  58.7670422
  25.9730983  31.0460496  58.5847664  26.7178392  29.7883558  58.9778996
   8.4386790  16.0507715  30.3147030   8.8900727  16.2846410  29.5036650
   8.0109936  16.8606675  30.5928850  28.3007455  46.2779665  35.1832294
  28.7202907  47.0992708  34.9269629  29.0099192  45.7518339  35.5526757
  41.2146807  32.2172403  28.6899972  41.5655947  32.1892381  27.7998829
  41.9882345  32.1934986  29.2532706  19.7242868  14.1457629  49.5546007
  19.5961249  14.4586146  48.6590958  20.5949712  13.7481666  49.5471001
  91.3109971  41.2836170  23.9192533  90.9283079  40.4353666  23.6950707
  90.9421278  41.8900347  23.2770491  79.7803565 100.9873441  24.6278048
  80.5410268 101.3458732  25.0850463  79.4676038 100.2847098  25.1976490
   7.6098555  25.2729154  27.0920706   8.0902416  24.6270156  27.6100230
   8.0639565  26.0989666  27.2583818 108.7530958  35.2594399  14.3563759
 108.9308900  36.1890435  14.2133355 107.8080336  35.1742125  14.2305768
  49.0205097  13.2703769  17.5415993  48.5888624  12.4212968  17.4468577
  49.9341488  13.0550110  17.7289999  31.6172004  55.2615786  71.5371656
  31.2656093  55.6950283  70.7595158  32.1292162  54.5298815  71.1926508
  24.7521353  25.8251238  57.3150253  24.4990683  25.1590347  57.9541779
  23.9608169  25.9730577  56.7971802  26.1031818  23.1301045  63.8156223
  27.0595837  23.0930233  63.8033295  25.8566070  23.2567763  62.8994417
  55.0004482  34.3721724  41.2393284  54.7033072  33.6518955  40.6833220
  54.6467161  34.1681194  42.1050453  21.1200523  24.2744565  54.7191334
  20.2780676  24.4112110  54.2848635  21.0951972  23.3622146  55.0079727
  37.5313282  71.4605951  48.7187052  36.8131661  71.8599272  49.2096329
  38.1352806  72.1831846  48.5474443  43.4411383  39.9317288  53.7202930
  44.2428017  40.2787685  53.3289814  43.7467051  39.3512607  54.4173717
  16.9895220  34.4957566  16.2524104  16.4305186  33.8144350  15.8788478
  16.9091403  34.3791533  17.1990752  20.2369237  64.7613144  49.4095850
  20.6620479  65.5732298  49.6858072  19.8209691  64.9804068  48.5757875
  46.1641693  45.8789015  18.1342244  45.4503107  46.4692354  18.3753586
  46.9456863  46.2804890  18.5139465  88.5296405  84.6725178  45.3982162
  89.3020798  84.1388893  45.5848169  87.9705752  84.5617962  46.1672592
  32.0743418  63.3423138  31.2456131  31.3523531  62.7438021  31.0539126
  32.8565526  62.8764296  30.9500957  67.9572868  39.8569226   3.7899989
  67.4582577  39.0951395   4.0847605  68.1133080  39.6956182   2.8594780
  20.1058364  50.7640505  39.2467475  19.5922267  51.4217091  38.7777901
  20.9458375  50.7444954  38.7882209  40.5499649  20.1631927  18.6173081
  39.9138045  20.6582379  18.1011117  40.8195686  19.4469917  18.0423260
  21.6461062  72.0633459  40.6924820  21.4075589  71.1366177  40.6699800
  22.0845628  72.1773958  41.5356779  30.1506209  30.4005027  56.9506931
  30.8976412  30.9662890  56.7555571  29.5804477  30.4845238  56.1864424
 106.1390869  83.8688183  28.1954122 105.7479809  84.5864391  28.6937022
 105.4261331  83.2405376  28.0805492  69.8120239 103.1019815  60.0120687
  69.3692755 103.0282303  60.8575058  69.3876802 102.4441081  59.4612789
  42.3120117  26.4025664  47.2546530  42.3259783  26.7809939  46.3755465
  42.4001169  25.4602838  47.1112156  34.2816353  55.6645966  36.7974758
  34.1395402  56.4105368  37.3802423  35.1856256  55.7629776  36.4985609
  84.3466557  59.9637651  44.4765186  84.1666878  59.2140150  45.0437164
  85.3017319  60.0014067  44.4251156  47.3392725  23.0644250  13.6870360
  46.5279579  22.5565171  13.6813974  47.7986908  22.7907586  12.8931391
  53.0916119  43.7000895  33.0428576  53.6552334  43.7022877  32.2691894
  52.3319721  43.1782436  32.7843046  31.2099910   3.4935021  70.2486515
  30.4000592   3.3007070  70.7209587  31.0992169   4.3929246  69.9404287
  53.2179574  93.5266503  83.6670862  52.3499421  93.4946164  83.2648961
  53.1691662  94.2566689  84.2842753  43.5814810  28.0000758  52.8480625
  43.2821226  27.1143627  53.0533075  43.2650709  28.1598163  51.9589043
 105.8678321  14.1757226  29.8208451 106.2735588  13.4944880  30.3570700
 105.0049992  14.3076253  30.2137208  24.9310827  34.2973161  21.0694432
  24.6054649  34.4733024  20.1867008  25.7928634  33.9037466  20.9328103
  15.8545065  44.2584562  19.0173650  15.5049050  45.0236559  18.5607719
  15.2680469  44.1363955  19.7639573  54.0691519  28.3677626  33.1209421
  54.4340611  27.4889064  33.2243133  53.3131552  28.2471466  32.5463533
  31.2671900  36.7310333  40.7650948  32.1024776  36.8941474  41.2031841
  31.3843203  35.8846927  40.3335619  14.8591745  41.9978666  28.3846760
  14.3791032  41.8891096  27.5637388  15.0344574  41.1043310  28.6798120
   5.9288770  35.2881026  12.5303781   6.5494657  34.7164941  12.9824460
   6.4665157  35.7855296  11.9141448  21.3992071  21.5206337  56.5262461
  21.6371870  20.6369090  56.2458372  21.5177941  21.5106297  57.4760199
  99.5132829  52.7767897  67.9684448  99.8565633  52.6038265  67.0918179
  98.9404322  52.0323515  68.1525278  26.4936376  41.3279486  31.7786217
  26.8972206  41.3005257  30.9110975  25.5649281  41.1627007  31.6160679
   3.3156908  26.5876698  31.0902452   3.9925924  25.9212160  30.9724522
   2.5187522  26.1827326  30.7479763  24.5101643  92.6210499  19.3770850
  24.2021084  93.4565353  19.7282314  23.7817216  92.3019505  18.8443804
  90.7087781  88.1225108  40.1451492  91.0641434  88.8371800  40.6735373
  91.4782824  87.6293134  39.8608088  26.8825388  17.8235960  42.7625465
  26.3020325  18.5193908  42.4541426  27.7367043  18.0413580  42.3894358
  32.5837874  33.7886667  23.4656668  31.8562913  33.7390280  24.0857625
  33.2909489  33.2996941  23.8864470 105.2821137  31.2388229   1.8388301
 105.2897624  30.9441853   2.7495235 104.3603171  31.2033653   1.5833576
  57.8859854  39.4540000  32.1911883  57.8761864  38.4971333  32.1678805
  57.2914600  39.7167969  31.4885426  95.1013793  53.4134817  88.9345074
  94.6007992  53.4315395  89.7501850  94.9320174  52.5452948  88.5687256
  43.2915306  23.5874939  38.2408428  43.9569664  23.9761329  37.6730514
  42.5109959  24.1222715  38.0958986  24.7994542  33.8850951  46.5001249
  24.1360807  33.5191679  45.9150887  25.5402708  33.2831907  46.4284658
 104.1829092  41.4069653  77.4100304 103.4169931  41.9522572  77.2304106
 104.8212312  41.6639376  76.7446375  15.1699042  46.5855694  35.5146122
  15.3601348  47.3144388  36.1052012  15.6148016  45.8353806  35.9089565
  15.0565541  37.3399448  43.6239147  14.2856026  36.7768908  43.5543537
  15.1226938  37.5412416  44.5573664  99.6331598  74.7713709  48.4328890
 100.4227490  74.2361307  48.5122538  98.9899589  74.1905832  48.0264282
 100.8800807  98.5654267  19.0739274 100.5608621  99.2250904  18.4581554
 101.6911974  98.9355450  19.4222569  17.7298748  12.4367917  11.7967212
  18.6145818  12.5895190  12.1286833  17.8428614  12.3353839  10.8516371
  36.9569707  19.3194592  13.1926286  37.8298807  19.0342319  13.4626400
  36.5426517  18.5285830  12.8475404  31.9427180  41.5168428  39.5551372
  32.7219057  41.0860395  39.2037034  31.4986157  40.8347940  40.0589323
  59.7835662  95.7367848  46.8607473  59.9470916  95.1090150  46.1569023
  60.6499758  96.0764079  47.0848513  19.8813438  70.5360508  50.1510715
  19.4920170  70.9990025  49.4092321  20.3447437  69.7975159  49.7560263
  65.1564455  14.6190059  69.6349764  65.6909657  14.0472484  70.1859856
  65.1731920  14.2043650  68.7724066  39.9462819  48.5142946   9.3145573
  39.4532013  48.1461143  10.0477326  40.2189159  47.7527285   8.8027763
  60.9091711  36.5436649  31.0346889  60.8608150  37.4305630  31.3914871
  60.0133228  36.3463068  30.7613063  35.4205966  43.1681490  28.9039183
  36.2839580  43.5814142  28.8968778  34.8318028  43.8489962  29.2294955
  39.4823050  41.3400221   2.3807555  40.0015497  40.5854225   2.1029036
  39.9687457  41.7066956   3.1191024  31.0017776  29.8393846  30.5643916
  30.4782820  30.0978613  31.3229275  31.0957980  28.8906956  30.6503129
  39.1409159  88.7899303  41.6310644  39.5519567  88.3614731  40.8802652
  38.3907676  88.2343483  41.8427944  54.3880081  27.0742631  77.1161413
  55.2562714  27.1110511  76.7148924  53.7841368  27.0177269  76.3756180
  31.1322355  49.1022635  32.6112914  31.7663860  48.4268522  32.8519177
  30.5664968  49.1840601  33.3790684  15.9943140  61.8798637  46.6196156
  16.9159293  62.0914555  46.7682266  15.8005309  62.2463703  45.7568550
  24.2863679   9.5601445  40.0718737  24.1363144   9.0255684  40.8515835
  23.4562731   9.5283711  39.5963049  29.9426699  70.4513931  29.1807222
  30.0686860  69.5503473  29.4781542  29.0607285  70.6795025  29.4746161
 101.3076634  73.8314390  39.2986298 101.6186709  73.3806658  40.0836802
 100.4317452  73.4755182  39.1492343  95.3288127  35.1410651  35.4128218
  95.7773138  35.2491164  34.5741296  95.8571137  34.4981337  35.8858609
  94.0334620  89.3708324  44.1243362  94.3008723  88.8326453  44.8693705
  94.2926111  90.2600454  44.3659401  20.0789404  37.6528573  41.1329126
  20.8609653  37.2207093  40.7895231  20.4019022  38.1972718  41.8509245
  90.0935545  16.6242144  85.0505962  89.6541800  16.5316317  85.8959420
  89.3810668  16.6501305  84.4119097  14.4092774  77.4675512  50.1338053
  13.8331521  76.9941998  50.7340145  15.0465393  77.8984880  50.7033873
  19.4219756  33.3299303  77.0910454  19.9776018  33.7074137  77.7729654
  18.5968542  33.1347036  77.5352192  59.5551014  22.7763939  45.2480984
  59.0721703  22.4497557  44.4889402  59.7299910  21.9962907  45.7744884
  13.9739168  27.8073812  79.2770720  13.9348876  26.8562531  79.3773842
  14.2428434  28.1281757  80.1378822  24.3058467  55.0265217  41.1482668
  25.1816154  55.0019217  40.7627058  24.1016722  54.1107082  41.3375425
 103.6076261  69.9125576  40.8415222 104.2303516  69.3003225  40.4495907
 102.7830810  69.7390938  40.3873587 102.5404079  31.8422747  33.3202863
 101.8123807  31.2238288  33.2591748 102.5426431  32.2937489  32.4762487
  20.9121299  18.8402724  40.9861279  21.0844398  19.7800314  40.9278536
  20.7648516  18.5671699  40.0806141  73.5897895  83.3859788  60.3982210
  74.2485242  83.2894646  61.0859585  74.0455102  83.8452875  59.6928215
  17.1328068  25.4881191  37.7627277  16.2458229  25.4117846  37.4110675
  17.2580838  24.6876621  38.2724380  65.7324306  94.1837414  84.6027197
  65.2238504  93.4260234  84.8915859  66.2410656  94.4384059  85.3725697
  25.6012726  19.7332275  36.6624832  25.8184910  19.7489941  37.5945759
  25.8226347  18.8458717  36.3799429  52.9414034  26.3743973  36.7605972
  53.3647442  25.6116843  36.3665366  52.0190191  26.1278248  36.8287086
 104.0317526  19.6911928  85.5383171 103.1076636  19.8399136  85.7387515
 104.1563644  18.7508652  85.6667344  74.1194105  30.4098010  30.8044195
  74.3143463  31.2692332  31.1780620  74.8064089  29.8381805  31.1472273
 103.9384950  26.9863319  14.3357968 103.9617730  27.7160835  13.7168062
 104.3272455  27.3388052  15.1363397  21.4481068  48.4279394  24.7615266
  20.5827236  48.1448317  25.0568128  21.9605327  47.6209021  24.7131276
  48.9026165   1.7385414  24.1319394  48.2087612   1.9224966  23.4987283
  49.4753456   2.5042850  24.0888786  14.2105484   9.7596860  60.8066034
  14.9402821   9.6365702  61.4136982  13.6804116  10.4493415  61.2060595
  33.8552022  43.4620571  26.4255095  34.1568518  43.4777594  27.3338008
  34.6585703  43.4166050  25.9070849  33.2314444  18.2038891  64.5553875
  32.3020434  18.1816137  64.7833157  33.3005691  18.8973117  63.8991737
   9.4748777  60.8717728  58.2201385  10.2816081  60.3601742  58.2808256
   9.0253943  60.5199671  57.4517441   5.0021340   5.7810471  79.4305985
   5.1752640   6.4658806  78.7846403   5.6002499   5.0720999  79.1942088
  73.9543295   4.0523154  41.8267632  73.2107449   4.1657677  42.4187469
  73.5587168   3.9624256  40.9597874  94.4724632  60.9326982  38.9395738
  94.8047270  61.8259716  38.8507080  93.6690272  60.9231377  38.4193516
  15.8480239  44.8157501  47.1456671  15.3042197  45.4815149  46.7246389
  16.7394614  45.1582575  47.0804024  33.5915756   5.3463697  55.4171371
  34.5381045   5.2979302  55.2830982  33.2324433   4.6786809  54.8328018
  98.7425448  49.3732786  88.1316757  98.3530451  48.5385466  88.3919525
  99.6814932  49.2544270  88.2747936  89.9202658  34.4694448  34.6210146
  90.8410789  34.2305350  34.5149159  89.9409295  35.2900577  35.1133513
   6.2927139  17.5418901  29.8942876   6.7573911  17.8277159  29.1077685
   5.5330062  17.0630610  29.5629287   4.9761957  48.3685303  32.8475499
   4.6006703  47.9337072  32.0819497   5.3402817  47.6561117  33.3730364
  29.8900938   6.9796926  27.2456145  29.6843123   7.7214539  27.8145409
  29.0378976   6.6049623  27.0229721  89.0602506  30.9101415  33.5095048
  88.5901250  31.3497782  34.2179751  88.5254778  30.1423979  33.3074617
  41.4672462  95.4945239  84.7370805  41.8639669  94.8888978  84.1109316
  41.7014823  95.1398142  85.5947195  99.6933379  93.0762201  43.4336281
 100.6052055  93.3619314  43.3780003  99.5220509  93.0032783  44.3725491
  90.2566065  28.8145423  55.4486847  91.0422291  28.6775947  55.9780931
  89.9728180  29.7023964  55.6664324  31.8416882  38.6598229  31.7366886
  32.0417166  39.5264173  31.3828039  32.6978445  38.2590437  31.8870354
  42.1023607  23.6586714  46.9824600  42.3347092  23.0160165  47.6527119
  41.2585402  23.3582616  46.6448879  56.9080821  51.7812429  87.1690333
  56.6880194  52.6006900  87.6121035  57.8626648  51.7953072  87.0997022
  11.1166716  28.0093026  30.1872897  11.7412519  27.3032236  30.0212073
  11.6625392  28.7784910  30.3504109  45.1255608  33.9627075  48.6288929
  45.6565571  34.7447658  48.7794161  44.7143984  33.7858725  49.4750071
  34.1733575  27.0287967  29.6992421  33.7544727  26.9065833  28.8472843
  33.9811516  26.2227964  30.1784635 105.0514824  63.6292267  58.6557055
 105.3966124  64.5173073  58.7475109 104.2807822  63.7283659  58.0967569
  52.3705959  10.1376998  31.1428046  51.5027857  10.5350447  31.0702991
  52.3855591   9.4685376  30.4585314 104.1490604  24.4590211  25.8077765
 103.8820041  23.5733461  26.0537291 104.6045883  24.3487477  24.9731708
  49.1674137  26.9759989  19.0565491  49.6966696  26.2660003  18.6932003
  48.5773849  27.2234273  18.3445930  20.9424520  41.6576242  25.7500839
  21.5415859  41.1878347  26.3302279  20.7661963  42.4816132  26.2041783
 102.3335077  42.0242596  51.7192173 102.2665824  42.9027748  52.0933294
 101.4388968  41.8066311  51.4574099   9.2743242  33.9626050  24.6176958
   8.9883834  33.1819773  25.0921321   8.9275634  34.6939111  25.1287532
  11.5471017  16.4223123  11.3239741  10.9572172  16.9831145  11.8277276
  11.0970211  16.2894893  10.4896975  11.6137314  26.2816548  44.0485573
  11.8184268  26.9883490  44.6608591  11.3122082  26.7294455  43.2581139
  14.0775084  75.9833479  69.5475054  14.3059516  75.1144123  69.2173576
  14.9108398  76.4529991  69.5824480   4.0834010  19.5003855  10.3723860
   4.1354704  18.8732731  11.0936701   4.8440173  19.3012214   9.8264664
  37.8294873  38.7656188  70.3780127  38.4924960  38.5452986  71.0323143
  37.4980354  39.6209431  70.6514931   2.6245412  57.5013924  35.4880977
   3.1818324  56.7926073  35.8094668   3.2319149  58.1150293  35.0748396
  98.9710046  54.6879053  80.6796551  99.7585661  54.2767429  81.0359192
  99.2347027  55.5889559  80.4931068 108.4978118  24.7596905  86.9166401
 108.0588641  25.4296896  86.3925634 109.1765180  24.4103882  86.3390778
  24.2303944  78.1618214  24.4719863  24.7542596  77.7712870  25.1714706
  23.3243918  77.9777193  24.7199726  35.9551120  65.2176714  38.6546087
  35.4772902  65.4434109  37.8565121  35.9603381  64.2605782  38.6680245
  49.7125673  31.5443873  34.1818595  49.6744633  32.4716020  34.4164968
  49.5429230  31.0824037  35.0028491  28.9187193  48.8665009  34.7776532
  28.5053754  49.0284014  33.9296174  28.6325073  49.5963669  35.3268433
  15.3716147  66.7765808  27.5933290  14.4175947  66.8272495  27.6525807
  15.6430852  67.6589775  27.3405218  47.1340418  35.3226876  33.6228180
  46.8216276  35.2956367  32.7184415  46.9128180  36.2031007  33.9264035
  39.6421719  53.8621807  16.8960571  39.2735195  53.3199883  16.1986661
  38.9349818  54.4626331  17.1318042  37.3941278  55.4443932  11.8250990
  37.9575515  54.6991873  11.6166270  36.5741181  55.0492287  12.1211779
 102.1413603 102.2087368  24.0228701 101.3077679 101.8508432  23.7174749
 102.2500410 101.8460193  24.9019909   0.6645060  55.4135275  21.8862152
  -0.2317157  55.3310728  21.5603018   0.6123675  56.0893679  22.5620461
  39.1201496  52.4881983  42.0424032  39.7557092  52.9280901  41.4777851
  39.6533823  52.0335436  42.6944637  17.7094889  56.6814327  56.7795753
  17.1224082  56.2828207  56.1371756  18.1934309  55.9441566  57.1516705
   9.1908717  40.9391546  34.8292446   9.6360433  40.3075075  35.3941178
   9.5024216  40.7334614  33.9478493  96.8327380  55.5220747  31.5794158
  96.9553114  54.5817804  31.7100239  97.5637580  55.9261274  32.0469451
  22.6722193  95.2787209  35.3125072  22.7719450  94.7864151  34.4976974
  21.9120550  95.8404732  35.1614261   9.8357803  74.2475176  35.2643323
  10.3998995  74.0823746  36.0197973   8.9526808  74.2946482  35.6305909
  29.4884372  14.4268036  11.5491498  29.2386436  13.7135053  10.9617496
  28.7313795  15.0125444  11.5501070  32.7666807  21.6149068  49.8835468
  32.4706721  22.2124600  50.5702353  33.4685731  21.1087632  50.2926874
  38.6416965  95.1337823  89.4981599  37.9912243  95.6856259  89.0638941
  39.1657651  94.7732171  88.7829139  46.7517328  87.8096294  75.5585241
  47.3358440  88.0822945  74.8509216  46.9408131  86.8791962  75.6800747
   6.0585093  44.4020319  21.3350320   6.8191916  44.3103552  21.9087815
   6.1096507  43.6483145  20.7472157  39.4082761  45.8423758  32.9261661
  38.4791780  45.8741188  33.1542015  39.7927141  45.2474165  33.5699511
  27.0912409  63.4908056  31.8378615  27.8258705  63.8100195  31.3137865
  26.3333058  63.9721107  31.5060353  53.8826799   9.8682636  18.0891240
  52.9784298  10.0873959  18.3139455  53.9141226   9.9311900  17.1345115
  34.7192812  42.0511675  59.6986580  33.8966775  41.7218876  59.3365383
  34.5506859  42.9771852  59.8727274   0.7590526  14.2365015  30.9307337
   1.5409316  13.7199712  31.1259079   0.5894387  14.0730417  30.0029707
  39.4132066  31.4859748  43.0277872  39.7731566  31.9700742  43.7709665
  40.0496292  30.7898927  42.8644800  23.6837649  52.8299952  51.6839838
  23.4361362  52.8629017  50.7599545  24.4795084  52.2982359  51.6999102
   2.3798850  54.1424513  57.3312902   3.2218927  54.4872475  57.6285648
   2.3588082  53.2442760  57.6615429  23.9076400  69.7075510  28.9690495
  23.5211301  70.4895115  29.3632293  23.4749269  69.6290541  28.1188560
  31.9828749  45.0414896  37.9071450  31.1226988  44.6909523  38.1383467
  31.9794822  45.0728512  36.9504666   7.9923117  65.9689903  42.8010607
   7.0682579  65.9510374  42.5519943   8.4414703  66.3156652  42.0301485
  12.0816624  11.9043624  47.5474834  12.9681230  11.9990706  47.8959751
  11.6885257  11.2113571  48.0779696  16.7705202  62.8370810  14.2628157
  17.2860086  62.3161697  13.6470580  17.2469413  63.6642122  14.3342531
 108.6641335  48.8390398  35.1068687 109.0059667  49.2757273  34.3266869
 107.9733377  48.2646513  34.7765565 105.5174611  58.9684200  55.9695482
 105.4882075  58.6052084  56.8546772 104.7502996  58.5979414  55.5331516
   8.8691342  50.9634829  57.9464579   8.5170078  50.3244209  58.5660076
   9.2473489  51.6484118  58.4978724  23.4855080  62.7115250  33.0300260
  23.8715029  62.8813124  32.1707153  22.9585958  61.9223690  32.9042101
  27.5412726  63.4341431  63.9740086  27.9076791  63.4965897  63.0919218
  28.2637787  63.1087828  64.5109987  43.1070137  36.2434149  36.7167425
  43.2946301  36.0064745  37.6249766  43.9611673  36.4644766  36.3455439
  21.2396812  65.5205250  73.7166452  20.9244394  66.2422228  73.1725788
  20.5502987  65.3930378  74.3683577  17.7506506  51.6639233  41.0505724
  18.1818807  51.9841528  40.2582836  17.3462737  50.8376932  40.7858896
  15.9359002  38.9659858  53.5998678  15.5024981  38.3231282  53.0385065
  15.2232003  39.3728876  54.0925407  92.8989853  54.1970158  49.6226120
  93.3048559  54.5125294  50.4300451  93.0041338  54.9194431  49.0035200
  20.7002020  11.1537719  32.0106745  21.4540195  10.5890763  31.8400550
  20.9532690  11.6654217  32.7790523  36.0738969  29.4214511  32.2601128
  35.7468605  29.3266177  31.3655257  35.3238058  29.7499514  32.7557755
  37.7866650  61.0898399  34.5216060  38.6491179  60.6793165  34.5839024
  37.3196268  60.5680847  33.8690114 105.5345927  50.0734282  59.5299911
 105.1629485  50.9327030  59.3305922 104.8553528  49.6309566  60.0389910
 108.1415797  54.0986395  30.1824880 107.5398977  54.3775129  29.4922423
 107.6034617  54.0739250  30.9737206  30.8350086  45.8498859  23.1779575
  30.0356936  45.6807661  22.6792312  31.4214134  45.1312399  22.9415131
  46.2645102  40.8335066  24.9029994  45.7114744  41.5502644  24.5921206
  46.8097973  40.6075430  24.1494513  29.3398380  45.6891489  29.4868970
  28.6217141  45.4369974  30.0673699  28.9479208  45.7044697  28.6137438
   0.6805480  62.6792192  11.2272227   0.0903311  61.9299078  11.3072705
   0.1104084  63.4433651  11.3123870  55.4373360  47.6477146  14.0924287
  55.2839708  48.1975889  13.3240879  54.6011257  47.2065639  14.2420101
  31.2875915  19.9255586  25.2998710  31.1184740  19.9934661  24.3601799
  32.2051263  19.6594608  25.3594851  77.0618486  30.3948736  48.4452677
  76.6916370  29.5317936  48.6303806  76.3905191  30.8370066  47.9255867
  32.3922467  47.0498943  64.1722584  32.9758716  47.3843479  64.8532534
  32.2534490  46.1319494  64.4053745 106.0277925  56.2287617  43.7204075
 106.0484703  57.1516991  43.9733553 106.9224552  56.0374451  43.4389639
  13.5271215  30.0945425  13.9196265  13.7928486  30.6956315  13.2237017
  12.8170311  29.5810890  13.5344386  45.9587717   7.2362906  57.6746845
  46.3441467   7.0404428  58.5287142  45.1043987   6.8050772  57.6928806
  28.2143331  45.6265116  64.1003704  28.6096191  45.7773066  64.9589968
  28.7102914  46.1896706  63.5061359   6.5418941  54.5461416  14.6704113
   7.3282790  54.9583244  14.3127334   6.2392521  53.9631510  13.9741623
  20.8690333  70.7508612  18.9016354  21.5836501  70.1983929  19.2183888
  20.6925464  71.3523197  19.6250546  22.9183388  29.6485972  38.1710267
  22.7926803  28.9377356  38.7996125  23.8392043  29.8920584  38.2657146
  23.5857821  65.5609179  34.5077229  24.0558600  65.9739733  35.2320480
  22.6895738  65.4622078  34.8291230   9.7163606  46.7840719  20.8688474
  10.2906013  46.2185669  20.3524327   8.9174271  46.8552303  20.3464746
  11.3945436  53.2519674  42.7283716  10.7760382  52.8823471  42.0982456
  11.2247491  52.7732420  43.5396814  16.7551064  42.7710056  55.9815741
  16.4310312  43.5650969  56.4065695  17.2084463  43.0858564  55.1995325
  51.1794806  20.0229430  73.8724566  51.0945034  20.3922701  74.7514391
  51.1756754  20.7837439  73.2915926   6.4802575  48.7323284  13.4837019
   7.0181334  48.9790773  12.7313471   5.9965187  49.5284653  13.7036943
   1.7959861  47.2090292  35.7912779   0.9228505  47.5650930  35.6266975
   2.3782793  47.9665852  35.7340097  39.5910978  65.7202101  41.5647650
  39.8138618  65.2207470  42.3503494  39.9608898  66.5892363  41.7205858
  10.8606124  47.5521851  41.3917494  10.2211213  47.0006752  41.8424416
  10.9979331  47.1198463  40.5488634   9.1187388  68.0825043  11.9676888
   9.0476614  67.8493166  11.0420513   8.3934122  68.6886692  12.1183586
   7.1703708  76.6325140  46.2578249   7.5478685  77.0702457  47.0207930
   6.2318891  76.8104744  46.3195753  -0.0006714  65.2208185  29.9565792
   0.8495167  65.4919481  30.3028464  -0.0945277  65.7119560  29.1403651
  49.2444181  73.6988688  48.8495302  48.4866285  74.1482878  49.2237091
  49.8012590  73.5007811  49.6024704  36.5873814  68.1753683  39.5189166
  36.5591097  67.2972822  39.1389155  36.6310883  68.0263042  40.4634285
  17.9029691  75.7597065  50.8596373  18.0675864  76.6038418  51.2798405
  17.0029545  75.5426311  51.1027050  38.1396723  36.7320943  59.4962358
  37.9564524  37.2476101  60.2816677  38.9078236  36.2094760  59.7265482
   6.5512472  37.9054713  25.9473395   6.8589300  38.7234902  25.5569434
   5.7277542  38.1393313  26.3755918  24.2510867  52.9755878  68.4210682
  23.9283109  52.9814816  67.5199509  24.1438270  52.0687199  68.7079716
  13.3950293  54.1976309  25.0853920  12.7479148  54.5107698  25.7173872
  12.9025185  53.6155176  24.5067644  26.0599375  24.4052625  26.4148521
  26.9827700  24.1850495  26.5418148  26.0265732  24.8056293  25.5460477
  11.9510102  58.8508987  48.9945602  12.3616350  59.5785236  48.5274601
  11.6960430  58.2373619  48.3055019  87.5826443  55.8695793  39.0815997
  88.5048283  55.8024025  38.8340259  87.5429286  55.4946518  39.9614215
  14.8285091  52.2246504  58.3173943  14.8437214  52.2600269  57.3609686
  15.4332602  51.5170431  58.5405445 107.9794362  34.8027897  40.5268955
 108.5085766  34.4715357  41.2525034 107.0762784  34.7261763  40.8345747
 108.7785206  80.4574585   9.6736586 108.6579980  80.7166195  10.5871892
 109.4920648  79.8198748   9.6977156  33.7714338  62.4986982  35.5473304
  33.0289173  62.0275068  35.1693296  33.3739305  63.2181883  36.0377955
  46.5356541  38.9200139  38.0067754  47.1234226  38.4347343  37.4277568
  46.5693808  39.8200321  37.6826453  12.2886002  34.6768379  37.5805473
  12.2036493  33.7234163  37.5795603  11.8338311  34.9586415  36.7868209
  52.0871830  33.3923960  35.3649759  52.3640537  34.1700387  35.8495855
  51.1405945  33.4955263  35.2672100  49.7110366  86.7769387   5.8748682
  50.2247440  86.2597063   6.4951952  49.6018075  86.2026575   5.1169069
 108.1623068  58.1476879  18.3810031 108.4572699  57.9878807  17.4845159
 107.8332500  57.2998714  18.6796021  23.6031532  60.4215097  35.8468246
  23.3527493  61.2665987  36.2201214  24.4634295  60.5772781  35.4570913
  10.5936158  30.7475471  56.4000368  10.5574131  29.7947335  56.4841032
  11.4975643  30.9731865  56.6195774  19.8098255  90.8509957  85.9902668
  19.8065830  89.9882888  85.5755806  19.6812130  91.4648127  85.2671337
  29.6069121  48.5568142  60.2824497  28.9722228  49.0715408  60.7809067
  30.1119328  49.2070007  59.7941446  27.5601315  60.3899860  46.1083889
  27.8880882  60.8916044  45.3620243  27.8403759  59.4913530  45.9347439
  30.0272703  64.2236423  80.0049305  30.2304149  64.6359587  80.8445454
  30.3217506  63.3184004  80.1051712  11.0101879  70.8970976  46.2741375
  11.6648722  70.3116655  46.6547775  10.7688272  70.4807997  45.4466867
  28.0206418  62.4163103  42.2070360  28.2573318  63.0670929  41.5462112
  27.8499603  61.6182280  41.7068815  33.2898021  52.7539968  46.1244249
  34.0261078  53.2920551  45.8335972  33.5168362  52.5008583  47.0191956
  11.2492716  48.9770365  54.2255068  11.8802893  48.7244034  54.8994637
  10.4338694  49.1254044  54.7043991 109.2281030  32.5239921  45.7607698
 108.7852200  32.2773933  46.5727282 109.1112089  33.4722471  45.7026434
  37.7195621  58.5507536  36.2491202  38.5614800  58.7991476  35.8674097
  37.9347563  58.2605171  37.1355104   5.6142378  29.0772915  42.5516415
   6.5530217  29.2146063  42.4249077   5.2091444  29.8844624  42.2344589
   9.5366520  55.5271912  30.9991002  10.4735303  55.6760883  31.1268520
   9.3446064  55.9245872  30.1497316  46.8417453   5.6402505  18.0366278
  47.3850535   6.0190881  18.7276661  46.7788218   4.7123445  18.2630253
  59.6698999  33.0465364  31.0988283  58.9239407  32.4828053  30.8939362
  59.4563723  33.8847589  30.6889248   5.8616018  52.9152918  12.2402549
   5.1267862  53.3469582  11.8044305   6.5889996  53.0000973  11.6238678
  13.8583267  34.0761352  42.1722174  14.5314622  34.1727829  41.4985895
  14.3219268  34.2223668  42.9967928  99.2658200  27.2792980  81.0970037
  98.8105574  26.4402411  81.0266458  99.9304619  27.1354172  81.7706375
  27.1767187  24.8945212  49.9894714  27.7818799  24.7216463  50.7106686
  26.8048787  25.7535601  50.1895142  62.1905922   3.1253255  45.1564550
  62.5659369   2.3127855  45.4957676  62.5016402   3.1736768  44.2524958
  41.5258026  50.0770521  55.1959038  41.4371490  49.9151373  54.2566729
  42.4640036  50.2133560  55.3279400  30.5889487  64.5421934  22.6198554
  31.3488770  64.4319773  23.1913424  30.5153656  63.7083006  22.1557069
  25.2288795  59.6612215  31.5108061  24.5944357  58.9476013  31.4439631
  24.9479890  60.2941179  30.8499169  21.1587858  52.6656866  29.7300863
  21.8101096  52.2635221  30.3047800  20.8958101  51.9620562  29.1368079
  21.5551734   9.6468645  58.1772089  22.0790124   9.1141051  58.7755346
  21.8415093  10.5450428  58.3431053  15.0814426  95.5254555  31.3087869
  15.0515437  95.8755112  32.1991777  15.5865431  94.7160912  31.3864708
  10.4368341  64.6974230  55.5667257  11.3012898  65.0092411  55.8345318
  10.4801309  64.6628618  54.6111345 108.3243153  75.1603889  26.5126085
 107.8947304  74.8060656  25.7340574 109.2330338  74.8689413  26.4383125
  54.1543961  89.7405624  29.6252871  54.2280865  90.5888939  30.0624847
  53.4731245  89.8695755  28.9653993  94.4628730  86.0486626  15.2224815
  93.5771241  85.7198750  15.0689137  94.4828334  86.8980788  14.7816598
  13.1350565  29.0029812  27.4932814  13.2658231  28.1142187  27.1627784
  13.7980723  29.1045451  28.1761622  27.1688342  66.8505430  29.5710635
  27.9430699  67.3725891  29.3606949  27.0280194  66.9971466  30.5064321
 104.8256729  26.5818810  50.1343536 104.4425438  26.3033557  50.9661388
 104.2505364  27.2833228  49.8286963  18.6101925  54.9724531  42.0731688
  18.3659768  54.2134094  42.6027393  17.8244281  55.5189514  42.0611954
   1.2514657  62.2611189  32.1007705   1.9379935  62.9041433  31.9234824
   0.4627038  62.6396370  31.7124295  44.1333485  32.9579210   9.8660040
  43.6551046  33.4090757   9.1703194  44.7920418  32.4379778   9.4055539
   4.9810562  30.7935143   7.3959297   4.5773947  31.6320562   7.1720225
   5.6479472  31.0147166   8.0459750  30.3440666  21.3776445   7.7821869
  29.5505285  21.6715288   7.3347944  30.0374174  20.7202077   8.4066665
  27.3896241  43.4742785  29.7026587  26.7871189  43.8590717  30.3391767
  26.9407177  43.5658169  28.8622212  32.1449876  73.3469820  20.6128550
  31.3183308  72.8682995  20.5517626  32.6151395  72.9224157  21.3304424
  13.9463603  72.8668785  45.9866142  14.0948856  71.9645405  45.7038498
  14.0673280  73.3893251  45.1937437  16.6456354  42.0400000  75.9020805
  16.4168298  42.2805643  76.7998600  17.5856566  42.2098112  75.8407831
  31.1589074  59.5329094  38.4794354  31.9435096  59.7416925  37.9724479
  31.2652063  58.6117172  38.7167883   6.0999572  63.8340330   0.1933454
   6.5791315  63.4354448  -0.5331191   6.2192690  63.2247782   0.9219078
  25.1265192  51.5991592  29.3475318  24.5972681  51.9132710  28.6144161
  25.8961391  52.1682978  29.3485045 103.2700349  24.9699998  43.6313009
 103.0593045  25.1650977  44.5444059 102.5649346  25.3795719  43.1299877
  21.3378716  19.9488831  25.0678205  20.9546924  20.8032680  25.2664018
  21.7927814  19.6977282  25.8716941  47.3979950  22.6370311  51.9826412
  48.2372904  23.0964351  52.0102167  47.6269484  21.7325425  51.7688370
   0.4365695  53.4464979  24.9007368   0.2354765  54.3647003  24.7199130
   1.3769194  53.3708525  24.7387147  42.4600077  11.0847926  30.9665322
  43.2804537  10.9543109  31.4420080  41.9841433  10.2620053  31.0796857
   9.2916864  56.6972160  51.8960810   8.8303232  55.9668350  51.4838696
   8.6182004  57.1501303  52.4035454  22.8760624   9.9947923  30.9755254
  23.0477190   9.8629677  30.0431156  23.2530951   9.2240274  31.3997865
  24.9819684  39.5510054  36.8979573  24.8945761  39.5082974  35.9457111
  24.0809584  39.5628214  37.2208738  18.2995474  53.4187603  32.2411251
  17.6998377  53.2528973  31.5137529  18.9486384  54.0243196  31.8830609
  21.6690588  17.5100100  83.0736732  21.3223624  18.3602178  82.8031635
  22.5963855  17.5437748  82.8388214   8.0228400  51.3740063  52.1793652
   7.8374958  51.1832857  53.0988789   8.8255578  50.8878040  51.9909954
  16.5780044  32.3018074  64.7005272  16.3925099  31.9201326  65.5585146
  16.9920111  31.5933442  64.2076683  51.3312626  91.8240261  76.1515093
  51.7918825  92.0082951  76.9701147  50.4587507  92.1966171  76.2785292
   1.9522397  28.9901519  59.7557259   0.9999391  29.0644908  59.6938419
   2.1247755  28.8962150  60.6925488  25.1517892  39.1005278  29.9144387
  26.0556316  39.4027233  29.8251033  24.9549484  38.6827588  29.0760136
  32.2149372  39.4722819  27.8347540  32.7351785  39.7286201  28.5962439
  32.6441813  39.9029088  27.0954680 106.2847592  82.7875042  11.9977760
 106.5482582  83.2503891  11.2024510 105.5639459  82.2229290  11.7186427
  40.0145578  57.6817131  17.3705530  40.9204292  57.9711819  17.4793732
  40.0322056  57.1279097  16.5900254  26.2788153  64.3418407  23.1982493
  27.0635724  63.8935423  23.5135508  26.1057925  63.9487267  22.3428226
   2.5279617  70.2916670  11.7945921   1.8999296  69.5844364  11.6475010
   2.0085548  71.0923338  11.7212427  29.1715622  83.5667038  50.5057526
  29.6207738  83.5627556  49.6605158  28.2534671  83.4032822  50.2898216
  21.1870360  34.5666099  17.3977637  21.3337445  35.4380465  17.0299220
  20.7360744  34.0863323  16.7033589  33.7230921  45.3709269  45.6235266
  34.3359399  45.9142876  45.1281404  34.1624856  44.5240736  45.7010269
  38.8745022  68.7587595  61.4833593  39.0696716  68.1964016  62.2329569
  37.9301167  68.6687231  61.3558531  22.1377611  33.6433554  45.4324102
  22.0079184  34.5070767  45.0408030  21.4174747  33.5524845  46.0562420
  20.2049398  41.5874863  30.7673645  19.3381119  41.9641018  30.6156921
  20.0463748  40.6471586  30.8502340  21.4470005  74.1131258  47.8931046
  21.5589476  74.2171431  48.8380289  22.2824264  74.3949938  47.5204802
  12.8087437  36.3333988  45.2882195  12.1881986  35.6879187  44.9498272
  12.2596681  37.0518875  45.6021070  41.2497377  62.2355556  48.5845280
  42.0502138  62.5065088  48.1350279  41.5365458  62.0103025  49.4695330
  24.0105057  65.0253677  25.6724906  24.3188620  64.9534416  24.7691774
  24.6233034  65.6326532  26.0871196  30.5593753  29.6295071  54.0566206
  30.3194761  30.3023696  53.4194946  29.7510266  29.1377592  54.2014980
  36.4184904  94.1471958  57.2097778  35.8445621  94.3873215  56.4823294
  35.8407044  93.7132549  57.8375435  24.2801356  22.5304270  68.5596180
  23.8012075  23.3565497  68.6257982  23.6019135  21.8716908  68.4102440
  29.7558713  73.4203053  61.6415787  29.6889019  73.7736225  62.5286627
  30.6378388  73.6576605  61.3551807  15.7899129  58.9166832  48.7897635
  15.2584267  59.4890928  49.3430281  16.2847328  58.3784580  49.4075775
  44.3406582  81.9854736  67.3859119  44.7026348  82.8565407  67.2232676
  43.8061142  82.0913506  68.1728601  40.3260708  73.7127542  51.5834713
  40.8785582  72.9318619  51.5489769  39.4358110  73.3817196  51.4647913
  87.0525422   1.2592957  85.3036635  87.5507345   2.0675633  85.4250537
  87.0930018   1.0921309  84.3620418  42.9403114  93.1394863  14.2650700
  42.6231098  93.5219479  15.0832033  42.4749374  93.6194706  13.5800338
  14.1781223  69.8977423  52.4159908  13.4776020  70.4124260  52.0152378
  14.7949469  69.7360039  51.7021275  38.6374211  79.5991707  59.9215460
  38.7394428  79.6855307  58.9737272  38.1011510  80.3507137  60.1741838
  46.5596867  97.0907021  60.4043627  45.8612490  97.2046471  59.7598219
  47.0918274  96.3749409  60.0568771  39.4850087  59.6036339  51.3478422
  38.5935521  59.9157238  51.1924839  40.0270987  60.3907061  51.2940931
  27.0019078  54.1942883   2.2279210  27.3347759  53.5677481   2.8704777
  27.1993303  53.7958002   1.3802990  32.4511838  49.8237419  36.1393118
  32.9761934  50.6080103  35.9795690  31.7955256  50.1006937  36.7793465
  18.7223756  80.1693535  68.7806797  18.8953948  79.8373842  67.8997183
  19.3288791  79.6863747  69.3420362  29.8926044  50.8830404  51.8304539
  29.6028376  50.0337982  52.1636963  30.7901168  50.9725142  52.1509171
  24.6701455  52.4806070   3.4935680  25.3640962  51.8967772   3.1872886
  23.8970900  52.2159863   2.9949751  28.5027409  35.9657669  64.3166542
  27.9995131  36.6698217  64.7256804  28.0968237  35.8490324  63.4576797
  42.3826742  58.6144876  59.7956705  41.6993809  58.1097937  59.3545008
  43.1177378  58.6094952  59.1825724  54.3160105  87.5649738  42.8394175
  54.2314911  88.5182953  42.8232098  53.4154177  87.2455978  42.8956366
  24.5235944  69.3135262  60.7224655  23.9931440  68.7232494  61.2576580
  24.5432782  70.1327515  61.2171459  84.7626947   1.1997808  65.9400845
  83.8287901   1.3016141  66.1236191  85.1133322   2.0894826  65.9814978
  53.4783840  49.2340136  31.4317298  53.6507225  48.3854485  31.8397379
  52.6247263  49.4964266  31.7761707  60.1402997  24.3465723  47.4241686
  59.9800156  23.8704694  46.6093922  61.0832928  24.5108808  47.4240351
  28.6973763  72.6026297  52.2804737  28.2779813  72.1691751  53.0237484
  29.6017385  72.7399826  52.5624180  36.6578698  98.1259346  58.5161448
  36.9770718  97.2345734  58.3753395  37.2177076  98.6709690  57.9631948
  28.7882805  85.2514267  55.7742500  28.6706758  86.0105419  56.3453388
  27.8990173  84.9441242  55.5981636  48.9914989  34.6735334  37.6976848
  48.8294888  33.7754393  37.4088764  48.1209993  35.0269127  37.8809381
  34.5811939  67.5580645  49.0974236  34.9099231  68.4562922  49.0606165
  33.6522961  67.6338387  48.8791561  33.0871534  79.8658991  66.8790340
  32.3944402  80.1703453  67.4652863  33.8009191  79.6110582  67.4636984
  62.8372240  95.6052780  70.3376245  62.4687195  95.9574223  71.1478233
  62.4554777  96.1458778  69.6460629  47.7425909  95.8199310   9.9774092
  47.7694893  96.2542629  10.8299744  47.0599985  95.1551342  10.0687122
   5.4847783  65.6206417  40.9430838   6.2958020  65.3737545  40.4986525
   4.8806140  65.8408976  40.2340651  28.4404039  45.8289289  27.0710611
  28.7342525  45.0671053  26.5715551  28.9008284  46.5680456  26.6736317
  20.7573533  44.7593117  44.7103500  20.8377957  44.3441105  45.5690479
  21.2266302  45.5887032  44.8004293  34.2265654  52.3370886  36.3773608
  34.6531868  52.4179411  37.2304082  33.5232639  52.9860401  36.3988304
  21.7615962  66.6431093  41.3509178  22.4243808  67.0829725  41.8833351
  21.6936517  65.7664442  41.7291689  30.3680468  77.6449394  43.8034058
  30.5534768  76.8753672  43.2652617  30.7923460  77.4593019  44.6411085
  26.4658689  82.8455734  59.6437979  25.7795429  82.1832848  59.5627928
  27.2092843  82.3751926  60.0210476  23.2879949  84.0008640  49.1142845
  23.2093501  84.7775459  49.6681786  24.0926504  84.1427517  48.6156607
  49.6284984  15.9387315  48.7704039  49.5314907  14.9921907  48.6660528
  50.5588912  16.1025823  48.6162758  92.0252145  69.2545938  24.8450065
  91.3087524  68.6757040  25.1053953  91.7522300  69.6075773  23.9981818
  31.6505885  48.8600445  14.5680690  31.9813156  49.1142416  15.4295993
  31.8395972  47.9237700  14.5056558 106.1744953  66.1619854  73.3818626
 105.7930590  66.2225580  74.2576885 107.0893685  66.4170742  73.5009003
 107.2266805  64.7592688  45.7526875 106.8921686  64.0945721  46.3547802
 108.0949719  64.9752522  46.0927677  10.8045292  75.6750393  42.1098900
  11.3671517  75.8639050  42.8608990   9.9806285  76.1192465  42.3101330
 101.8917276  74.0802002  70.1958513 101.8373038  75.0214577  70.3611040
 102.3722137  73.7325096  70.9471655   8.6066771  56.3721514  33.3742213
   8.2685888  57.2118664  33.0630851   8.9009029  55.9238100  32.5813460
  34.3349385  52.2080040  63.5182381  34.4293332  52.4229479  62.5902700
  34.5371270  53.0245304  63.9749956  70.9018230  78.1711483  53.4980488
  71.8454504  78.2729816  53.6222792  70.7510567  78.4269953  52.5880766
  26.7877507  70.3911448  29.2298436  26.9434595  70.4783630  28.2894301
  25.9370255  69.9568939  29.2924976 106.6832976  75.6623602  48.2121992
 106.5509010  76.3856697  47.5993967 107.6191955  75.4694462  48.1564140
  53.8905621  84.0545750  22.3082185  54.6349287  83.4583759  22.2263241
  54.2842007  84.9021149  22.5154638   1.3541080  18.8668797  73.9617102
   1.2371017  18.8862631  73.0118863   0.7575632  19.5394871  74.2902939
 101.0086916   9.1518442   6.0175378 101.0812328   9.1807548   5.0635297
 101.8924854   8.9409725   6.3186605  50.8109951  83.1764889  40.9060717
  51.1152315  82.5848389  40.2178764  50.9623575  84.0530396  40.5525398
  34.2726064  69.6240187  39.1520691  33.9179206  69.4811630  38.2745600
  34.9204397  68.9284277  39.2647219  26.2591219  66.3483381  58.0877781
  26.2957239  67.3040676  58.1262302  26.1570859  66.0756779  58.9996290
  68.8106251  75.9048986  64.6739340  69.3480015  75.2505636  64.2275047
  68.9568520  76.7119980  64.1805315  16.7456126  63.9836311  56.6234970
  16.7869687  63.0319452  56.7174196  17.5269580  64.3030262  57.0748472
  71.5020870   0.3235448  37.3258352  71.9720958   1.1510290  37.2229218
  71.7761873  -0.2026259  36.5746713  55.4155111  98.4363937  63.6447001
  54.4713974  98.5061646  63.7861681  55.7124043  99.3423080  63.5586786
  73.6039685  18.2494653  40.1248264  74.3069099  18.8740743  40.3036261
  74.0378140  17.3962606  40.1175022  79.8381758  71.6142845  33.8926864
  80.2480507  70.7492828  33.8940740  79.3745565  71.6583014  33.0564117
  87.6395702  99.5465565  41.4929533  88.2836723 100.2118206  41.7354012
  87.4263668  99.1081429  42.3167133  24.7237897 101.6225815  65.3805733
  24.8660278 101.7199135  64.4390154  24.5805836 100.6844330  65.5054569
  98.5693239   2.0471490  34.5700192  98.0785106   1.4318384  35.1147437
  98.0428957   2.8465570  34.5778179  93.4103798   6.4670480  82.6013660
  94.0077471   6.8883527  83.2193279  92.6854681   7.0853628  82.5095844
  54.7356558  80.7378387  16.5844083  55.1553297  81.2724686  17.2584081
  54.7901392  81.2683392  15.7895303  73.7054014  93.8173389  67.6810741
  73.3428812  93.5089684  66.8505812  74.1904783  93.0668163  68.0240679
  45.6703711  82.2661209  31.3196182  45.9673452  81.7219162  32.0489216
  45.6042337  83.1466103  31.6892099  11.7703091  98.7915325  29.8304987
  12.6679646  98.4849358  29.7021985  11.6884648  98.9033031  30.7776213
  45.4553323  11.3434518  32.1255851  46.0814976  11.3148893  31.4021683
  45.7615660  10.6710256  32.7341056  31.1658835  74.0878963  53.2540751
  31.6268277  74.4421959  54.0144920  30.4219317  74.6770716  53.1290293
  62.7779007  77.6886940  65.6911755  61.9241524  77.2962856  65.5085278
  63.1926060  77.0841885  66.3066673   7.1905977  56.0433102  35.5570292
   7.7487230  55.4260969  36.0300779   7.6164252  56.1476755  34.7061419
  81.7135715  86.1173439  71.0233068  82.1268082  86.3217354  71.8621683
  82.4460602  85.9626770  70.4268503  48.1275272  73.5539103  52.3111248
  47.3613024  74.0906143  52.1084356  48.0335140  73.3433771  53.2401419
 101.2751102  49.9963474  41.3800192 100.6480026  50.3422499  40.7449436
 102.0716953  49.8441935  40.8715487  77.5849842  12.0862974  45.2258158
  76.9396232  12.7411188  45.4921865  78.0949997  11.9166482  46.0178566
  38.2071805  96.9529819  66.8457460  38.5602021  97.7833843  67.1651745
  37.2603106  97.0903301  66.8174028  43.4872007  82.7860546  44.2033148
  43.4322739  83.7270260  44.3699789  44.4056892  82.5679874  44.3616152
  68.9692068  79.0266180  31.7949390  68.0161285  79.0541124  31.8793011
  69.1511250  78.1683064  31.4122677  49.2416286  82.7012062  44.9241877
  49.5557499  83.3757019  44.3220091  49.4295979  81.8754673  44.4780445
  32.7467823  65.4356861  40.7575560  33.4332275  64.7751141  40.6644630
  32.8843355  65.8026218  41.6308641  27.1702170  77.0603371  28.1375599
  27.2216177  77.4165010  29.0245414  27.6287270  77.7018499  27.5949168
  58.6650728  23.2128633  49.3782234  59.3170975  23.6283315  48.8138866
  57.9305767  23.0215467  48.7950039  31.5638065  54.3263292  58.6065292
  32.2145247  54.9615574  58.3077240  31.9181156  53.9895916  59.4295120
  72.2518206  89.4680309  14.1974568  72.5149012  88.6501789  13.7753940
  71.4737082  89.7471046  13.7148654  18.4018803  82.9938602  54.9237585
  19.0817058  83.0082703  55.5974531  17.7410221  82.3903275  55.2632427
  82.6114845  88.1159306  29.6197557  83.5206890  88.0716991  29.3237329
  82.0945549  88.0425167  28.8174939  98.7231468   4.3946756  77.0317411
  98.9986633   4.1807283  77.9231167  99.1620611   5.2228845  76.8376684
  32.1021748  78.0275202  40.7093143  31.6104412  77.2601080  41.0017347
  32.7153993  77.6854467  40.0587940 102.5001348  40.5380440  43.4975672
 103.3560253  40.9195852  43.3023453 101.8715335  41.1584425  43.1285143
  92.5403332   6.5291513  53.3493376  92.6893209   5.6781496  52.9372406
  93.1600546   7.1165479  52.9167318  41.1468744  89.7195148  58.6634064
  41.6237307  89.7469425  57.8338957  40.2316284  89.6003914  58.4097099
  58.4862947  88.7806702  24.7868633  58.7189865  88.3817005  23.9484692
  58.0075502  88.0955982  25.2534556  53.0787516  84.3573666  42.5228214
  52.8600740  85.0341797  41.8822432  53.9767122  84.1051483  42.3076916
  91.5500091   3.8587202  21.4581537  91.2015985   4.2266668  22.2702193
  91.1358951   4.3729890  20.7651424  69.2579937  98.4992504  78.6713409
  70.1251602  98.3237267  78.3060408  68.7812376  98.9284992  77.9609251
   8.2752818  57.3123980  76.2526894   8.6370176  56.9646883  77.0678473
   8.8602555  58.0332136  76.0193205  29.6009231  68.2080793  47.9786873
  30.4122233  68.1643772  48.4847641  29.2252851  69.0598536  48.2014179
  47.8955078  87.3231792  54.7472382  47.8440809  88.2761192  54.8213816
  48.1779194  87.1679592  53.8459158  82.1685505  75.8442688  67.4985933
  81.9834709  76.1286736  66.6035557  82.9786015  75.3393888  67.4268007
  63.9868450  80.5914211  34.4267607  64.1008520  81.0273266  35.2712846
  64.8546982  80.6190014  34.0239000  48.4921646  83.5062504  13.7916684
  49.2986202  83.9865685  13.9791536  47.8053808  84.1725540  13.8160002
  20.9533691  90.9022903  51.0378504  20.0867438  90.7686901  51.4216995
  20.9118438  90.4566574  50.1917267  75.4613590  93.7474155  47.0820475
  76.3348055  93.6114502  47.4492455  75.4185057  93.1474113  46.3374710
  37.2632217  92.6961899  28.2963562  37.5916219  92.7428913  27.3984694
  36.4588022  92.1815777  28.2307100  34.0677547  80.4975700  58.8628244
  34.4569373  80.6401539  59.7256327  33.2951784  79.9591780  59.0345669
  57.5694847  75.8251810  52.7529097  57.0121527  76.3908815  52.2185040
  57.0121384  75.0787592  52.9730368  74.8936367 100.2649689  63.4764528
  74.0876436  99.8189831  63.7366533  75.5798626  99.8381615  63.9894390
  71.3688183  69.9391031  43.4921741  71.6074276  70.2869129  44.3514299
  70.7959604  70.6064129  43.1143284  96.7360115  85.4727936  42.6928520
  97.2335529  84.9729443  43.3400345  96.7700958  86.3754368  43.0095577
  56.5429401  91.3652611  28.5369182  57.2544336  90.7613468  28.7497401
  56.1971569  91.6371059  29.3870759  28.8462949  66.0391855  51.2485981
  29.0858483  66.4959955  50.4422665  28.3366299  66.6799259  51.7445087
  77.3695946  76.1097383  46.6016436  77.4930811  77.0458937  46.7584753
  77.8291941  75.9420490  45.7789135  15.9841372  21.7546007  68.2248275
  15.5662037  22.4900982  68.6727207  16.6387011  22.1608088  67.6566975
  46.1905718  83.3360291  51.2773705  46.1740351  82.5209999  50.7756901
  47.0684958  83.6887932  51.1323166  27.3610830  54.8607063  46.5985107
  28.0315733  54.2979670  46.2112188  26.7424178  54.2525673  47.0030546
  50.2383089  89.4996452  15.4381287  49.7831392  89.4039440  16.2747252
  49.5420027  89.6758461  14.8054028  51.5964079  59.6129656  14.2948258
  52.2040367  58.8770771  14.3688822  52.0220709  60.2145052  13.6839318
  51.4709091  48.4131050  18.4395850  51.8882322  47.8053236  17.8291166
  52.0163965  48.3757257  19.2252529  40.9229517  56.7705297  12.2309875
  39.9996448  56.8192720  12.4786985  41.3888264  57.1763325  12.9620957
  81.9121526   8.6950887  23.8884854  81.4169000   9.2819513  24.4599390
  81.2551855   8.3228601  23.3002067  24.6301675  75.9358740  57.3374128
  25.4553318  76.0444355  56.8646002  24.4608474  74.9941540  57.3105717
  36.6445565  57.3352623  48.8991356  36.5239453  58.0993652  48.3353710
  36.3810730  56.5926600  48.3556747  31.4212036  75.2757835  42.0441389
  31.8452024  74.9084282  41.2685680  31.8395352  74.8289776  42.7800703
  57.8361893  78.3823061  34.1470194  57.4664974  77.9981613  34.9419975
  57.5026989  79.2794800  34.1370773  39.0340018  73.6637545   6.3246441
  39.6478367  73.5999346   5.5929565  38.3478284  74.2528152   6.0109454
  83.5795212  86.8707752  82.3555279  83.6423206  86.2588406  81.6221619
  83.0991173  86.3891125  83.0289078  54.8769522  94.0997219  58.5851622
  55.3652000  93.4390354  59.0764189  54.4545650  94.6344280  59.2574072
  81.6448784  77.8137970  13.6439705  82.0872688  78.1913710  14.4042087
  82.1746922  78.0909061  12.8964782  42.4467897  86.4844894  80.1561451
  42.5944376  87.3861122  79.8706484  42.5978422  85.9570980  79.3717527
  93.2085896  61.8490505  61.9548178  92.4616909  61.6741610  62.5273514
  93.3095074  61.0476351  61.4412212  58.4734440  91.3554192  38.7909865
  59.0328360  90.6759071  39.1672421  57.6052380  90.9545994  38.7485933
 102.9150699  23.9738477  67.2464657 102.4673437  23.6777700  68.0390024
 102.7219366  23.2987894  66.5959024  34.0491176  67.2909498  58.2088900
  33.3700252  67.8073263  57.7748203  34.1926265  67.7372265  59.0434408
  99.3621897   4.7396863  44.0457726  99.1868232   5.1566232  43.2021856
  98.5090421   4.4160093  44.3349218  55.1841164  96.2576199  25.1275063
  55.2968025  96.7828083  25.9197855  54.3792152  96.5914154  24.7313452
  68.1808233  71.6212511  30.1801276  68.2770205  71.3901329  31.1040115
  67.6325989  72.4058867  30.1853442 102.3321985   1.0573686  33.3126736
 102.9729103   1.4141572  33.9278316 102.4866174   0.1128210  33.3269858
  35.7393122  71.9401026  51.0031748  35.6923079  71.0237026  51.2756205
  34.9501133  72.3395300  51.3690424  23.5103393  76.0620308  51.9985580
  23.1766438  75.3420162  52.5337791  22.7679253  76.3175249  51.4510393
  44.4292164  88.4062195  58.7218285  43.7398863  88.2626152  59.3702412
  43.9716053  88.7639332  57.9609966  65.7296561   9.3760026  43.9190531
  65.9865927   8.8556875  43.1578112  66.5580605   9.6540941  44.3097496
  27.3273969  70.8004141  44.9844360  27.3709488  69.8760509  45.2291584
  26.4804935  71.0967922  45.3178167  66.1210680  77.1230888  45.7897425
  65.6693554  77.6949883  45.1691628  66.8993568  77.6169634  46.0477972
  86.4257812  73.3061457  21.7193675  85.9623623  73.4630775  20.8966565
  85.7423115  73.3365917  22.3888230  53.6883497  92.4631691  74.9098778
  53.8991737  91.7391682  74.3202972  52.9746866  92.1293545  75.4534674
  42.6551867  97.0967865  39.4772840  42.7435493  96.2369442  39.8884940
  42.8360033  96.9388580  38.5506797  50.5207157 101.9452763  50.2747583
  50.1995850 102.8417969  50.1780081  49.7764206 101.3963223  50.0279713
  56.8168259  60.3458595   4.7253427  56.9360113  60.7086325   3.8476062
  57.3032665  59.5215845   4.7119135  16.9035111  10.5617059  55.2358007
  16.9582043   9.8706354  54.5757532  17.7782307  10.9502042  55.2488518
  75.4382133  89.2204094  51.3893795  74.8244095  89.9314022  51.2050438
  75.0023556  88.6958027  52.0609760  94.3378067  95.4075909  64.6417856
  95.2844715  95.5284977  64.7155094  94.0464973  95.2452183  65.5390072
  59.2020369  89.1750717  40.2168226  58.6381769  88.9250660  40.9487963
  60.0919294  89.0745831  40.5547953  80.1019669  74.1073895  52.7528524
  79.1795015  74.0315962  52.5088453  80.0934315  74.1591024  53.7086153
  26.3505983  68.8108349  46.8754911  26.7674637  68.2267952  46.2419701
  26.4958644  68.3886433  47.7221775  50.0458096  17.6378644  51.1674881
  49.8078488  17.9019369  52.0562363  49.6765076  16.7600072  51.0714912
  42.2060108 101.1624336  42.4860382  42.2333431 100.8589840  41.5786219
  41.6239738 101.9221115  42.4671125  47.0353889  96.6691017  81.3752460
  46.1706972  96.4236355  81.7043209  47.1475506  96.1448765  80.5822468
  25.1727581  92.1269608  38.5494947  25.7675052  91.4506912  38.8737845
  25.7284760  92.7029228  38.0244422  15.2237320  45.0720978  57.3131371
  14.4327188  44.8672771  57.8117132  15.8169878  45.4624891  57.9549122
  52.6818848  79.1228199  15.3736424  51.7730856  79.2504168  15.6457376
  53.1756449  79.7705984  15.8764505  29.2906690  78.5474443  57.3161650
  29.1010427  78.6612558  58.2474661  29.2092061  79.4264030  56.9459915
  45.7317214  11.5493978  43.6929083  46.2111704  10.7295335  43.8119745
  45.4553674  11.5343488  42.7765894  15.3994179  69.3655300  40.0382662
  14.8294866  69.0324926  39.3450856  16.2126100  68.8706207  39.9381733
 106.0195255  79.0758514  54.0585804 106.0685349  78.1277561  54.1808224
 105.2175140  79.3347216  54.5124483  71.6868614   5.1500619  59.3067169
  71.7150472   4.5117868  60.0194836  72.2450637   4.7739137  58.6261559
  94.4866632  27.4586690  46.2929153  94.4150757  26.5717424  45.9401035
  94.4331526  27.3440469  47.2417212  98.2419943  30.2227128   8.6785269
  99.1325973  30.2218641   8.3277303  98.2364820  29.5121110   9.3198115
  70.3298330  56.3678885  25.9091234  69.8330641  55.7161617  26.4038038
  69.7519732  57.1299410  25.8693528  54.0422964 100.0293255  38.6362219
  54.3084288  99.9621868  37.7192163  54.0005255 100.9705639  38.8051987
  46.7256333  39.1784021  84.4714476  46.2317158  38.7225267  85.1529609
  46.1889912  39.0858957  83.6842452  34.1242313  84.5770931  11.7294383
  33.2927227  85.0399017  11.6263175  34.7847414  85.2698517  11.7357969
  63.7351608  84.6876621  41.7612696  62.9820108  85.2720928  41.8474913
  64.1641426  84.9675083  40.9526348  61.5730715  98.4220791  34.9794602
  60.9615278  97.7839184  35.3468776  62.1693134  97.9005718  34.4420934
  49.0969801  89.4005966  61.1508131  48.2961035  89.3102837  60.6344080
  49.1951370  90.3442764  61.2775040 106.7739330  70.6030846  37.9698658
 106.3093648  71.1752653  38.5806203 106.0804273  70.1281309  37.5119352
  60.9179211  88.9857960  35.9566402  61.2566185  88.2984066  36.5302372
  61.6275406  89.6261311  35.9053063  72.0240498  95.0283813  52.0015335
  71.9573593  94.6429062  52.8751421  71.1786079  94.8430061  51.5927649
  85.1624584  82.6938725  40.4035187  84.8813438  83.3431053  41.0482788
  85.8550644  82.2022629  40.8449364  71.1965656  89.2209816  62.6824331
  70.3072071  89.5560646  62.7964115  71.7608738  89.9718571  62.8667259
  80.7871342  99.9532413  48.7514734  81.2944221 100.6730175  48.3762169
  81.2190247  99.7647190  49.5846415  73.1469010   3.2290758  54.4367218
  72.2760867   2.8352655  54.4898605  73.0101680   4.0497030  53.9633274
  96.1417459   4.0901483  43.6969900  96.1594080   4.8410429  44.2903471
  95.3356384   4.2019666  43.1930923  53.5140324  80.4178905  54.4820309
  54.3077850  80.5286407  55.0054121  53.5867310  79.5345068  54.1206694
  93.6836361   0.9551633  47.1906757  94.3668197   1.6206659  47.1094322
  93.7084459   0.6977094  48.1122684  87.4881672  11.8474020  24.9702001
  87.3841451  12.4208749  25.7294989  86.7330478  12.0444787  24.4159579
  63.3566784   2.4129880  42.4961615  63.4574817   3.3565534  42.6216221
  63.8827847   2.2168840  41.7209291  82.6026821  75.4845333   5.4977864
  83.1548595  75.2091599   6.2295687  81.8416119  74.9056149   5.5409199
  56.2249088  63.8115501  15.1708221  55.7532024  63.2496834  14.5559835
  57.0592976  63.3643103  15.3122652  62.5850344  91.1080933  34.7035122
  61.6837311  91.3908672  34.5488429  63.0773830  91.4613342  33.9625335
  78.8624214   1.6651643  62.8161144  77.9807638   1.3273920  62.6585579
  79.4201349   1.1668123  62.2187662  75.7111645  80.0039577  58.0505085
  74.8117685  80.1131821  58.3593559  75.8698511  80.7702732  57.4993134
  80.5231380  73.7288332   6.0363340  79.8805141  73.5719728   5.3444809
  81.0213661  72.9132700   6.0898381  81.0583805   4.3851484   0.6551281
  80.7943796   4.2928232   1.5705577  81.9260286   3.9829553   0.6143534
  61.0298347  68.7498856  46.9817591  61.1824894  69.6677303  47.2064686
  61.7510653  68.5239601  46.3943720  82.0849133  95.4887486  63.9364338
  83.0014992  95.4669380  63.6614132  81.6395855  95.9810257  63.2468128
  77.9122066  89.3323898  40.2323627  77.0483160  89.7420692  40.2780199
  78.5084772  89.9902630  40.5899858  58.2247877  74.8485470  36.3483810
  58.8626528  74.1722536  36.1203718  58.1961012  74.8379374  37.3050904
  37.3719597  97.4279499  26.4134502  37.7547979  98.2157040  26.7996097
  36.4610839  97.4354362  26.7075300  79.5567513  83.0173492  44.6769476
  79.2726564  82.8995895  43.7704945  78.9959908  82.4286175  45.1820993
  55.0364017  97.8158379  22.2840953  55.9168291  97.6161671  22.6022243
  55.0153112  97.4573708  21.3968062   7.6373348   6.1015810  56.3056850
   6.7895327   5.9413541  56.7201471   8.2704887   6.0299123  57.0199776
  89.2202019  11.7770685  43.3625555  89.9573921  11.7560018  42.7523565
  88.4841703  12.0925153  42.8381634  65.3670549  90.6200218  25.3019452
  66.0895109  91.1999321  25.0611329  65.6091166  90.2809906  26.1637425
  55.9565878  99.4549274  60.6918621  56.7339182  99.8234177  61.1116314
  55.6130075  98.8301086  61.3304377   2.4624214  33.1334413  33.8351226
   2.2156868  32.2182001  33.9681435   2.3801241  33.5320390  34.7014809
   6.6037378   8.7815202  47.3133373   6.7751322   7.8607572  47.5109768
   6.5002499   8.8070692  46.3620949  72.3930502  82.2912216  66.8874311
  71.4560556  82.4565601  66.7828321  72.4609756  81.3397408  66.9667673
   2.7403936   7.0057214  72.0723677   3.5738764   7.0549215  72.5404644
   2.0806561   6.9473852  72.7634382  52.6288033  39.0836954  26.2111259
  52.3933268  39.3004608  27.1132326  52.4752617  38.1413245  26.1433482
  44.2822933  65.8701611  23.3075976  44.8866653  66.3583755  22.7484775
  43.7735653  65.3338766  22.6994610  92.7138923  17.1468843  84.6320343
  91.8186830  16.9314779  84.8936176  92.6908420  18.0864061  84.4503880
  60.8197308  71.0433435  22.0107698  61.5465546  71.6131973  22.2622228
  60.3662062  70.8567524  22.8327966  26.0855827   0.8451284  50.3975105
  25.3786907   1.0543741  51.0080433  26.1169872  -0.1114928  50.3862190
  47.1765900  91.5651131  57.2828007  48.0584908  91.7492962  56.9594526
  46.6788483  92.3587704  57.0863676  76.4499496   5.3226198  24.2476678
  75.6782554   4.7862543  24.4294238  76.1166118   6.0530294  23.7264991
  44.7105789  82.8604984  47.5096464  45.1883411  82.7869225  46.6834736
  45.2742147  82.4286175  48.1515455   4.6661100   3.1970895  25.9125209
   3.8424120   2.8267492  26.2297058   5.2972612   3.0067457  26.6065288
  72.3044109  77.8719091  50.4885244  73.0867434  78.0061150  49.9535656
  72.3330402  76.9452000  50.7264662  95.1701736  99.1924477  24.5402479
  96.1243534  99.2282963  24.4732213  94.9456024  99.9014473  25.1428390
  99.6714472  -0.0783335  33.1247282 100.3801225   0.5607999  33.0504394
  98.8884948   0.4493917  33.2819891 106.9940853  79.0051508  43.8974857
 106.1557865  78.5521221  43.9883900 107.5810337  78.5455990  44.4979286
  47.3343563  97.1659184  45.0302792  47.3077822  98.0982494  44.8151350
  46.5989923  97.0373058  45.6293869 101.3570427  26.7842210  36.4385295
 102.1664165  27.2592557  36.2501526 101.6431259  25.8922399  36.6354156
  85.7013226  85.5864811  47.4003506  86.0900974  86.3974667  47.0726538
  84.7594166  85.7569122  47.4042654  70.0285339  84.6681118  28.5667062
  70.9313488  84.7660446  28.2640958  70.1042318  84.5580673  29.5145392
  67.5173378  95.6943226  61.4101648  67.9092598  95.2475643  60.6598043
  67.9682970  96.5377331  61.4490795  55.3942204  82.8270054  37.0877457
  56.0467243  83.4985733  36.8890619  55.8471823  82.2181034  37.6710868
  97.4458122  93.6693478  59.6188927  97.3950005  94.1669941  58.8028097
  98.1522751  93.0403519  59.4722748   3.1271849  12.7843774  29.5225549
   3.4457979  13.5546316  29.0519881   3.0212078  12.1166242  28.8449788
  55.9732771  76.6631413  49.8243713  55.5142736  76.0354424  49.2662096
  56.8859577  76.6137457  49.5401096  91.6869926  57.7066803  31.8398643
  91.6109467  58.3544588  31.1392736  91.8599319  56.8819714  31.3857937
  94.5538712  71.9549894  61.6967583  94.6424294  72.0699358  60.7506180
  93.6337948  72.1483612  61.8764448  77.0871639  63.7182856  43.9627552
  77.0323038  64.5639563  44.4078016  76.7068911  63.8771772  43.0988216
  60.0033283  90.4865742  26.0859299  60.8788443  90.1307201  25.9340310
  59.4631958  90.0949001  25.3995752  36.5823174  83.6212540  18.1216300
  36.2855625  83.7972546  19.0144861  36.0940051  84.2415237  17.5802910
  35.4428649  91.7351723  45.8855724  35.7224226  92.4739170  46.4262533
  34.7502923  91.3141918  46.3948345  98.2614994  84.6653938  44.7321606
  98.2589626  85.1464081  45.5597162  99.1880894  84.5132923  44.5463705
  95.1958297  21.2509073  22.1689630  94.2998003  20.9345258  22.0538020
  95.3218912  21.8778051  21.4566827   1.0574662  97.2289562  10.5021501
   0.8735215  96.3837528  10.0922525   0.7436596  97.1324444  11.4012861
  58.6351871  94.3978691  38.2529688  57.9882622  94.6857166  38.8970685
  58.6305475  93.4429646  38.3191109  27.8131542   5.4369939  89.1416454
  26.9857464   5.3150381  88.6760712  27.9843197   6.3769830  89.0836334
 106.6563343  10.7564558  39.1435742 106.6798328  10.0885404  39.8288274
 107.5743698  10.8901132  38.9078093  31.0514903  90.9642315  39.1770387
  30.6534076  90.6976891  40.0057220  30.3474236  90.8777714  38.5343528
 108.5687675   5.7180235  82.3208980 108.8804307   6.6159985  82.2080396
 107.8411999   5.7928440  82.9383771  99.5522999  29.2897714  27.8769684
  98.6906742  29.1382707  28.2653999 100.0152658  28.4596361  27.9899168
  85.5025005  91.3926506  82.5691319  84.5698261  91.2328815  82.7134323
  85.9107399  90.5323601  82.6664448  70.1892424  99.8625565  22.6750207
  69.5638323  99.1780186  22.4373150  70.6296253  99.5243740  23.4547162
  71.5134192  71.6936493  45.5669260  71.0052109  72.4128294  45.9420824
  72.2270823  71.5544415  46.1894512  85.7464981  83.4582520  30.2132988
  84.8499584  83.5681343  30.5301166  85.9854507  82.5688648  30.4743099
  87.0373058  80.8872604  41.3618374  87.1595287  80.4670238  42.2131252
  87.5634098  81.6854000  41.4109898  85.8289528 102.0418167  55.1897097
  86.4793301 102.4956512  55.7256842  84.9953938 102.2140598  55.6275988
  67.3123837  81.5085506  75.3121567  68.0016088  81.2763405  74.6898317
  67.7128506  81.3800526  76.1720085  58.7734318  67.3545885  47.2521448
  59.4604206  68.0169296  47.3268843  58.8318729  67.0500278  46.3465738
  97.7591537   1.9521345  27.9223323  98.3688711   1.4516843  28.4645629
  98.2084965   2.0478548  27.0825934  79.5756149  76.5854597  88.6774445
  79.4365406  75.7120943  88.3112240  80.2092171  76.4515066  89.3823147
  86.6669369  74.6992922  88.2712460  86.8133163  75.6355667  88.4061241
  86.8983078  74.5503283  87.3544502  93.4697651  10.5786050  69.4311619
  94.2465757  10.9847463  69.0466547  93.8092397  10.0451864  70.1498127
  72.7681446  91.2399769  63.0519247  73.6165190  90.8266926  62.8916502
  72.8577375  92.1202374  62.6867437  32.8073239  84.0215397  52.6233053
  32.1482372  84.4765282  53.1475353  32.3189211  83.3369446  52.1661139
  68.2425737  57.4334860  52.9988718  67.4249220  56.9460058  53.0990744
  68.7955236  57.1237659  53.7161970  92.3812580  69.1122913  48.9977503
  93.1503201  69.3825769  49.4994783  91.8960476  69.9236012  48.8474798
  48.7317276  93.1917953  66.2090158  49.5069361  92.6595211  66.3878107
  48.1533098  92.6131916  65.7121372  13.4181938  29.7107805  58.8449430
  14.3084393  30.0452531  58.9536238  13.3375321  29.0247072  59.5075417
   8.0162964   9.4350351  26.7979813   7.3270760   9.4004453  27.4613166
   8.2240067   8.5176767  26.6203499  88.3176136  64.6799374  57.6278210
  87.5957489  64.6726179  56.9992590  88.7691307  65.5079794  57.4643803
  95.4836248  20.5110944  30.2053547  95.4393839  20.1802362  31.1024642
  96.3902496  20.3592504  29.9385095  60.8001137 100.2460098   7.7565688
  61.1324406  99.4993782   8.2548982  59.9442959 100.4304600   8.1435883
   3.4883652   4.8408998  38.2975459   3.5435114   4.3154443  39.0957236
   4.3018780   4.6520914  37.8298116  46.2054348  94.0180779  72.1066189
  45.6689262  93.8488388  71.3321829  46.2941170  94.9707985  72.1330166
  40.1490269   5.8512033  56.0870361  39.9877987   4.9076951  56.0815144
  39.2839012   6.2427343  55.9666014   3.8665400  11.4446748  32.0657587
   3.9836035  11.8646921  31.2136340   4.5330439  11.8453420  32.6238561
 106.5969728   8.8812936  41.5161467 106.1398195   8.1058134  41.8415403
 107.5164293   8.7254156  41.7318726 106.3404249   9.5349134  60.5158520
 106.3454460  10.1984132  61.2057638 107.2565721   9.4601453  60.2487898
  57.6366901  74.9489069  63.2948685  56.8145514  74.6238661  62.9278946
  57.3755360  75.4244328  64.0834808  12.3273503 100.8037090  11.4361262
  11.8579995 101.3701725  12.0485520  12.6408612 100.0768757  11.9743240
  44.8089504  87.7360821  50.6656075  45.7297945  87.6279259  50.9034634
  44.4125032  86.8844223  50.8492994  61.5278482  93.6174011  58.1161118
  60.6020403  93.5481644  58.3491755  61.8240786  94.4190025  58.5473061
  89.3150591  12.7432741  40.1492500  90.1316332  12.8402532  40.6391811
  89.4934152  12.0417608  39.5229053  96.9752048  16.2324251  31.2298870
  97.3722862  16.0211767  32.0748305  97.6535629  16.0237993  30.5875993
  59.2373800  81.0124969  47.7844381  58.9039040  80.3982544  48.4384537
  59.6737003  80.4591179  47.1366501  17.5623665  21.3376344  44.2994642
  18.3138523  21.5202821  43.7354231  17.0191727  22.1232713  44.2366076
  28.4434390  76.9369459  63.1302738  28.9963126  76.3231993  62.6466656
  28.8121748  77.7979898  62.9331255  59.9195480  92.6999950  28.7620974
  59.9809170  92.7243710  27.8071761  59.2321157  92.0585632  28.9416265
  88.8916658  44.1251863  51.7576599  88.8649009  44.5059026  50.8798409
  89.6996711  44.4654954  52.1417856  77.8775978 101.6061878  49.7025108
  77.2543335 102.1286774  49.1977501  78.4870052 101.2630081  49.0489960
  45.8855057  99.5240402  24.7281384  46.4627409 100.1864719  24.3483901
  46.4803457  98.8726807  25.0998068 107.8070831  95.5744362  48.7468529
 108.6217976  95.5517292  49.2488098 107.5059795  96.4801121  48.8197851
  64.1755867  97.5295925  41.0174513  63.5790110  97.3024273  41.7307043
  63.6001253  97.7661514  40.2900457  27.7815781   8.6259473  57.0479679
  27.2786961   8.2748807  56.3130522  28.5916767   8.1160654  57.0491600
  98.6613868  14.6061338  39.4588828  99.3939565  15.1408876  39.7648478
  98.0183672  15.2400506  39.1412210  57.7531672  69.7694397  45.7539272
  57.7328730  68.9352036  46.2228346  57.2931194  70.3795099  46.3304710
  26.2716255   9.5169176  38.2933879  27.0283470   9.9448408  38.6939859
  25.5250702   9.8147214  38.8131976   2.8235588  27.2128881  57.5575638
   2.7384481  28.0040945  58.0895281   2.3250399  26.5491022  58.0341101
  79.9648714  77.6708555  52.6243019  79.8330545  78.6009598  52.8080320
  80.2716637  77.3040485  53.4534979  19.0416107  36.2976278  18.8666880
  18.1680355  35.9749330  19.0879381  19.5579968  35.5060781  18.7149060
  69.6948862  98.2755852  50.7711411  69.2124033  97.4807167  50.9983778
  69.1076946  98.7528515  50.1849222   0.2109728  16.2751688  32.5735784
   0.1329670  15.9824480  33.4815788   0.2362881  15.4662336  32.0624852
  73.6147165  89.2039108  60.1652002  72.9154825  89.8279190  60.3599644
  73.4341002  88.9131260  59.2713022  83.9192390  75.4086447  55.1675224
  83.2775593  75.8757877  55.7025480  83.8736916  74.5032787  55.4748726
  22.1787548  91.9317436  23.3660746  21.5853930  92.4435043  23.9158559
  21.7772651  91.9515038  22.4973702  51.0247231  60.4506683  21.0522246
  51.6316414  60.4424095  21.7923665  50.3505039  61.0823965  21.3023829
  70.5092859 100.8442497  47.0795298  71.2470245 101.1166096  46.5338182
  70.7703447  99.9913692  47.4269009  24.0267992  95.2646637  64.4950867
  24.3487477  96.1660957  64.4937611  24.8118877  94.7301197  64.6139193
  97.7224945   1.9270433  58.6311388  98.5625814   1.5746129  58.9248848
  97.1928524   1.9782365  59.4268084  68.5112762  72.6702976  61.6198349
  69.2625093  72.2521305  61.1990976  67.9813671  71.9415474  61.9428730
  73.5298109  57.4378490  34.1966462  73.5699987  56.7736149  33.5086012
  73.4250450  56.9380426  35.0062442 103.3643078   7.8678907  34.3401027
 102.8653930   8.5621179  33.9095592 102.7101825   7.3744501  34.8349380
  71.0184860  77.6322222  25.7160616  71.5651321  78.3933640  25.9111786
  71.6142464  76.8860102  25.7829285  72.8114723  14.8834623  84.7216034
  72.7112173  13.9703573  84.9906921  73.7093138  14.9395860  84.3945503
  43.6648798  98.2992744  32.8958154  44.1873598  97.4978256  32.9262543
  42.7678823  98.0066872  33.0570936  83.9462541   0.7236017  42.5717783
  83.4100984   0.2878393  41.9092941  84.7611212   0.9377397  42.1175051
 104.6243786   6.6066659  74.8740721 105.4668878   6.2459577  75.1502991
 104.2811750   7.0393384  75.6558943  78.4052372  97.5478172  60.6926537
  78.7676144  97.5998402  59.8082304  77.5130177  97.2246170  60.5672884
  12.7789173  38.2470621  16.6055775  12.1259556  38.8830198  16.8978429
  13.6162434  38.6187852  16.8829715  71.0997963  74.4552851  57.4394798
  71.5184212  74.0545464  58.2013130  71.6960669  75.1578569  57.1804619
  68.2328796  73.5844278  26.3013172  68.5051203  72.6860476  26.4884663
  67.3024225  73.6042833  26.5251207  72.5942135  87.6132107  72.8244114
  72.0417166  87.3076534  73.5438633  71.9759989  87.9237080  72.1628714
   6.8775234   2.0819009  16.2692726   7.6291618   2.6462949  16.4501619
   6.5946493   1.7762006  17.1311092  51.0432720  75.5319405  68.5622406
  51.7182064  74.9326849  68.2435131  50.2268744  75.1876831  68.2000113
  81.6569901  86.6118908  59.4600677  81.2923813  86.0853958  60.1714754
  82.4292946  86.1246681  59.1730404  58.7908983  52.0918369  37.2427440
  57.8820372  52.1324968  36.9451761  59.0250540  51.1664534  37.1715593
  76.6310501  69.2869711  47.1155930  77.1163750  70.0704956  46.8571758
  76.6739845  69.2831516  48.0718184 107.0689558  15.7291711  67.5931263
 106.2733911  15.4652227  67.1309185 107.2574543  14.9984563  68.1819820
 104.2053032  80.5557442  12.9241180 103.6216736  81.1566162  13.3873284
 104.8048306  80.2365685  13.5985982  83.9891409  30.3748525  25.5947351
  84.8986696  30.5561365  25.8316398  83.4849046  30.6307329  26.3670731
  82.2481655  20.8106531  42.9723978  81.5214561  20.6635393  42.3670197
  83.0123781  20.9215272  42.4067831   0.2003514  72.0157433  11.0897040
  -0.5274357  71.5600157  10.6667781   0.8092820  72.2080851  10.3766525
  77.5442123  64.9577093  49.4266701  77.7072763  65.5538130  48.6957073
  77.8912640  65.4163837  50.1917839  60.4164076  68.8525486  31.9059420
  60.4447126  69.8030996  32.0149541  59.6727371  68.5723209  32.4394798
  73.5387563   8.4103311  34.0076184  74.4288896   8.7501157  33.9157772
  73.4774660   7.7182210  33.3492398  42.1055460  96.8559074  51.3922644
  41.4080811  96.4188099  51.8808556  42.8881407  96.7319584  51.9293070
  56.8905163  89.2866325  45.3412151  56.9597530  90.2345467  45.4547644
  57.6905346  88.9391136  45.7354593  85.3391457  76.9987583  50.4349995
  84.8949623  76.9851589  51.2827873  86.2011719  76.6213131  50.6101704
  90.0546383  17.6467527  14.8811150  89.8464369  16.7676080  14.5649004
  91.0056852  17.7131189  14.7954285  55.3147888 101.6659737  79.3702745
  56.2683249 101.6508102  79.4525623  55.1403141 102.3592472  78.7337446
  70.8020306  81.4792538  10.8674777  71.6659832  81.8895435  10.9060287
  70.2150774  82.1825218  10.5897558  51.9745884  10.6724561  76.3508844
  52.0382462  11.5868295  76.6267443  52.1134243  10.6976903  75.4041386
 104.0425466   0.9725870  46.8768930 104.3887304   0.7015623  46.0266399
 103.1455778   1.2512792  46.6924906 107.5915979  14.2200960  57.3448086
 106.9093488  14.8864568  57.2627020 107.8578495  14.0376199  56.4436722
  50.5516624  84.2597961  70.5466223  50.8191872  84.7582817  69.7745037
  50.6203079  83.3441639  70.2761793  93.0716991  83.8490295  85.3251743
  92.7476883  84.3494511  84.5762920  93.0521393  82.9382992  85.0312138
  85.1476002  79.3374300  40.0653076  84.9237251  79.5737839  39.1651726
  85.8090305  79.9791574  40.3240061  70.5494118  88.0159378  16.2735498
  69.9150324  87.3474693  16.0148072  71.1501741  88.0762672  15.5308008
  38.1544590  95.9413624  58.0784941  38.7706184  95.6657791  57.3997974
  37.3132873  95.5796719  57.7994919  73.8651371  99.3923378  50.5263662
  74.7483635  99.0248871  50.5599117  73.3536482  98.8408661  51.1183786
  87.1413110  21.9640840  34.9616909  87.8252052  21.2974561  34.8974895
  87.1466564  22.3957551  34.1073704  80.2888489  85.0026989   5.5603880
  79.9007845  84.2012310   5.9114963  81.1339474  84.7247887   5.2070975
  35.9134508  61.1607668  80.0013183  36.2849833  61.5873739  79.2291765
  36.2379051  60.2613089  79.9574016  68.7010574  85.3566170  69.1231298
  68.6213255  86.3028336  69.2437840  67.8617096  85.0056553  69.4207048
  71.7800379 100.5113602  79.2225599  71.4484835 101.0258293  79.9585152
  72.4348640 101.0757160  78.8115406  91.2392496  22.3938859  11.4214289
  91.3384413  23.0170263  12.1412146  90.9237121  21.5928853  11.8398440
  13.1223068   7.7318967  56.3093472  12.6467762   8.5428537  56.4894962
  13.7056980   7.6243986  57.0605659  99.2368793  96.7849541  79.6288633
 100.0647640  97.0925713  79.2597961  98.8428879  96.2621498  78.9305162
  64.4793081  35.9032989  10.4403758  65.2755165  36.2764430  10.0621581
  64.1035128  36.6154075  10.9579754  79.0047693  80.0340080  78.0730295
  79.3882751  80.8957577  78.2359076  79.5502377  79.6555424  77.3834944
  88.2918358  64.9372864  42.6463032  89.0904999  64.9760294  42.1201229
  88.4408855  65.5638933  43.3543825  97.5975323  77.6389885  57.0715332
  97.6014423  76.6818666  57.0833397  97.9878712  77.8697205  56.2285471
   6.2030277  19.5422472   5.1197445   6.0362158  18.6046518   5.2163196
   5.8216009  19.7672189   4.2711377  78.1294775  93.2425404  43.6693573
  78.8384056  93.4795094  43.0714464  77.4153566  92.9644203  43.0958509
  67.3995495  88.1195736  12.6430142  66.7161655  87.4528694  12.7118242
  66.9226837  88.9488983  12.6106691  10.0431359  75.7459593  64.0184116
   9.3666160  76.3335991  63.6819077  10.1826143  76.0331297  64.9208021
  73.4674929   1.9337858  68.2744789  72.7784799   1.2972654  68.0838776
  73.3950948   2.0904077  69.2159986  47.7240324  85.2333641  34.3350053
  48.2820559  84.5506191  34.7074175  47.2448444  85.5864143  35.0846553
  49.8084736  63.0076504  55.3372478  50.1386166  62.2468281  54.8593521
  50.1934719  63.7591887  54.8864746  72.8610325  82.7734661  63.7408495
  72.6901579  83.0553913  62.8422117  72.0220900  82.8806019  64.1891050
  98.7391853  87.2716999  17.0311832  98.9459133  88.1548882  17.3369384
  97.8802299  87.0824337  17.4088252  42.5457478  95.0999832  36.8197203
  42.8397799  94.3099213  37.2731328  43.3398390  95.4579163  36.4228106
  52.9456520 101.0973644   6.7144179  52.3800325 100.5281258   7.2362190
  52.6710558 101.9847488   6.9454527  71.3450289  84.9764252  40.9179592
  71.5426302  85.8851433  40.6911993  71.2454605  84.5352745  40.0743341
  99.7383022  87.2565460  29.3424702  99.3087864  86.4548206  29.6407795
  99.8402500  87.7829266  30.1354098  65.5956268  79.4553661  37.2709537
  64.9426556  80.1253033  37.0683479  65.5846024  79.3912172  38.2259369
  46.3130379  89.2233849  22.2462630  46.1372900  88.4851456  21.6628623
  47.0121622  88.9128304  22.8216004  57.1794176 102.3293209  33.7857819
  56.2902260 102.0494843  33.5684037  57.7446604 101.6949654  33.3449554
  70.3017807  84.6185780  31.3570261  71.2466574  84.7581863  31.2941861
  70.1963997  84.0238953  32.0996428  45.7176352  84.5999432  32.7624989
  45.5294704  85.3952503  32.2641921  46.5207672  84.8023415  33.2423425
  90.7560825  71.0285234  48.4330511  90.2553844  71.6526079  48.9584589
  90.1581478  70.7727528  47.7307034 100.4582405 102.9071236  88.0513382
 100.7365894 103.3052158  87.2265530  99.5333385 102.7001858  87.9172897
  58.6241961  70.3821087  16.8259418  58.1940222  70.1123619  16.0145116
  59.5147991  70.6111145  16.5602064  67.3392318  33.4859193  35.2036166
  67.2455596  34.3913091  35.4998088  66.7889022  33.4313596  34.4223404
   3.4632431  76.4723063  68.0450535   3.0124317  76.6201973  68.8763952
   3.2914864  77.2640610  67.5352907  51.2861204  91.7121410  58.0019188
  50.8383751  90.8841419  58.1756401  51.8657684  91.8333530  58.7539482
  11.0382996  13.5570825  45.6835938  11.6512642  13.2173360  46.3355780
  10.2355061  13.0554117  45.8252764  85.2850056  77.5919580  61.9450235
  85.1015472  78.1746721  61.2081194  85.0633812  78.1085253  62.7197933
  60.1828289  74.6981001  19.1141319  61.0163260  75.1081276  18.8830745
  59.5249319  75.3643990  18.9154887  47.2980547  86.8540382  29.1595149
  46.5890741  87.0827293  29.7605801  46.8558216  86.6389561  28.3382940
  59.6576357  96.1723804  31.8577123  60.2346849  96.0368252  31.1061311
  60.0642300  95.6719780  32.5651765  70.9540939  74.5830154  42.2993183
  70.0209236  74.7961617  42.2996616  70.9851027  73.6428833  42.4765921
  91.7770504  22.8167261  54.1841364  91.5876840  21.8788637  54.1561699
  92.0473789  23.0332006  53.2917833  91.5736269  13.7435735  41.6468143
  92.5042032  13.9677728  41.6475534  91.1382507  14.5270170  41.9828129
  82.3470879  65.5323935  35.5862355  81.5823746  65.5250978  35.0105691
  81.9817448  65.4968929  36.4702582 107.5234102  16.1654199  77.4080706
 107.3152040  15.2399744  77.5362873 107.4965881  16.2877096  76.4590931
   9.3777523   9.5940412  46.7359591   8.7778816   9.6497930  47.4797869
  10.1574764   9.1652788  47.0886898  18.7399349  12.7807630  15.0521791
  18.5643921  12.3244585  15.8750987  18.2782803  13.6149133  15.1376450
   4.1782341  10.1582921  35.5298424   4.9155865  10.7674230  35.4911947
   4.5247612   9.3399061  35.1743245  94.1659855  20.1225103  52.4921560
  93.7310909  20.4911912  53.2610369  93.5891174  20.3444589  51.7612696
  80.1560138  11.8689836  50.0428629  81.0284113  11.9898237  49.6679592
  80.2542948  11.1317934  50.6454563 103.5433865  79.0905285  38.0990243
 103.0449009  78.6021042  38.7541437 104.1529465  79.6230936  38.6099482
  89.0278076   8.8038553  83.7840080  89.3828224   8.2467664  84.4767094
  88.8789724   9.6486581  84.2087269  18.1298695  30.4149354  49.9644089
  17.5649223  31.1559404  50.1834631  18.0724678  29.8368753  50.7251883
   0.6284390  27.8332723  13.5809290   1.4527950  27.5802816  13.1653905
   0.5008183  27.1854032  14.2738998  86.9268608  94.9120903  36.9980764
  87.6747990  94.4651222  37.3943520  87.1907711  95.8313274  36.9582677
   1.4768038  10.5174459  47.1975660   1.3338480  10.0347532  48.0116892
   0.6394968  10.4633916  46.7368889   8.5047699  80.0456831  83.7120252
   8.3211399  79.3506167  84.3439971   9.3052078  80.4586527  84.0360354
 107.0133495  61.8619776  40.9943342 106.7147923  62.4942207  41.6480589
 107.0235825  61.0246849  41.4580870  91.0531139  79.0844202  76.2084818
  90.8783245  78.5219097  75.4539919  91.9762897  79.3219185  76.1214113
  51.0444889  15.9635843  41.8050861  51.4708767  15.1923383  41.4314556
  51.2780724  16.6774381  41.2117195   9.4843899  93.0911827  40.7330608
   9.4387757  92.1351051  40.7253313  10.4105603  93.2879162  40.5925512
  55.3293514 101.2430096  44.2962265  55.3264189 100.8280563  45.1588011
  55.2556515 100.5144978  43.6797285  86.8776964  10.2182687  88.3387947
  87.6374410  10.0076307  88.8816166  87.1972536  10.8807767  87.7262688
  79.0504789  80.2626610  85.8912468  79.0104294  79.7968245  85.0560093
  78.6826229  79.6480227  86.5261745  89.2577553  80.3777981  57.6196098
  89.3065357  79.4265890  57.5244713  90.1268959  80.6324100  57.9294443
  33.3345757   8.7290967  57.7159548  33.3849106   8.3927549  56.8212080
  32.3967323   8.8149560  57.8871536 107.2944664  46.4269937  31.2484574
 106.8950294  46.1634935  30.4194498 106.8192648  47.2181142  31.5025115
  88.8551115  23.4167875   8.6633104  88.6710190  23.3276380   9.5984006
  89.4275831  22.6769937   8.4603083   5.7267389  14.3496145  40.8304977
   6.2588797  14.1145242  41.5906239   6.3052330  14.8880113  40.2904081
  11.8240128   1.6474737  88.9748478  11.5882835   1.8938173  88.0804253
  11.3883457   2.2982515  89.5252323  14.2547283   1.9274915  65.3837776
  13.6278114   1.2598432  65.1054859  14.0505371   2.6889146  64.8408508
  68.3558893  79.4793367  35.9224033  68.8020086  79.2386436  36.7343593
  67.4652433  79.7001457  36.1948562  71.1299037  16.7356313  78.5643864
  71.8697284  17.2538866  78.8810873  70.7922434  17.2311891  77.8183079
   5.5627642  58.2839883  54.1605377   4.7242460  58.1878007  53.7090206
   5.5446062  59.1739763  54.5124197  15.5880032  53.1555665  30.8787870
  15.5189953  52.5614370  31.6261053  15.4887924  54.0291131  31.2573290
   4.3289576  14.4867910  49.1135359   4.1289196  14.6021665  48.1846094
   5.2842436  14.5260728  49.1595030  99.5490932  96.4955425  58.4750462
  99.9511337  95.9317017  57.8142262 100.2585888  96.6904926  59.0872908
  52.1468973  78.7119818   4.1748089  52.3828650  79.5764399   3.8382554
  52.6981163  78.5977125   4.9489748  11.4219437  29.5473779  50.8924532
  11.2586746  30.4792894  50.7471371  10.6588421  29.1089738  50.5160141
   9.1592251  89.7509766  22.7975011   9.9527775  89.2166805  22.8295684
   9.3541371  90.4308414  22.1524954  44.3115482  14.4111742  13.2449865
  43.6197147  13.9729322  13.7405074  45.1200161  14.1681875  13.6961830
  98.3416271  87.7977371  53.6766863  99.0612316  88.4283161  53.7043381
  98.5633755  87.2128868  52.9521132  24.6088181  60.4692567  51.5811110
  25.5547009  60.6097139  51.6234827  24.2331657  61.3472856  51.6456985
   2.7400694  28.8882459   8.2312119   2.8354702  28.1046022   7.6898909
   3.5203991  29.4083513   8.0393326 103.2582067  45.9018625  39.9676299
 103.8830303  46.0149587  39.2513609 102.4007868  46.0164941  39.5578527
 107.6877378  25.7394041  45.6295872 108.6035751  25.7481874  45.3513765
 107.2148823  26.1579813  44.9102592 108.8174652  14.7332395  28.4357762
 107.8689598  14.8498071  28.3812213 109.1398643  14.9847711  27.5703168
 108.8328575  19.8367132  19.7069895 108.9546226  19.9379743  20.6509972
 109.6481775  20.1606859  19.3242085  90.7978653   1.9373430  37.7111888
  91.5859722   2.3966325  37.4210572  90.5165457   1.4370264  36.9451809
  10.3647289  30.5957998  59.8763132  11.1470184  31.1215414  59.7094393
  10.4275189  30.3600896  60.8019114  53.6127434   5.4982389  43.5964203
  53.6206207   5.4403604  44.5518351  52.6931248   5.3831304  43.3570719
  72.0679760  92.9383183  35.7513714  71.7472744  92.6164150  34.9089003
  71.5742302  93.7440968  35.9035707  22.2880230   9.2208875  42.5285530
  22.1420155   9.4604696  43.4437084  21.4384708   9.3531908  42.1078587
  30.3727398  10.8879961  36.8338013  29.6949158  10.6388010  37.4620461
  31.1794338  10.9114374  37.3485208  22.2102604   5.6584085  84.4258976
  22.3352585   5.1022638  83.6569309  22.7780590   5.2744497  85.0940323
  49.4119930  81.2872887  47.2296476  49.3688202  81.7456436  46.3904285
  49.6316242  80.3847313  46.9985867  82.0727228  33.9265645  76.8599987
  82.4059747  33.5591997  76.0413313  81.9954942  33.1739248  77.4463415
  93.5043240  98.1634235  48.6962652  92.9946518  98.9331532  48.4433270
  92.8507519  97.5307274  48.9942026  84.7244930  75.5015659  65.6806278
  85.6059456  75.1769543  65.8647490  84.5284081  75.1768923  64.8017836
 103.7523245  35.8583845  40.5364609 103.5332512  36.7901720  40.5332422
 103.0992674  35.4568208  39.9633121  78.1032324  91.9295597  67.9901600
  78.6455345  92.0724201  67.2144461  77.2617722  91.6335773  67.6429272
  56.4856529  92.0981789  46.0067701  55.6821346  92.6015091  45.8754444
  57.0261431  92.3067188  45.2447891   8.9079247   2.9224409  41.1290693
   8.1713352   2.3132337  41.0787916   8.6041222   3.7041677  40.6677389
  33.1898975  96.0552979  44.0454483  33.3696675  96.5228653  43.2297945
  34.0413761  95.9925175  44.4781971  22.5016651   9.8849214  88.2338619
  22.2622833   9.3173231  87.5012302  23.0014000  10.5959333  87.8326607
  92.0718002  76.6977167  39.9084949  92.9459953  77.0852232  39.8653245
  91.4770794  77.4477482  39.9085665  28.3540878  33.8070119  20.4846525
  27.9901848  33.4613145  19.6696043  29.2732678  33.9807905  20.2818274
  15.2646980  16.5753377  52.7537870  15.7851753  17.2655309  52.3427296
  14.6680317  17.0417512  53.3391809   1.8845520  42.7047075  48.8656139
   1.2111149  42.1305574  49.2303753   2.5831995  42.7002347  49.5199108
  82.5276089  85.9192753  37.1664333  82.4284935  86.8284893  36.8840384
  83.4621620  85.7379913  37.0665669   6.3959370   6.6987432  22.1844006
   5.4500351   6.8245901  22.2596526   6.5603075   6.6761316  21.2416911
  89.9907087   5.8438409  58.9639616  90.1271366   5.1281084  58.3432007
  89.5039247   5.4455579  59.6855211  19.7373997  84.5527554  16.9696438
  19.5837723  84.2419243  16.0774481  19.2128216  83.9708996  17.5196433
  98.0155443  26.6181577  42.2755241  97.3024582  26.0415185  42.0012331
  97.7200435  27.4960054  42.0340872  87.4203968  85.7228184  55.8897543
  88.0643559  86.3952541  55.6675243  86.8122864  85.7199383  55.1505518
   6.2083874  14.6159566  30.2125335   6.4372454  13.9933980  30.9026670
   6.8410740  15.3272928  30.3122067   1.0258900  81.7419720  50.6715012
   1.7843663  81.2363815  50.3794050   1.3039147  82.1343899  51.4991140
  63.8174629  79.2114544  27.2739673  63.6506271  78.7661552  26.4432406
  63.0346203  79.0419245  27.7980375  18.0886326  27.9372037  13.7193263
  18.4456692  27.5026620  12.9447699  17.6049957  28.6866296  13.3719385
  88.0205917  85.6229401  51.4235783  87.2038841  85.1799202  51.1934566
  88.2448196  85.2781200  52.2879028  23.3047032  99.5829582  43.1890869
  23.7234640 100.4099655  43.4276724  23.7228680  98.9315605  43.7521601
 103.8026594  13.3705438  21.2753177 103.4455847  14.2446149  21.1180520
 103.8744520  13.3089651  22.2278333  27.5581322   2.1398939  22.5926256
  26.9749794   1.9221319  23.3197713  27.5297794   1.3703168  22.0241332
  96.9614385  41.5995706  32.3071527  96.6639255  41.2274946  33.1373787
  96.9902633  40.8542074  31.7072940  85.3400635  22.8782857  39.2595077
  84.7633861  23.5319341  38.8639975  86.2183737  23.1294740  38.9736652
 102.5570892  24.7472299  31.0008216 102.6763128  24.3511117  30.1376271
 102.3980020  24.0056528  31.5847588  90.2058220 101.0727406  10.8701456
  90.3510857 100.1402473  10.7101917  89.7252655 101.1018181  11.6974616
  17.8231297  10.8595384  32.9768562  18.6773167  10.4920114  33.2038689
  17.5252590  10.3328813  32.2351408 104.2048264  85.3825569  29.4698548
 103.6054611  85.9802532  29.0229249 103.6534214  84.6484566  29.7405672
  46.1859226  84.8015881  45.8342600  47.0025158  85.1778603  46.1626148
  45.5315065  85.0393009  46.4911222  75.4413939  76.0152912  55.1045942
  75.8163166  75.1708794  54.8543262  75.4544592  76.0089302  56.0616875
  57.1455908  82.7931118  48.0980253  57.9315329  82.3978424  47.7208090
  57.3986149  83.6969376  48.2859087  82.1084213  99.4686413  21.9667745
  82.0600891 100.3841782  22.2418809  83.0222321  99.2230511  22.1112776
  21.3836346  11.2140192  63.3707380  20.6382999  10.6138242  63.3486509
  22.1513615  10.6443895  63.3222866  71.3984966  68.4800959  55.5588150
  71.3618517  69.3069601  55.0780010  70.7154036  68.5597038  56.2246037
  23.5735092  31.1930574  44.7933245  22.9718552  31.9227041  44.9411726
  23.2587013  30.7824434  43.9880180   4.4927082  37.9595102  34.6324277
   3.6819563  38.4577383  34.5290971   4.3373690  37.4051870  35.3971672
  18.9143238   2.6366533  49.2738390  18.1876812   2.0245756  49.3904209
  19.5337925   2.1690858  48.7135983  80.4066372  86.1982441  56.8255234
  80.7438564  86.2192726  57.7211094  80.9982395  85.6064987  56.3606787
 105.5546545   9.2320264  63.8781595 105.1560329   9.9207223  64.4101715
 104.9980472   9.1770280  63.1013727  37.2813441  46.6352961  88.1490620
  37.1836878  45.7373068  88.4657617  37.7395273  46.5460608  87.3133977
  95.6264496  88.6843204  24.5169115  96.5754509  88.8047600  24.4833899
  95.4004669  88.3228302  23.6598849  79.5872879 100.7925797  37.7761865
  79.6070147 101.5666866  37.2135019  80.2828121 100.9438896  38.4161735
  83.7710094  98.8150978  49.4940424  84.6067429  98.4896755  49.8285151
  83.2506180  98.9892578  50.2783251  34.6064720   1.7676176  36.9775748
  33.8299046   1.3785280  36.5753484  34.5272884   1.5538419  37.9072309
 103.0742239   4.7192586  31.0053253 102.4157404   4.8497499  31.6876769
 103.8881468   4.5638669  31.4845061  92.2627640  88.8317680  60.3510904
  91.9324780  88.3433247  59.5970583  91.5067673  89.3280220  60.6648302
  76.7934250  23.9882673  26.8673682  76.2065362  23.2891096  26.5793180
  76.9092201  23.8327802  27.8047299  39.3923172  71.6570655   0.2172620
  40.1284632  71.8720428   0.7900579  39.1138538  70.7865230   0.5016096
  32.6613579  19.3279756  37.3496532  33.1007633  19.6813501  38.1231380
  33.1961021  19.6254171  36.6135788  48.2435131  89.6752357  30.1697302
  49.1351461  89.9284554  29.9307609  47.9568481  89.1055965  29.4558930
  17.4967800  84.9871063  50.3948545  17.1585118  84.4774914  51.1311245
  17.7484833  84.3309784  49.7449589  15.3614365  92.5604439  52.6624250
  16.0265957  92.7105808  53.3341742  14.5384060  92.8161144  53.0789471
  61.7522860  94.9195957  55.6782866  62.2804832  94.5053387  56.3606548
  60.9023046  94.4831085  55.7352686  47.9905319  71.3702250  18.8855493
  48.4853649  70.5575275  18.7811697  47.1123695  71.1582756  18.5690975
  42.0351753  11.5918649  49.3516064  41.1603699  11.3636030  49.6660042
  42.5836239  10.8514417  49.6108723  40.9177742   5.8574785  51.6099024
  41.7773590   5.4452718  51.5237522  41.1081276   6.7907155  51.7051268
  80.6383514  74.1835546  25.5548859  80.9271812  73.5152674  26.1763406
  81.0474205  74.9915648  25.8647561  36.8082581   5.8224023  57.2360897
  36.0447369   5.9738267  57.7931643  37.1649227   4.9878229  57.5402403
  10.9043369  30.5263341  40.0768805  10.0613556  30.7735265  39.6967435
  10.9757862  29.5864404  39.9103427  73.9739752  99.3169403  40.3593922
  74.8978424  99.3327904  40.1095057  73.5328484  98.8996124  39.6194744
 101.7945789  32.7182687  41.7738247 102.6148771  32.2922529  42.0225191
 101.1204838  32.2406686  42.2572851  76.0021089   6.0773767  64.1416502
  75.8292364   6.2810529  63.2224846  76.7841743   6.5856946  64.3566179
  99.4576668  14.8104013   0.6522072 100.0563740  14.2593397   1.1562964
  98.7177204  14.9606813   1.2405308   1.7729578   8.2890237  68.4064007
   1.0211811   8.5702241  67.8848791   1.8629894   8.9633096  69.0797997
  97.7474308  79.7245502  62.2566414  97.6534843  78.9885044  61.6519547
  97.2549438  80.4356480  61.8467236   7.6243076  21.8316473  43.6247778
   7.0101605  22.4553884  44.0120888   7.4725590  21.0170759  44.1040182
  94.9076462  70.2774191  49.2810917  94.4961262  70.7762766  48.5753822
  95.6363487  70.8269882  49.5695210  72.1387243  97.5717449  52.0225334
  71.2051916  97.7832317  52.0184946  72.1675539  96.6156673  52.0589209
 108.5340046  23.3851636  60.5791950 109.1441225  22.8711141  61.1080980
 108.9421295  23.4256757  59.7143078  50.7188702  70.5272675  69.0116358
  50.4160881  70.9092951  68.1878567  50.7792282  69.5888996  68.8325882
  86.7340183  75.4340219  81.4296055  87.2287941  75.3598309  80.6135559
  87.0953465  74.7488356  81.9919109  33.4644756   7.2808946  16.8765342
  33.7828121   7.4714864  15.9941673  32.7049885   7.8531087  16.9859517
  58.2030296  99.4280624  36.9500899  58.3578873  98.9880657  37.7859449
  57.6132536  98.8415813  36.4763474  76.2806416  86.3533688  70.0777531
  75.3273916  86.2672520  70.0661516  76.4476538  87.2175026  69.7014427
  88.8495350  97.9402542  44.2332697  89.1016006  98.7035561  44.7529459
  89.3706608  97.2226334  44.5933819  78.6809921  93.3679676  80.7632160
  78.7867212  94.0048409  81.4699364  78.4371376  92.5557899  81.2072086
 103.3524895 100.7497120  36.7802191 103.5814571 101.2661743  37.5529218
 103.1813049  99.8717785  37.1210432 104.8135065  17.1274770  52.3880720
 104.5554613  17.8504289  51.8162537 104.5113968  16.3419164  51.9321442
  90.0126362  89.6864414   5.9265596  90.6192684  90.1985168   5.3917724
  90.5078697  89.4798374   6.7192036   3.1962500  33.6060632  60.7729721
   2.6775703  34.3324293  60.4271507   3.7324820  33.3210767  60.0330591
  84.9480890  23.5487665  44.5539141  84.4102215  24.2451204  44.1770601
  84.9615310  22.8666032  43.8825703  14.9408661  96.2250710  33.9645267
  15.4152428  95.6569290  34.5714927  14.2062317  96.5626431  34.4769573
  91.8002701  97.6197720  36.2656975  91.3692474  97.2652340  35.4880404
  92.7207661  97.6974392  36.0149097 108.4724878   9.1673387  67.7701616
 107.7713035   8.6943449  67.3220062 108.3467888  10.0810445  67.5140667
  26.6217003  48.0275739  27.8934669  27.2248612  47.3460401  27.5969315
  27.1361790  48.8340486  27.8595138  84.6892761  13.8410581  38.5639739
  84.0190195  13.1987489  38.3306885  85.2816223  13.8529314  37.8121638
  48.8214350 102.1354008  44.6542788  48.5601854 102.5656796  43.8401318
  48.5978842 102.7645683  45.3401375  43.5309372  33.9848436  46.5841436
  44.1728935  33.6103357  45.9809303  43.9496765  33.9310754  47.4432135
  55.7551323  14.1397584  12.2801304  55.0746809  14.3623937  12.9154658
  55.3084646  14.1600622  11.4337802  92.1082115  79.3466043  60.3326797
  91.2954235  79.8220158  60.1606941  92.5611305  79.8761225  60.9889650
  27.2658882  10.4483427  35.9255028  27.0095978   9.9065031  36.6717982
  27.8467617   9.8879636  35.4109287   0.6802689  95.7694054  45.5747890
   0.9972225  96.2477875  46.3408947   1.4754044  95.4815388  45.1263189
  15.7227287  48.3919919  65.7656145  15.4432068  47.6280702  66.2701225
  15.9690914  48.0376829  64.9112082  97.7222894  38.4785474  51.2758303
  97.8928016  37.9755796  50.4794836  98.5359930  38.4178842  51.7762661
  49.5686245  96.4958096  72.6737833  48.7953663  97.0143700  72.4515104
  49.4095325  95.6430435  72.2691774  60.0074863 100.6868076  34.9624968
  60.6179380  99.9504280  34.9260926  59.1965294 100.3090286  35.3028870
  23.1164799   5.9883035  63.3208990  22.7168522   5.5299581  64.0601158
  23.2904301   5.3004945  62.6783276  50.9189034  82.0326519  58.9709663
  51.3010740  81.3894367  58.3739233  50.0767660  82.2564411  58.5747957
  70.8115864  82.4500179  70.6070232  70.2309132  83.1027126  70.9982204
  70.2240801  81.7578220  70.3038168  15.1221714  10.6605733  51.5593672
  14.6822701  10.1858057  50.8541584  15.6376610   9.9931730  52.0122147
   7.7834282  22.5189413  59.3882561   7.9926167  22.9773820  58.5744333
   7.1375046  23.0786623  59.8192263  80.5650139  94.3847847  43.0741167
  80.8877850  95.2778149  42.9535484  81.1984921  93.9790058  43.6659575
  96.3445854  60.7122898  44.4954491  96.7682648  61.3557768  45.0634766
  96.7800808  60.8161163  43.6494017  66.4196920  83.5166740  17.7685082
  66.8425179  84.2794991  17.3741031  67.1447802  82.9776955  18.0847001
  85.0588036  62.9910231  38.3483839  86.0099792  63.0919933  38.3844972
  84.8524094  62.9989910  37.4137354  88.4305286  83.9640331  53.8235378
  88.0925083  84.0799618  54.7115326  88.9971447  83.1947327  53.8814783
  43.7802944   7.5364030  77.5434780  44.0644703   7.5345720  76.6294384
  43.4423981   8.4203351  77.6874733  10.5960808  19.0603555  61.6478491
  11.4182434  18.8074316  61.2279558  10.2864227  19.8082746  61.1370182
  92.4810123  59.4482660  45.9826708  92.9514885  59.9496222  45.3166914
  92.9530907  58.6172056  46.0347795  82.3613739 100.1086617  34.8051023
  82.5686932  99.7345066  35.6614113  82.2669697  99.3502235  34.2288351
  68.3646250  98.6690521  32.8242636  68.0876350  99.5561981  33.0533457
  67.8274345  98.4386349  32.0662665  58.1072187  88.6126900  42.5789309
  57.4886513  89.1291428  43.0955410  57.5553751  88.0329227  42.0539808
  71.4764977  75.5708599  45.8282232  72.2236586  75.6260347  46.4239883
  71.8612194  75.3421879  44.9820995  22.2757912  69.3367720  43.5708857
  22.3405862  70.2526855  43.3004475  22.0926833  69.3765736  44.5095634
  75.9776688  97.8758430  56.0128689  76.3644505  98.4015465  55.3126764
  75.8953238  98.4814835  56.7495203 106.2555908  17.0313943  27.6883245
 106.4362262  17.3083414  26.7900467 105.9058880  16.1447633  27.5998688
  98.2645512  88.5484695  27.4410558  97.5689697  87.9126167  27.2734451
  98.8227844  88.1262493  28.0939984  74.1413736  87.2221661  42.9247999
  74.5760727  86.3694382  42.9132748  73.7364149  87.2728825  43.7906313
 107.6393484  14.5164503  72.4615288 106.6903232  14.5253004  72.3370266
 107.7708982  14.9022687  73.3275938   1.5956984   4.7774423  62.5700712
   0.8507977   5.0342859  62.0265770   1.2167082   4.2149843  63.2455301
  72.0532511  18.5863126  46.2277222  72.8195094  18.1610025  45.8427668
  71.5363907  17.8665460  46.5896845  94.3142055  14.4670404  46.1114740
  94.4752096  13.5491479  46.3300657  93.5082172  14.4525159  45.5953264
 109.1416836  93.1708908  74.4648266 109.1609383  94.1134357  74.2990875
 108.5833931  93.0747318  75.2363777   3.5455761  12.0645441  38.1155181
   4.3951855  11.9364274  37.6936412   2.9074154  11.9276250  37.4153495
  33.3798466   0.6769861  74.5322657  33.7275467  -0.0025641  73.9547348
  32.6666508   1.0742010  74.0324688  90.6654762  11.0091985  33.9806342
  90.1864551  11.5951074  33.3945608  90.0857662  10.2557577  34.0923977
 100.8728288  35.7693208  49.6121740 101.5049337  36.4515508  49.3858147
 101.3672708  35.1552785  50.1550436 104.8395752  45.8407415  52.0656776
 104.8737119  45.7689870  51.1117840 105.7559274  45.8129037  52.3409128
  31.4360867   3.5488809  21.0253716  31.5464363   3.1409181  21.8842196
  32.2895203   3.9374841  20.8333659   9.9948082  42.4877275  25.7136083
  10.3198586  42.9479993  24.9398327   9.0460739  42.6114286  25.6849337
   2.6395521   3.2657827  52.3394442   3.0255232   4.0657152  51.9825411
   2.8432951   2.5916399  51.6911793   5.4891335 102.3192883  46.8371820
   4.5568119 102.3963356  47.0398474   5.9210240 102.3229218  47.6913977
  80.3498625   1.3728441  37.4701953  81.1870216   1.4462961  37.0119309
  80.3381513   2.1196950  38.0687857  63.6204958  98.6818981  55.5590010
  63.4480715  97.9503632  54.9662447  63.9640522  99.3730545  54.9928665
  80.5775738  92.6623154  83.0294037  80.0963306  93.4737396  83.1913185
  81.1964417  92.6015949  83.7571049  30.1721726   6.1604513  63.9986658
  30.3900108   7.0630277  63.7660074  30.7066212   5.9765924  64.7711897
 107.3185610  32.1250547  22.7063990 106.7466282  32.0640100  23.4715080
 106.8026375  32.6062597  22.0594859  81.8293285  99.7238255  51.3258648
  81.3964081  99.0357018  51.8311310  81.5751934 100.5371094  51.7619991
  61.6508007  93.6867809  38.4314060  62.0474720  94.2877483  39.0620542
  60.7082272  93.8122749  38.5411572  12.2644768  12.8215612  41.0780001
  12.9346905  12.2222913  40.7494831  12.5538406  13.0424608  41.9632673
 109.0935655  22.0848107  38.1446815 108.1997024  22.1762180  38.4746575
 109.5009231  22.9334259  38.3183002  16.6686237   4.1760451  68.7629461
  16.4652944   5.1084566  68.6887980  16.8061340   4.0346369  69.6996021
  78.6384758 102.5758203  31.4510489  78.2019963 102.8167109  32.2681713
  78.5453060 101.6244720  31.4011717   3.0188781  10.0405383  40.1819468
   3.1514052   9.3868321  39.4954085   3.3973342  10.8436751  39.8242140
 101.9228640 101.7048306   7.8002495 101.9036593 102.6613347   7.7692193
 102.7683439 101.4697199   7.4179947  57.4661303  15.0965369  36.1017990
  58.2295179  14.8251581  36.6115284  56.9685030  15.6580186  36.6962242
  33.3672047  24.1505909  30.1263928  32.4844551  24.5154309  30.1886559
  33.2722402  23.2430816  30.4156041  26.0818863  13.2984054  27.3930693
  27.0003390  13.2436383  27.6570296  25.9208226  14.2350721  27.2792888
  51.1752033  18.8990629   7.9327399  51.6404724  19.0577948   7.1114236
  50.7253647  19.7237647   8.1164348  50.2305269   3.7807655  12.3239779
  50.6585646   3.0031329  12.6821756  50.9354448   4.4219854  12.2336459
  31.3415885  44.5207834  26.3429594  32.1202898  43.9772701  26.4631605
  31.6597843  45.2962589  25.8807707  68.9726162  18.5095608  79.8004913
  69.1518497  17.6326442  79.4611883  69.4985867  19.0909743  79.2513561
  85.4857864  93.1765538  35.4302168  86.2591197  93.5039537  35.8895612
  85.4385843  92.2511243  35.6701851  93.1671491 102.2669185  37.3481274
  92.3832371 101.7598972  37.1368384  93.0912104 102.4459269  38.2853675
  40.7631350  28.7143970  42.9224491  41.6730642  28.8158751  42.6432323
  40.2695990  28.6346579  42.1061802  18.3037735  71.5178978   9.5792884
  17.8434492  71.9662606   8.8698500  18.4378220  72.1944343  10.2430367
 107.4749487   9.6395355   8.7514478 107.6722915  10.0486994   9.5939875
 108.3322734   9.4681740   8.3617532  12.8845513  20.0658560  23.8510299
  12.9962671  20.9963012  24.0460324  13.7717378  19.7074592  23.8771629
  97.2826447  90.8368074  64.6289110  97.0063534  91.6166984  65.1102257
  97.7045765  90.2855777  65.2879620  23.1353498  13.6027634  36.5915895
  24.0248728  13.3810997  36.3161922  22.6281905  12.8081226  36.4255548
  93.6893167  94.1631298  19.6274424  93.0711069  94.2806118  20.3487229
  94.5307388  94.4473254  19.9844801  41.4241171  25.9121370   6.3436460
  40.4850483  25.7636809   6.2325549  41.6264343  25.5357194   7.2001559
  79.9443557  85.4810618  38.3374262  79.9904599  84.7784268  38.9858174
  80.8535387  85.6245612  38.0746984  99.3844047  73.7729656  42.0877838
  99.4895163  72.9591118  41.5950108  98.4397712  73.8523351  42.2204447
  36.8884921  14.7212434  12.1468139  37.1946430  14.4541454  13.0135083
  36.3731384  15.5116177  12.3079121   3.7340313   7.2625446  48.0033064
   3.1723323   6.9420475  48.7090015   3.1836876   7.2204459  47.2212696
  25.8378530  26.7399597   7.4477738  25.4277182  26.6016078   6.5940297
  26.4646506  27.4482298   7.3004234  37.8080273  33.7003326  10.3341806
  38.0774546  34.0239000  11.1938000  38.1087780  32.7918053  10.3151917
  83.6665144  88.7740289  44.4522762  83.3155324  89.2459702  43.6970806
  84.4737198  89.2394089  44.6715260 100.0011911  68.7312185  67.5392199
  99.6910872  67.8453886  67.3511362  99.6762600  68.9167081  68.4202671
  17.1450341  17.0665753  37.7294850  17.2347856  16.3899136  38.4005332
  17.0797980  17.8849041  38.2217383  60.5807400  28.1479430  23.7725472
  59.8602962  28.2879043  24.3870425  60.5538177  28.9102435  23.1942701
  22.5875473   2.2929581  35.2517104  23.0889225   1.4830914  35.3464341
  22.4796891   2.3987173  34.3065047  16.5656936  12.8909826  23.2152534
  16.9670153  13.1405902  22.3828650  15.8549619  12.2984433  22.9703283
  24.3158317   1.2078494  60.8249521  25.2339816   0.9648595  60.9440565
  23.8303614   0.4008280  60.9960318  14.3011881  74.4730174  31.8240213
  13.4965159  74.9795925  31.9341111  15.0036265  75.1175415  31.9100404
   4.0854002  93.2819973  19.7213542   3.9257790  93.1326055  20.6532526
   4.9832464  93.6114656  19.6819425  21.9692945  11.4244545   8.7492251
  21.5415645  11.7799139   7.9701692  22.6618981  10.8600593   8.4057260
  26.7696476  33.4793568  83.4237385  25.8942842  33.3133197  83.7736034
  26.6167760  33.9877534  82.6272488 104.7915326  21.6363692  16.3774204
 105.2956406  22.4418259  16.2618887 105.3148748  21.1110091  16.9826806
   6.9744135  97.9216253  38.5409260   6.1287047  98.1337433  38.1459379
   6.8644024  97.0331996  38.8797903  17.3389375  15.8429766   9.9709481
  17.2405207  15.5655408  10.8817589  16.6281378  16.4690804   9.8331457
  92.5530531  84.7094451  13.4185934  93.1310048  85.0736629  12.7481103
  92.0116725  85.4487001  13.6954355 102.8012838  91.6243445  65.2691221
 102.9576673  91.7887317  64.3392038 103.4465733  92.1685790  65.7203865
 108.8619652 100.3128131  50.3891611 109.5783224 100.1849257  51.0110188
 108.0713382 100.2997692  50.9285736  82.5211134  95.3644883  60.1335859
  82.2578528  94.7832250  59.4201040  83.1707253  94.8616355  60.6248856
  98.7376418  99.4615664  48.5172272  97.8831830  99.0506198  48.6485958
  98.5341206 100.3395545  48.1948185  95.3504863  96.7587470   5.5891019
  95.5945315  96.2743204   4.8004293  95.7388868  97.6251554   5.4678065
 105.8204378  20.1106167  52.1056890 105.6624214  20.8852339  51.5660334
 104.9526979  19.8564804  52.4198151  86.9460931  93.6806875  45.4568386
  87.5105491  94.0614503  44.7840548  86.0962548  94.0999680  45.3218937
  83.9613011  71.2864529  11.0220826  84.9144533  71.2240016  10.9601700
  83.6564913  71.2009179  10.1187527   3.7444855  98.1725358  13.8715482
   3.8125683  97.9615664  12.9403734   3.4173013  97.3689853  14.2758858
  94.6650305  94.2607152  23.9891505  95.4641046  94.7374742  24.2136812
  94.8668590  93.3468877  24.1901898   5.5676438  69.6088993  33.3720326
   6.1805464  69.1598975  33.9542532   4.7174002  69.5162021  33.8018274
  20.6873633 100.8311907  27.5419354  19.7824885 100.9678789  27.2613025
  20.9919668 101.7010473  27.8003860  55.0540272  69.5202669  87.2696541
  55.9536687  69.7181221  87.5299055  54.5532814  69.5671459  88.0840796
   0.1659371 102.0482888  43.6389399  -0.1823376 102.1515314  44.5245314
   1.0817958 101.8022420  43.7689209  25.7563257   8.3818507  29.2321539
  25.8797908   9.3099600  29.4311523  25.3860807   8.0122167  30.0337291
  17.1734309   8.7051463  52.8971291  17.8511763   9.0415913  52.3108721
  16.5352166   8.2937795  52.3143005  11.9241798   1.8465324  74.0626431
  11.2134874   1.4665985  74.5791674  12.5152099   2.2274019  74.7121429
  31.5419245  61.6062880   9.2488992  31.2593937  60.8195496   8.7825871
  31.7021227  61.3092518  10.1446319  45.8676910  41.7091179  61.4432240
  45.0617456  41.4906025  60.9753132  45.7173395  41.3999319  62.3365498
  26.5116286  21.0816693  28.8653231  26.0539269  21.8555641  29.1936946
  27.0595884  21.4116549  28.1532264   0.6208326  80.1223170  37.2639132
   0.4819537  80.2514922  38.2021332   1.3991953  80.6420290  37.0632148
  35.6231022  13.7099743  31.7061305  35.9957576  13.8267922  32.5800371
  34.8179364  14.2274666  31.7179585  56.2391297  64.3988880  79.4035380
  56.7944876  65.1046857  79.7346877  56.4471975  63.6489137  79.9607437
   5.2512002  27.9205108  27.1981621   5.8167607  28.0167866  27.9643893
   5.7884663  27.4488854  26.5616536  61.0605955  14.4955015  18.2465661
  61.1702967  14.0793908  19.1015804  60.7689524  15.3845406  18.4485197
  16.7628026  18.5939407   7.3724353  16.3621247  18.6135137   6.5033519
  16.3241911  17.8717363   7.8221810  91.9480445  83.9972054  27.4121046
  91.3954368  84.5362650  26.8461800  91.9780424  83.1453799  26.9765282
  87.9945625   7.4121422  40.1752615  88.6521782   8.0973810  40.2945137
  87.3128165   7.6206779  40.8139849  56.4394808  12.1849954  27.1613455
  56.4209509  13.0717623  27.5212502  56.5468597  11.6185784  27.9254627
  73.9871109  76.6824829  13.7666857  73.4974065  76.0136687  13.2880294
  74.8234039  76.7433464  13.3050132  37.2563648  48.5005999  19.9346697
  37.3033571  48.2775927  20.8643436  36.5006852  49.0841198  19.8662364
  22.9499888  12.1647739  22.3463058  21.9972944  12.2172058  22.2697830
  23.1081009  11.3427877  22.8106022  49.8414183  21.9678473  29.6994567
  50.6533766  22.1309519  29.2195058  49.3790054  22.8057098  29.6795797
  56.8614435  41.3891888  36.4726877  55.9504843  41.6642189  36.3690209
  56.9388485  41.1611795  37.3991060  80.8406798  71.5130504  88.9343320
  80.8248297  71.4694615  89.8904076  81.6878430  71.1394151  88.6915502
 108.7012663 101.3739490   5.4358560 109.1015449 101.9388840   6.0968077
 108.1655445 100.7600193   5.9381741  15.2718569 100.9962963  19.2450595
  15.4802061 100.7748356  20.1526809  14.4562269 101.4941234  19.3011689
  55.2723742  39.8948836  34.1648793  55.9952021  39.2907190  34.3343878
  54.7734165  39.4799685  33.4612322  25.8835816  29.2919326  33.7050533
  25.4837084  30.0816798  34.0692401  25.2457738  28.5992765  33.8772702
  77.2949582  90.3674256  47.8255177  77.3605421  90.1046967  46.9074202
  76.4747917  89.9776219  48.1281948  25.1898218 100.1754203  22.4437881
  24.2640091 100.1643359  22.2009254  25.3852345 101.0992323  22.6006842
  88.9072647  93.0159711  75.3133011  88.1163111  92.4942576  75.1775169
  88.6018326  93.9229684  75.2960014  29.8504782   7.9025066  40.9295082
  29.1103172   7.3129445  40.7852507  29.7171044   8.6124772  40.3015089
 104.3969741 100.0824811  25.0332928 104.3336358 100.9138813  24.5631933
 104.5243397 100.3337013  25.9481144 108.3439074  36.0681319  25.0362420
 108.9040716  36.6139007  24.4843507 107.6083050  35.8317232  24.4712377
  18.8794590  96.2710719  11.6709208  19.7962977  96.4399635  11.8879914
  18.5615851  97.0997935  11.3125801   7.7227616   8.7049204  50.2493382
   7.1002364   9.4279110  50.3266621   7.2451913   8.0278778  49.7699928
 101.6048636  94.8715966  10.1886082 102.5121489  94.9281745  10.4883838
 101.0924044  95.2489715  10.9035945  97.3921480 101.6659682   5.1224673
  96.9113650 102.4930083   5.0895441  98.2877722 101.9183516   5.3469455
  20.7865310  31.1795855  12.5730169  21.0340118  30.5503488  13.2505465
  19.8305750  31.1389256  12.5460565 107.9975638   2.9558364  56.6900015
 107.1665384   3.0165583  57.1611071 108.3143865   3.8580084  56.6459465
   9.4923451  58.5042950  64.5763509   9.4791081  58.7933322  65.4887740
  10.1150944  59.0916397  64.1480605  48.5074759   1.8423429  30.7950830
  49.4253874   2.0865372  30.6766081  48.5117531   0.8851638  30.7904458
  82.5131961 102.2745769  48.0267334  81.8378260 102.4390167  47.3686552
  83.3388343 102.3772534  47.5534391  29.0074992   7.6713389  52.6736832
  28.6782026   8.5544902  52.5068378  29.3501019   7.7082050  53.5667133
 104.3166916  12.7890968  57.3881245 105.0975279  12.2558641  57.5370884
 103.6131419  12.1529067  57.2596264  38.3440447   5.2933788  18.2309270
  37.5649047   5.6878638  18.6227882  38.6074734   4.6149248  18.8526487
   1.3922859  87.3183369  46.4913559   1.1124517  87.5109338  45.5964613
   2.2978832  87.0218908  46.4005566   3.6042238  95.5457192  28.2265973
   3.0262257  95.4654836  28.9853549   4.1676832  96.2915932  28.4325457
  40.0300646  37.2511673   3.0680323  39.5114851  36.4662719   3.2448035
  39.4216061  37.8467655   2.6306829  45.7624722   5.1399672  73.2151747
  46.6510963   5.4703277  73.3472347  45.5606699   4.6662593  74.0220881
  60.7548777  83.6628612  88.4717848  61.2359015  83.3454069  87.7075382
  60.5470720  84.5735367  88.2626955  27.9939151  12.9599977  46.8192434
  27.5908470  13.5217381  47.4812174  27.8482294  12.0698345  47.1395826
  20.9337307  87.7274012  42.2912741  20.1229979  87.8234087  41.7915535
  20.7693316  88.1996154  43.1074953   3.2302356   7.0688629   9.5038372
   2.6047137   7.2634208  10.2017641   3.8874823   6.5110600   9.9199080
  40.0815248   3.9610839  13.4974635  40.9811831   3.6806658  13.3294857
  39.8744440   3.5983598  14.3587303  83.8728274  19.8949754  23.2232213
  84.7108592  20.3014374  23.4439492  84.1094841  19.0468276  22.8478932
  83.1444658   3.5568011  25.0850868  82.5768126   3.8466108  25.7992387
  83.0593551   4.2393547  24.4194221  36.1457443  22.8100538  56.3907433
  35.2833438  22.3947930  56.3832998  36.2405443  23.1809831  55.5134439
  23.9530277  16.7337883  22.7816248  23.3737803  16.2758756  22.1725106
  24.5451212  16.0549033  23.1053090  87.8226342  76.2363588  61.9241476
  87.9933860  76.3721978  60.9921503  86.9403400  76.5822350  62.0589066
  77.2867846  87.9887926  76.3828564  77.5136780  87.0826756  76.5919113
  77.6933902  88.5043167  77.0793772  93.6688652  90.0013017   5.7659489
  94.3823757  90.0973748   5.1351511  93.0413833  90.6822108   5.5233389
  88.6673322 101.5515823  28.0736232  88.8120904 101.2722390  28.9776373
  88.8616731 100.7749545  27.5489211  26.2705731  23.4323406  33.5034513
  26.5896702  24.3173862  33.6798239  25.5254483  23.5589981  32.9161024
  83.4871819  90.3989851   1.6409296  83.2802501  90.5735778   2.5590408
  82.7683844  90.8006333   1.1528315  38.5086465  29.5617533  19.6072447
  37.8427076  29.4448590  18.9296818  39.3174791  29.7257662  19.1223502
  19.4657683   8.9541823  29.0389562  19.9744260   9.0784591  29.8402381
  19.5701563   9.7758317  28.5591364  70.9061805  74.9608358  79.1266577
  70.8926860  75.6442197  79.7967599  71.0771505  75.4296764  78.3098404
   6.3752085  10.2133203   9.7142971   5.6918597  10.4365349  10.3463101
   7.1632648  10.0964355  10.2448976  70.3906059  14.9053741  32.8958821
  71.0725403  14.3769431  32.4812031  70.8499193  15.6828773  33.2132983
  79.4067361  99.1570239  26.9030309  78.4509566  99.1987499  26.9342685
  79.6918764  99.5928182  27.7061582   9.2959619  21.2825084  30.2572274
   9.5368373  20.5056357  29.7525692   8.6428136  20.9687972  30.8826971
   8.2764202  33.9079881  13.3457375   8.9654690  33.9610696  12.6834488
   8.5270464  33.1637311  13.8930035  35.1905060  27.4692392   3.8610959
  34.8717403  28.3667278   3.9566758  35.1309729  27.0988607   4.7417259
  53.7572193  41.0702038  19.9028695  53.3191681  41.4663982  19.1496241
  54.6425724  40.8803415  19.5924938  64.6354977  82.0811947  85.0072847
  64.3875090  82.2422775  84.0969084  64.8800818  81.1560210  85.0287898
   2.3983116  25.4394126  33.5600781   3.1882554  25.5077410  34.0963149
   2.6915598  25.6503963  32.6736665  13.0161643  10.4050207  20.6023765
  13.6444092  10.9497046  21.0765696  12.2000003  10.9045494  20.6264257
  36.3065338  32.1942425  56.9070292  37.2191238  31.9329023  57.0299625
  36.1829448  32.9249167  57.5128937  42.5968409  47.5015545  14.9449944
  43.2186413  47.3299599  15.6522071  43.0385399  47.1870947  14.1561663
   5.7223439  54.5819807  27.4857640   5.2163857  55.2621412  27.9303074
   5.5218607  53.7801838  27.9686308  29.4590425  44.4793701  11.8800044
  29.7863913  44.4507694  10.9809732  29.2422605  45.4000711  12.0267880
  29.4601583  38.6381865  20.2818513  30.0209618  37.8911090  20.4906845
  29.3953729  39.1259432  21.1029053  27.7055049  22.2398257  13.3231616
  26.9540501  21.6822553  13.1215107  27.4129462  23.1245089  13.1041300
  11.0418570  19.4194829  41.3764906  11.7139018  19.8353982  41.9164944
  10.8134019  20.0828362  40.7253361  97.8685799 100.6274292  27.7845645
  98.6906781 100.9882124  28.1165600  97.2129311 101.2923089  27.9950166
   4.2117456  57.1534204  38.9531755   3.5574132  57.7200747  38.5445404
   4.5352647  56.6062975  38.2374763  54.9621344   9.6474183  26.4678931
  55.2368021   8.9275581  25.8999205  55.2228737  10.4380703  25.9955406
  40.9529924   8.8606369  32.0903182  41.7067289   8.4318417  31.6850400
  40.2095938   8.3012050  31.8653250  92.7319732  79.8677050   2.9050133
  93.5152092  80.3026806   3.2420132  92.7730992  80.0003373   1.9579393
  18.5191154  44.8768234  40.7629633  17.9587007  45.3926945  40.1832676
  19.2023909  44.5300293  40.1892853  29.6731400  21.8547583  74.8460293
  29.8921824  21.4991784  73.9847422  30.3194594  21.4675593  75.4364395
  22.5437379  63.6207151  39.2603683  23.0836773  62.8824139  38.9782119
  22.6954770  63.6817789  40.2034903  95.5508223  97.8593146  28.6009598
  95.9200158  98.7208208  28.4067035  94.9326172  97.6974373  27.8883219
  75.2316427   4.7020924  13.3785033  75.2453184   3.7450206  13.3708477
  74.9377251   4.9444613  12.5003803  36.7705250  45.4513693  33.8272333
  36.1211658  44.7887230  34.0627480  36.6413856  46.1513567  34.4672108
   8.5046555  91.2617337  10.8848095   8.4744145  90.3074419  10.8166718
   8.4786535  91.5675365   9.9781448  45.6159163  26.3974762  59.0243673
  46.0769701  25.9175634  59.7123671  46.2824106  26.5577388  58.3562851
  22.2611642  36.7263746   8.1677234  22.1164775  35.7988811   7.9804945
  21.9287539  36.8458247   9.0573668  24.3594861  59.5552683  61.6050577
  24.4606233  60.3127766  62.1814060  25.2541447  59.3209362  61.3582659
   3.7672928  21.7011833  74.6826887   3.4632224  20.7935643  74.6816111
   4.2759511  21.7843270  73.8760996  23.6772561  34.8027778  11.2788737
  22.7587199  35.0544786  11.1831224  24.0014648  34.7334838  10.3809214
  98.2666697  93.6652737  12.7223432  98.3029427  93.8771950  11.7896020
  97.4485531  94.0588086  13.0257332  27.0112777  36.7020988  35.3760028
  27.4078321  36.6819644  34.5050406  26.0851097  36.8810034  35.2134061
  68.5421721  57.7049341  87.3572341  68.3252779  56.7843290  87.5044599
  69.3897000  57.8228923  87.7862029  20.4774189  50.0328541  29.1715002
  19.5759475  50.0712347  29.4910455  20.8144736  49.2012644  29.5047951
   6.5102364  95.2814077  39.0785360   6.1594273  94.8642104  38.2916999
   6.5840412  94.5697092  39.7143579  22.9728246  37.3004580  48.4015656
  22.2494340  37.6137853  48.9444876  23.4436035  36.6839361  48.9623690
  40.1040936  28.7558246   0.2801160  40.3891563  29.0396380   1.1486889
  40.9156179  28.5424113  -0.1804431  14.3341303   6.3818288  42.2395468
  15.1999474   6.5017492  42.6296902  14.3349075   5.4765987  41.9284391
  16.3587427  11.5600157   3.0250829  16.0176504  11.9433212   3.8331455
  15.7392311  11.8352556   2.3493025  28.2137108  14.1630721  44.1764784
  27.6664424  13.6470878  43.5844564  28.4688449  13.5479188  44.8640299
  42.2795773  36.6289520  69.1772270  42.5375795  37.5422525  69.0525198
  41.4245224  36.6778445  69.6046877  33.9258957  50.3630066  23.1434965
  33.3272028  50.9530640  22.6856399  33.6721587  49.4883585  22.8488183
   8.7296420  37.3929620  39.1108370   8.9461374  37.3770285  40.0430965
   8.3079064  38.2418180  38.9773631  31.0990740  82.6576029  14.6511686
  30.4031254  82.1160423  15.0234580  31.8402697  82.0601236  14.5517802
  49.1523123  15.7721043  22.8921127  49.4563341  16.1367142  23.7232947
  48.2730865  16.1333489  22.7794170  37.7446985  49.8964548  30.2017021
  37.5623322  49.9161911  31.1411619  38.3550024  50.6202936  30.0609326
  16.6733754  39.6082258  38.4029150  15.9146345  39.9623609  37.9390907
  17.0853913  40.3721714  38.8064837 104.4561305  94.4733196  52.7595568
 104.2774191  94.7242742  53.6658239 104.6670952  95.2970814  52.3200750
  22.0875430  50.2311897  22.7811623  21.2403965  49.9599075  22.4276400
  22.1225262  49.8334026  23.6510897  77.4550200  24.1009212  23.8801765
  77.3531866  23.6472440  24.7168612  78.4004593  24.2144823  23.7828088
  43.9644432  11.1696506  35.0977445  44.4094467  10.3944600  34.7552752
  44.5364666  11.8991315  34.8592567  38.4938741  37.6403427  12.9343331
  38.7469125  38.1500578  12.1646619  39.3188453  37.2928119  13.2732666
  90.6617035  67.3304367  47.4789286  90.4180957  67.3264790  46.5532541
  91.1701680  68.1338692  47.5893545  18.1294835  39.4125628  12.9497552
  18.0119443  39.7764373  12.0722520  17.3739600  39.7304964  13.4440577
  26.7737532  27.8203917  12.3876119  27.2435474  28.5347223  11.9571996
  25.8911920  27.8577352  12.0189333  44.2100811  26.8341637  36.5196180
  44.0919018  26.1176157  35.8960581  44.5299482  27.5634861  35.9885788
  71.8304396   1.8449447   5.2569336  71.6115665   2.6206738   5.7732391
  72.4182034   1.3407625   5.8195722  17.2350025  32.9296207  26.9732738
  17.5335991  33.8143063  26.7625523  16.2865305  32.9607964  26.8481374
  18.4643912  41.2011814  16.4765930  19.0690231  41.6488600  17.0684004
  18.5312700  40.2777195  16.7194378  23.1336617  32.2197104  12.3630309
  22.2674227  31.8181729  12.4310935  22.9615569  33.1099582  12.0563173
  54.1297722   6.3027668  32.9988122  54.1700029   7.2568375  32.9327655
  54.3726063   5.9918576  32.1266890  39.8442459  25.2497363  40.2826691
  40.1085472  24.8599601  39.4493341  39.6280789  26.1564732  40.0651169
  39.5795274  15.5229557  46.0789919  38.6388850  15.6370926  45.9433556
  39.9604249  16.3674963  45.8383656   9.0778424  99.6187841  13.7584281
   9.5080878  99.5375138  12.9072416   8.1679798  99.3728950  13.5913444
  55.5818155  99.1529845  31.1772752  55.0800993  98.4689947  30.7337976
  56.3915327  98.7194668  31.4468145  56.9699144  16.8824613  32.6971245
  57.5913668  16.2752187  32.2955227  56.2223625  16.8902993  32.0993495
  45.6707430  23.5655308  49.7038984  45.9453869  22.9047298  49.0681696
  46.2119961  23.3956861  50.4748917  14.8239791   3.2081658  61.7317343
  14.3299675   3.7787753  61.1430168  14.7559404   3.6307955  62.5878811
  18.5655153  26.0204983  30.9706473  18.3300042  26.8921947  31.2883115
  17.7335262  25.5494070  30.9248304  34.0258503  17.6082587  13.8931179
  33.1081772  17.8398967  13.7501049  34.3991160  18.3705199  14.3356800
  10.8808899  30.7555890  20.9502363  10.6443465  30.3633213  20.1097560
  11.1014152  31.6624641  20.7376885  30.0169849  15.9675598  43.1561899
  30.3625631  16.6527915  43.7282610  29.4464421  15.4479384  43.7225008
  58.7382380  74.6446856  87.0457749  58.3789078  74.6970447  87.9314222
  58.9645854  73.7214550  86.9333279  32.3304200  32.8417253   4.5402259
  31.8708491  32.0250726   4.3450266  32.1848917  33.3888388   3.7683970
   9.7786838  33.1813502  10.8865893   9.0640169  33.4524679  10.3104138
  10.5463398  33.1464076  10.3158748  40.0250387   3.7604266  40.4608440
  40.4844332   4.2429179  41.1481476  40.6993675   3.2095590  40.0632715
  97.5741210  13.3767769  82.1143679  96.7306747  13.8198921  82.0222865
  97.7807488  13.0692885  81.2317650  35.3207064  38.0673862  27.6515794
  35.2579927  38.4996343  28.5033178  34.6468186  37.3880982  27.6775241
  94.7960678  74.1719230  78.9988808  94.0665213  73.6165985  79.2738591
  95.5781428  73.6939462  79.2747860  31.2793422  36.8336582  26.9458604
  31.5455675  37.6647854  27.3390317  30.3319073  36.7989135  27.0777273
  42.7650547  10.3106451  15.1704633  41.8265247  10.1390648  15.2476251
  43.1273890   9.5020401  14.8083806  18.0994308  48.1506300  48.5728741
  18.7002516  47.5287628  48.9833927  18.3478391  49.0000486  48.9375830
  51.3916779  20.4954600  53.0125952  51.7988443  21.1043429  52.3963881
  50.7010460  21.0071087  53.4338713  34.9537134  27.5779176  16.4839101
  34.0795517  27.8893900  16.7185533  35.5448461  28.0748367  17.0494771
   7.2879952  59.4184732  18.3474731   6.5705597  58.8444567  18.6158466
   7.5697327  59.8442841  19.1571283   7.2797930  31.8554282  24.7777438
   7.4621975  30.9196568  24.8631358   7.5768715  32.0778179  23.8954067
  25.6839076  54.6359756  86.1919724  24.8666826  54.1377535  86.1797045
  26.3602678  53.9918711  85.9824531  20.0823617  38.6038184  30.7298470
  20.8873534  38.1249952  30.9272051  19.5489872  37.9819107  30.2348995
   2.2493221  89.3244266  23.5985088   2.1360732  88.4065699  23.3516359
   1.5880014  89.7928154  23.0890965  96.8543674  39.1045070   9.6991855
  96.3246728  38.5501480  10.2721977  96.2711753  39.8233128   9.4553894
  45.7489014  30.1073933  37.0669723  45.0681973  30.7400274  37.2964215
  45.3614378  29.5819926  36.3669300  17.2136199  13.4917223  32.4188638
  17.3910165  12.5930917  32.6967597  16.6292810  13.8397753  33.0923915
  44.3982315  24.7129130   5.1288360  44.2055988  24.2088318   5.9194225
  43.5553789  24.7880936   4.6814188  62.8907490  47.7949429  17.3882353
  61.9389057  47.7929497  17.2871387  63.1972122  47.1188736  16.7838812
  40.8335495   5.5619591  11.2248623  40.7781887   5.1249868  12.0746994
  39.9294925   5.7988673  11.0180128 105.3411500  19.3239653  38.5508966
 105.7741792  19.5156443  39.3827486 105.9735448  18.7910736  38.0688858
  26.9590260 100.2730536   3.2748142  26.3130642 100.7803906   3.7663171
  27.1647240 100.8185520   2.5156367  15.8191085  18.0016625  48.2606411
  16.1817122  17.1165526  48.2241535  16.0319054  18.3829737  47.4088478
 101.4860239  74.5842277  16.7852819 100.7672276  74.3318688  16.2057328
 101.9133582  73.7578999  17.0106757 107.5676455 100.5945132  30.9306908
 107.6765575 101.0127898  31.7847490 108.3733811 100.0932994  30.8049726
  44.2111969  71.1273098  13.2659686  43.8987875  71.5584373  12.4705040
  44.9494076  71.6637278  13.5549831  62.1397066  48.8220978  35.1388907
  62.0985031  48.4277439  36.0101080  62.8693724  48.3764410  34.7085261
  42.6241302  31.2213206  43.6380434  42.9262781  30.8601213  44.4713926
  42.9640150  30.6172538  42.9778814  33.2243657  13.6170304  28.7592053
  33.1521320  13.3353829  29.6711731  33.5897732  14.5003057  28.8095427
  37.4879384  50.3659344   0.3850456  38.1695962  49.7251511   0.5874525
  37.3884583  50.8725023   1.1911011  24.9958539  52.1272230  20.0221372
  25.7524395  52.5020218  19.5712066  24.7082496  52.8164530  20.6208682
   3.0972376   9.7248054  24.7845888   3.3962694  10.1300216  23.9705801
   2.3912534   9.1375315  24.5145369  61.1521593  84.2971595  74.0813677
  60.4255167  83.7765201  74.4236474  60.8890549  84.5172127  73.1877320
  19.9286675  43.4302092  36.6414785  20.2576351  43.9656878  35.9194827
  20.0561810  42.5280666  36.3480282  61.6011572  27.5054693  15.2980423
  61.8003082  28.0320263  14.5238924  62.4283123  27.0749426  15.5141389
   9.1362548  43.5661268  34.5153427   9.0561074  42.6139355  34.5713162
  10.0547707  43.7164450  34.2918134  48.1599283  32.5664091   2.7051759
  47.4588966  32.9926181   3.1982547  48.9191675  33.1364679   2.8269199
 106.2300317  55.8389187  28.5915399 105.8422033  54.9807978  28.4199357
 105.5371852  56.3311577  29.0318727  57.0825386  52.5020790   8.5223514
  58.0339384  52.5928831   8.4691274  56.9204521  51.5745735   8.3500320
   6.2502123 101.7419382   2.6437122   5.7126166 101.3079560   1.9812307
   6.2587286 101.1327150   3.3819577  57.6330853  27.0571828  36.4705944
  57.7983999  27.6596618  35.7453895  58.4569931  27.0365620  36.9574094
  38.0733728  41.6965914  19.5241356  38.8628030  42.2365141  19.5630753
  38.0678415  41.3442469  18.6341619   7.2205788  39.7988868  38.7543178
   6.3574576  39.8556352  38.3443999   7.6047224  40.6660032  38.6247897
  50.0186968  33.0403066  24.4857025  50.6794167  32.6365566  23.9229751
  49.8291206  33.8803434  24.0678120   0.9261729 101.8775708  69.3480158
   1.1234261 100.9592228  69.1637325   1.1590744 102.3389181  68.5423183
  16.8729281  69.2810774  59.2895079  15.9655190  69.2291117  59.5897436
  17.3469877  68.6693430  59.8527908  22.5445342  20.7564950  22.6350045
  21.9433093  21.2038398  22.0394874  22.0543003  20.6740689  23.4529948
  32.7720547  40.5507803  45.2568293  32.6435089  40.7039165  44.3207455
  31.8885088  40.4230928  45.6021881  25.5598950  18.7018406  28.6296630
  25.8562374  19.5210242  29.0263414  25.7839751  18.7895405  27.7032042
  18.6899449 101.3499590  25.3655672  18.4322811 101.4781248  26.2784839
  19.0816332 100.4767518  25.3475785  33.2753587  21.1908674  46.7994976
  33.5915518  20.9163404  45.9387493  32.4044919  21.5507126  46.6311693
   8.8918972  45.0167370   4.2807844   8.2737702  45.5294514   4.8016244
   9.3388319  44.4603777   4.9187070  38.3460069  40.9962749  16.8367434
  38.5863400  40.1903391  16.3796401  38.3586502  41.6700554  16.1569726
  51.5924505  60.0178166  81.4289288  52.0879403  59.2003920  81.4793204
  52.2475353  60.6821903  81.2151461  17.7796578  19.4413018  34.5760322
  18.3585417  20.2035761  34.5840669  16.9674706  19.7614682  34.1835046
  37.9686871  82.0266091  35.0110340  37.4658194  81.4205157  35.5550981
  37.3190226  82.4223434  34.4300318  32.5005889  49.8624992   2.5221905
  31.8205333  50.5266047   2.4094093  33.2867789  50.2585173   2.1462762
  50.9873772  17.2260880   1.0586055  51.7963219  16.7513955   0.8675276
  50.5772352  16.7260611   1.7642896  32.7778888  22.3600936   0.7039513
  32.7368259  21.9279218   1.5570475  33.7108469  22.5191331   0.5606864
  95.1302210  84.1033825  78.4328918  95.3753725  83.2918700  77.9883950
  95.7837073  84.2042097  79.1250067  13.9882876  89.1736232  47.3486567
  13.9320732  88.2183038  47.3277187  13.5158659  89.4240045  48.1426048
  98.9838495  99.5578813  55.0033188  98.4019246 100.1809030  55.4385614
  98.3936729  98.9451187  54.5646286  55.0912666   9.9882483  80.7183838
  55.7133627  10.6887865  80.9145260  54.3627882  10.1392508  81.3206673
   0.3774405   5.7878578  40.7247448  -0.3280423   6.0816485  40.1483679
   0.1252138   4.9001032  40.9787273  16.4696717  60.1604128  23.2679367
  17.4037969  60.3499222  23.1800318  16.0412848  60.7965899  22.6952314
   9.8830235  30.4438186  33.3455873   9.4801629  30.7121325  32.5197887
   9.1673815  30.0495553  33.8442302  64.5125818  31.7125797  20.7658076
  63.8496208  31.0271835  20.6824803  64.6403217  32.0321083  19.8726022
  56.7182875  54.1586208  34.0973496  57.6154232  54.4623995  34.2355394
  56.7056608  53.2744694  34.4638944  52.8566360  19.6665287  33.8730121
  53.3358192  19.9343038  33.0888486  53.5389042  19.4363093  34.5036793
 103.6449755  24.1769958   0.8457664 103.3303667  23.7228823   0.0640803
 102.8561444  24.5484138   1.2407687  59.5588080 101.6820868  58.9826457
  59.7944728 100.7550295  58.9472501  60.0885717 102.0367964  59.6966236
  27.6749277  16.4944160  17.6155746  26.7735672  16.6806436  17.3527038
  27.8306985  15.5979204  17.3184848  19.9455810  60.2681398  37.4602962
  20.7073164  59.6912098  37.5163627  20.2606106  61.1127472  37.7822113
  38.7460727  57.3547586  85.5610012  37.9130287  57.7080860  85.8731376
  38.4988140  56.6981205  84.9099086  72.9504982  68.8660749  81.5367614
  73.6590139  68.3497532  81.1525099  72.8365961  69.6016666  80.9349613
 101.8496885  90.3015946  15.6990373 101.9784894  91.1962806  15.3841102
 102.6407304  89.8359417  15.4276526  38.9891505  39.4613981  21.7418265
  39.2245770  40.3098106  22.1173286  38.1980801  39.2016888  22.2140431
  19.5558190  45.7418537  30.5678248  18.8447559  45.9216881  29.9527812
  20.3348064  46.1044455  30.1460004  14.2687082  16.3568234  29.2573428
  14.8699391  15.7147014  29.6347451  13.4785914  16.2891269  29.7934055
  42.2251272  39.2039943  23.8738704  41.6636801  38.4402943  23.7405396
  42.9077959  39.1185021  23.2083774  26.9887924  24.4878721   8.2827097
  26.3947797  25.1376462   7.9069763  27.8561020  24.7488523   7.9730433
  30.5356312  57.0231056  11.5019000  30.7008243  57.8457212  11.0411990
  29.7041821  56.7112637  11.1445796  49.5140886   2.2321545   8.6320859
  48.9930725   1.4928542   8.3187008  48.9037657   2.7497479   9.1572875
  40.4744625  48.7962055  20.9738183  40.8615446  47.9263687  21.0727358
  40.8572006  49.1382122  20.1658726  66.3181925  40.6468725  13.6087763
  65.9194613  41.5108585  13.5049772  66.0758924  40.3760862  14.4943249
   4.9972305   3.3291274  33.8748908   5.4595095   3.5927138  34.6705365
   5.4768234   3.7578419  33.1660700  47.9119682  49.5017052  38.0852151
  47.2967529  49.1799593  37.4262619  48.6062956  49.9234390  37.5789714
  74.9723816  12.5952721  21.9460034  75.8690214  12.6748145  22.2714901
  74.8446035  13.3734548  21.4034772  40.9600449  36.6551304  12.3525608
  41.1727428  35.9857297  11.7022574  40.9947395  37.4796987  11.8676722
  41.1254072  28.9401031  28.9242029  41.1541557  28.2679892  29.6051359
  40.9408522  29.7519016  29.3965936   4.5509554  94.4854741  60.2487898
   3.6678292  94.8200016  60.4050255   4.4532229  93.5334580  60.2673769
  29.0770957 101.2482699  83.3771162  29.5710883 102.0323857  83.6166202
  28.2475743 101.3350257  83.8467954 101.9846311  96.7149084  53.7674475
 102.7725234  96.6479259  54.3068647 101.6987719  95.8092975  53.6475182
  43.0507040   8.3072710  20.1589656  42.1875238   8.4547931  19.7724628
  43.6028099   8.0495292  19.4207370  91.1160294  69.5485386  85.8933710
  91.3119141  70.3976711  86.2893938  90.8409372  69.7582587  85.0008618
  49.4028759  34.1972208  34.8301816  48.5501242  34.4710922  34.4924831
  49.5201159  34.7107005  35.6294465  22.1282554  57.8477764  49.3707609
  22.9290318  58.3404493  49.1911316  21.7322659  58.2980919  50.1168442
  22.0812798  33.1762195  34.0946388  22.0968485  33.2271457  33.1389213
  21.2451816  32.7571893  34.2985725  14.3663597  78.9171124  21.9719076
  15.0060737  78.3854866  22.4455881  14.0944254  78.3667517  21.2374783
  67.2140312  31.5068650  20.9688497  67.4445868  30.6886959  21.4089346
  66.2679815  31.5861988  21.0910153  14.8328711  87.9756319  25.9938097
  14.8047711  88.2162427  26.9198489  14.0153862  88.3182012  25.6324244
  12.7913940  19.2088068  37.2964191  12.9835951  18.6812806  38.0716634
  13.5741282  19.1277170  36.7514563  42.1681213  37.6383567  41.1106539
  41.4323997  37.9199243  40.5669022  41.7697859  37.3997712  41.9476986
  46.3034821  57.5193071  18.9650357  46.9003487  56.7744637  18.8929737
  45.5840349  57.1980047  19.5085347  27.1969604   9.8648787  17.7572191
  26.6551161  10.5464876  18.1547689  28.0534577  10.2764809  17.6422036
  80.2548482   4.2761013  73.8721995  80.7694902   4.6812269  74.5702307
  79.4845875   4.8377487  73.7856846  11.3519347   8.6492431  24.4571495
  11.8871450   7.9196715  24.7694111  10.7969999   8.2657224  23.7780404
  28.1435943  37.1067762  16.1927485  28.3039308  37.9244447  15.7216382
  27.5976729  37.3619366  16.9364512  25.2562548  89.5782839  40.3732204
  25.7470585  89.7533106  41.1761570  24.3430830  89.5307945  40.6562328
  72.9972783  25.3215393  81.9072233  72.3312322  25.9699305  81.6787426
  72.7295653  24.9957594  82.7665417  11.1343729  55.3575134  64.9913645
  11.6719317  55.9452820  65.5221987  11.0630631  55.7976484  64.1443539
  41.0267687   6.9823897  23.4296513  41.6598272   7.7002674  23.4186053
  41.5565443   6.1940265  23.3111072  42.8176975  17.1947813   9.4005525
  42.5721693  16.5942657  10.1043487  42.0123529  17.3165202   8.8977253
  41.5768290  35.7091761  26.1469603  41.7979574  36.5467501  26.5541553
  40.8147955  35.3988528  26.6360784 103.8421727  45.4193592  57.0465899
 103.2031382  45.7964420  57.6513004 103.3959068  44.6617508  56.6682959
  99.2303289  31.1934447  41.8910313  99.2475249  30.2440524  41.7702341
  99.4105596  31.5489221  41.0207558  41.8790388  -0.0824849  34.0881443
  41.8666363   0.4836983  34.8598385  42.7777052  -0.0253172  33.7635541
  61.1594200  24.4797063   4.3398306  61.2829161  23.5509944   4.1436762
  60.4276943  24.4989920   4.9566269  11.0348892  10.0643134  13.4648788
  10.3447032   9.9468315  12.8121376  11.8269956   9.7390270  13.0371070
  34.1101885  33.8541293   9.6553719  33.9923191  34.7300577  10.0229144
  34.5171332  34.0051317   8.8022441  20.8961391  33.3435702   4.5799676
  21.6669869  32.7987051   4.7385499  20.1786327  32.7187300   4.4751316
 100.6120793  82.9949125  84.2110293 100.8932892  83.6277350  83.5502057
 100.3010241  83.5318907  84.9398177  44.0386486  21.3235235  62.0180178
  44.1642237  22.2581577  62.1820974  43.9581728  20.9360385  62.8895760
  64.0036794  93.3264547  14.8541558  63.0543240  93.3797686  14.9642229
  64.2625751  92.5649630  15.3731310  37.0633578  11.9774532  26.9312263
  37.6365566  11.8939257  27.6932621  36.5151906  12.7375853  27.1260190
 100.5934921  64.7041997  80.7153349 101.0379902  64.7191437  79.8677312
 100.3599850  65.6178542  80.8794700  27.5032330  30.7371283  30.1413321
  26.6369057  31.0750723  30.3682733  27.4431634  30.5311799  29.2084813
  64.1869584  85.7144006  71.4238851  63.9305679  84.8575863  71.7650096
  63.7789265  86.3417014  72.0207422  84.6049693   4.1577932  87.7070245
  84.5118298   3.5419437  88.4338578  84.5265963   3.6155626  86.9221211
   8.0651833  96.2398838  46.0517263   8.1116558  97.1882801  46.1726284
   8.0810620  96.1183887  45.1024008   9.0299278  51.6115761  66.7286777
   9.0183085  52.4351358  66.2409830   8.9497858  50.9343195  66.0570145
  22.9630518  28.9338398   2.6555789  22.8332543  29.8547339   2.4289954
  23.6213875  28.9486051   3.3502796  28.6134219  20.6750441  65.6728125
  28.2214427  19.8771226  65.3179789  28.0595446  20.9023380  66.4196634
  33.1680393  33.4444475  28.6903644  32.2510839  33.3637786  28.4278464
  33.3372211  32.6609159  29.2135167  27.9905987   7.2923559   2.2829798
  28.9288354   7.1444583   2.1643555  27.8848910   8.2399130   2.1981685
  74.3885994  29.7165537  39.4228458  75.0221300  30.3809762  39.6937871
  74.0093708  29.3989301  40.2423143  37.3129678  36.0258675  24.3255687
  38.1644511  36.4541769  24.2374873  36.7187238  36.5645170  23.8031101
  29.8984909  47.1691990  62.7422810  30.6753612  47.0065403  63.2773018
  30.1311469  47.9275036  62.2064877  27.3085403  41.3211203  22.0211029
  26.9141078  41.2628031  21.1508989  26.6491699  40.9513044  22.6082134
  38.5136747  41.2765598  37.0223594  38.1102753  41.4728785  37.8679109
  39.3350410  40.8382797  37.2448421  14.1233373  56.2248802  11.5751815
  14.4088924  55.6811523  12.3093820  14.1185379  57.1159697  11.9247055
  54.3589211  47.5191641  17.9191315  54.4607639  46.5792465  18.0688643
  55.1461744  47.7715206  17.4366593  12.8762794  43.7124586  34.4917798
  12.7038252  43.0042267  33.8713765  12.3687792  44.4521999  34.1579247
  29.9454951  61.1039972  31.1032963  29.2051554  61.2425995  30.5126023
  29.5611143  61.1309862  31.9795108  15.6041825  45.3746033  30.7745290
  16.0721922  44.5416212  30.7167411  15.0907254  45.4173136  29.9678254
  26.3142490  43.0821657  10.2963793  25.8685613  42.5795650   9.6144795
  26.9749618  43.5905600   9.8260319   5.0542963   7.1785486  17.7822804
   4.6352929   7.5011808  18.5801387   5.1032960   6.2303942  17.9040766
  98.9521375  91.8452322  46.3829184  98.4199538  91.5992569  45.6262732
  98.3188596  92.1535014  47.0311165  75.4818583  12.9071069  58.8997364
  74.9597263  12.8971243  59.7019243  74.9359560  13.3703125  58.2643890
  32.7258682  50.0501680   7.1155524  33.4532976  50.4111195   6.6088045
  32.6445651  50.6357479   7.8683603  39.3318248  20.7279825   7.4908328
  39.2124867  21.5731263   7.0575607  40.0957584  20.8532071   8.0538201
  62.2983853  44.7141936  84.1819833  61.8013493  45.4679599  83.8641380
  62.6645199  45.0038364  85.0176172  63.7877178  26.2041903  16.5176880
  63.9700460  25.4712939  15.9295964  63.9959002  25.8690119  17.3897815
  33.4941220  78.2199860  15.5848372  32.9115176  78.2779884  16.3420951
  34.3644238  78.4056711  15.9374380  45.8085251  44.9900532  21.7319155
  46.2056971  45.7716799  21.3478017  46.3613558  44.7865868  22.4863768
  44.8034191  40.0569630  26.9534707  45.4989815  40.2577782  26.3272929
  44.0479755  40.5541563  26.6398954  66.0819292  23.1742001  16.6761196
  65.1367950  23.3134508  16.6164637  66.3138723  23.4780431  17.5536811
  18.5928106  51.5211916  25.4567814  18.1822944  50.9863043  26.1361980
  19.5132434  51.2587166  25.4688525  39.6144271  76.1345291  17.4195230
  39.3935466  75.5729246  18.1625199  40.1757145  75.5907536  16.8668032
  20.1980352  56.3791895  43.6075401  21.0678053  56.3748837  43.2079029
  19.6553028  55.8700514  43.0055046  35.3946781  28.3418107  26.0311842
  36.3377929  28.3529091  26.1944056  35.2943611  27.8087902  25.2424788
  38.7462783  40.0129843   7.7384704  39.5872164  40.4620981   7.8241885
  38.1805992  40.6460810   7.2963989  62.2218180  53.1352758  14.1716146
  62.2340870  52.5415897  14.9223614  63.1440258  53.3310843  14.0060139
  46.9948626  31.9199038  20.4699278  46.7169333  31.7439032  21.3688207
  47.9407978  32.0519471  20.5332088  84.1612723 101.7654958  61.6355371
  83.9192238 100.8407301  61.5860128  83.3307936 102.2349711  61.5572405
  41.7461252  46.5556288  20.4407501  42.3983288  46.7610836  19.7709346
  41.9117832  45.6395245  20.6633234  58.1084492 102.6823624  88.6993778
  58.2722428 102.1358689  87.9307752  58.8559773 103.2792958  88.7325302
  41.4850950  50.0981236  36.0623932  42.0400000  49.8973179  35.3087449
  42.0660210  50.5510187  36.6736555  43.3873510  74.8111868  29.3056703
  43.6822367  73.9814806  28.9303541  43.9710283  75.4672623  28.9247298
  63.3842278  55.7511187   5.1574135  63.7810755  56.5237045   5.5597299
  63.2846785  55.1298666   5.8787781  40.2254581  85.2898407  45.0181198
  40.2633667  84.9069977  45.8946085  41.1402941  85.4517746  44.7877216
  37.4442220  66.5824986  18.8026023  36.7577767  67.2488165  18.7702656
  36.9714451  65.7504320  18.7832212  21.8272638  58.8457727  41.7932796
  21.8561149  57.9145718  41.5736055  20.9106350  59.0925741  41.6703415
  69.2706633  19.1893029  30.4801202  68.7078857  19.2162168  31.2539339
  68.6618376  19.1646004  29.7419143  29.2572618  44.3189001  37.7865672
  28.3836865  44.3527079  38.1763768  29.1223693  43.9102030  36.9315791
  55.5195475  51.4188051  33.4583235  55.6762505  51.8803883  32.6345396
  54.5924902  51.1824512  33.4278464  35.5833125  70.1019430  35.5631661
  35.2873850  69.2452812  35.8710408  36.2478518  70.3683329  36.1985016
  53.2845211  27.9196763  13.6395061  52.7157164  28.1304860  14.3799448
  52.8317833  27.2097754  13.1842005  32.8912139  34.9555707  31.1856794
  33.2957721  34.6581316  30.3707600  33.3366251  35.7783604  31.3878155
  35.4202580  51.1724567  50.6565857  35.7146478  51.9683456  51.0994434
  35.6385255  50.4656506  51.2640524  49.9281597  30.2274108   5.8361518
  49.8771811  31.0951924   6.2368870  50.4003572  29.6952438   6.4765114
  33.5363460  30.1769495  33.2269883  32.6030374  29.9983883  33.1117344
  33.6539841  31.0645223  32.8884506  13.3030106   5.1567432  88.4722919
  12.5917031   4.9575731  89.0810636  13.6450363   5.9993670  88.7710120
  32.6153278  40.9983397  14.9441016  33.3796811  40.8977461  15.5114412
  32.6401520  40.2322769  14.3707263  26.7984891  21.5788770  40.4344082
  27.4303389  21.8092251  41.1155415  27.0254874  20.6814766  40.1907349
  46.1960411  18.6337376   2.4571675  46.5681553  18.7994361   1.5909651
  45.6602859  17.8489864   2.3415673   6.2954785  60.5142519  48.1501953
   5.6317402  60.0029966  48.6131232   6.0496308  60.4464552  47.2275917
  61.9006443  53.9727116  35.0216627  61.6023016  53.1543064  35.4184365
  62.7898979  53.7835026  34.7222233  37.1392608  62.3568344  42.3981285
  38.0391884  62.0654392  42.2516537  37.0639944  63.1656647  41.8918133
  21.9823885  38.7604260  34.1198802  21.5922070  39.2779517  33.4154963
  21.2382960  38.3312345  34.5422006  22.0813370  73.3294773  69.0669155
  21.9249272  74.2307806  68.7850857  22.9835677  73.1491375  68.8029242
  59.9989080  22.7341485  33.8946939  60.2608156  22.8047729  32.9767346
  59.7489977  21.8164635  34.0025401  24.5277095  48.9008236   7.5195509
  24.5218444  48.1704521   6.9008827  23.7593007  48.7537432   8.0710465
  77.4018049  72.1093321  43.5507536  78.2690144  72.2845650  43.1854057
  77.5491142  71.4182520  44.1964626  49.1771936  35.1028705  26.2072492
  49.6125126  35.0092244  25.3599238  49.7835302  34.7067714  26.8331051
  33.9734840   1.6104011   8.8672000  34.0709925   0.6619853   8.7821639
  34.7995448   1.9025058   9.2525965  29.2683029  19.2650044   9.8029494
  28.7327909  18.7700284  10.4229951  29.0038085  20.1758552   9.9318874
  18.2808506   4.6653101  66.4827728  18.8464749   5.3482407  66.8431997
  17.8718436   4.2637661  67.2493935  23.9789081  26.9408798  15.5317688
  23.8653970  27.4455547  16.3371587  23.8713169  26.0292888  15.8031690
  31.7882776  80.3820133  17.5976849  32.7333951  80.4563522  17.4655592
  31.6845226  80.3024483  18.5459125  61.8476534  63.4233093  33.7094498
  61.5471172  64.1324854  33.1411386  62.7933693  63.3861446  33.5663652
  23.8994837  45.9889555  18.5668349  24.8503089  45.9801197  18.4569073
  23.6101627  46.7653275  18.0874932  35.5681443  29.6734524  19.4529736
  35.5273128  28.9948106  20.1267743  36.0686994  29.2745233  18.7412620
  22.5222802  35.9917140  37.7922797  23.2057810  35.4696989  37.3720860
  21.7764330  35.9350967  37.1950030  30.7559133  51.6304159  37.0350623
  30.8505630  52.4220562  36.5053606  29.8204350  51.4304018  37.0017886
  78.8763729  64.5724662  84.5699336  79.8134438  64.4031271  84.6671738
  78.5906521  64.8458131  85.4416435  44.6733332  19.8144925  32.8136253
  45.5198669  20.1017642  32.4714422  44.7899389  19.8044264  33.7636423
  64.3835465 100.5404910  85.9465777  64.6024290 100.6135901  86.8755438
  63.4267441 100.5562791  85.9239845   6.7821099  21.5079567  80.7779364
   6.6009833  22.4126980  81.0326259   6.8405749  21.0329077  81.6068785
  26.3424253  48.0967331  11.2760067  25.7531524  48.7983179  10.9989333
  26.7017984  48.4009314  12.1094024  63.1049776  52.3278332  23.6031723
  63.7589264  51.6331673  23.5255647  62.5798035  52.0785141  24.3636084
  44.7974873  30.4973006  32.1906829  44.6054602  29.5619678  32.1235299
  45.7325554  30.5360126  32.3916221   6.6058820  36.2922931  57.8744698
   6.6484886  35.9403753  56.9853258   6.7342341  35.5306911  58.4399033
  58.7135744  52.8130960  15.8721352  58.8921213  53.0133057  14.9532926
  58.1461096  53.5254908  16.1666024  11.4852786  61.2197208  12.8826344
  10.6036997  60.8612585  12.9853630  11.5928972  61.3236761  11.9372022
  65.6668568  46.4922094  29.7891021  65.2033806  45.6852436  30.0132179
  66.5551996  46.2067795  29.5755315  64.0014791  24.6850586  30.5914760
  64.2832232  25.5988121  30.6351137  63.6588049  24.5822144  29.7036552
  21.2116933   9.2574674   5.1430279  20.2743840   9.0750742   5.0765651
  21.5209198   9.2554164   4.2371544  55.6886292  28.0168653  17.9767895
  55.0955105  28.0698466  18.7262130  56.5643263  28.0279541  18.3631420
   4.4478991  45.6890913  63.8287537   4.6560767  46.1332109  64.6507327
   3.5094311  45.5091604  63.8847415  30.8914542  45.3440523  32.5181890
  29.9676037  45.1941156  32.3175597  31.2616730  45.6827164  31.7030334
  35.0327682  82.9836369  13.8327885  34.6288824  83.5514164  13.1764853
  35.9087682  82.8066826  13.4899426  30.1015806  32.5268579  28.3065867
  29.4209671  32.8106213  28.9168954  30.4186964  31.6996956  28.6691737
 106.5183225   3.3897707  81.1785017 106.7331471   4.1880200  81.6610854
 106.1579051   2.7994988  81.8402486  28.1924272  50.5213356  25.4073906
  27.8739715  51.1168718  26.0857368  28.0196238  50.9802961  24.5853639
  80.2558613  10.8529830  24.8779774  80.3718948  11.0459614  23.9476395
  80.6686974  11.5896320  25.3286958  59.1676474  35.7187057  33.6347961
  58.6524534  35.1331496  34.1897130  58.6248302  35.8513093  32.8576231
  55.0787258  14.9169362  39.9576020  55.6814241  14.6887910  39.2498302
  54.8965645  15.8474469  39.8264575  62.0949507  45.4800940  30.3865004
  62.8522301  44.9019527  30.2942395  61.3416338  44.8895502  30.3886962
  65.3412580  81.4637089  26.9636774  66.0599232  81.2667370  27.5644732
  64.9160814  80.6193161  26.8138385  22.9057717  59.9213266  17.0272970
  23.4542012  60.6534529  16.7454422  22.4212074  59.6686268  16.2414384
  62.7477121  46.1959457  26.5507030  62.8614283  46.8873072  27.2028708
  63.2645178  46.4877510  25.7997084  49.0173864  17.2343099  34.9968457
  49.5351696  17.4543941  35.7712460  49.2738914  16.3369417  34.7843218
  13.6587238  60.0050354  31.9065905  14.0451431  60.7317686  31.4179444
  13.8380265  60.2110815  32.8239942  28.9573956  42.9923582  48.0246210
  28.4035373  43.1134462  48.7958622  29.3987131  42.1564722  48.1755257
  71.0030842  70.5251074  39.6336985  71.7032862  69.9556971  39.3147588
  70.2065468  70.0035763  39.5349121   3.5008789   7.5543615  85.1445390
   4.0139891   6.9316361  84.6296017   4.0178753   8.3598206  85.1308613
  24.1077995  48.3152246  64.1761732  24.6274114  48.4613276  63.3856726
  23.2246089  48.5969019  63.9377117   4.7804524   6.4045403  88.3070598
   5.4263045   6.1335680  88.9595011   4.8396803   5.7397434  87.6209344
  74.0491486  58.8359547  39.0502954  73.8303375  58.0292702  38.5837984
  73.2657433  59.0364742  39.5624518  36.2810636  59.8564816  32.7356315
  35.3847980  60.1925182  32.7403736  36.5212369  59.8278809  31.8094921
  15.7276833  56.1295700  20.7611895  16.4164066  55.7965183  21.3364863
  16.1141849  56.9008541  20.3464937  16.0924804  29.8981428  59.1870546
  16.7240989  30.2998519  58.5904646  16.5145028  29.0878057  59.4725084
  27.1366119  68.5823822  42.5035238  28.0533147  68.7600231  42.2929764
  26.7285848  68.3953476  41.6580868  36.3071418  57.7682066   7.0333916
  35.6767106  58.1970358   6.4546913  36.0565948  58.0517673   7.9126245
  51.2460661  24.3521619   2.0495398  50.7559729  24.7195482   2.7851140
  50.9125137  24.8181963   1.2828662  52.5757408  39.5726180  15.9567821
  52.2499084  38.7981319  16.4152980  53.4511042  39.7138429  16.3173747
  70.5471468  63.9861345   9.2830968  70.6961966  64.4346189   8.4507042
  69.5955420  63.9016104   9.3425864  47.1250105  32.2063088  27.0067739
  46.1744642  32.2554398  26.9053888  47.2602034  32.0982981  27.9482031
  63.1677008  47.8440475  28.8730574  64.1104698  47.9716492  28.7675571
  63.0916595  47.0668936  29.4266677  65.4449892  61.9241428  22.9724383
  65.2105522  62.4716616  22.2231078  66.3140106  62.2311687  23.2308412
  33.2282591  30.9285927  18.2056594  33.6887264  30.3565788  18.8196659
  32.3530412  31.0271955  18.5804939  98.4779072   8.8291764  24.1402864
  98.3977509   9.5458299  24.7697425  97.6610184   8.3385086  24.2306852
  57.2586012  22.5173378  71.8877172  58.0480576  22.0048618  72.0619583
  56.5487671  22.0010543  72.2695827  25.8987737  36.4659476  43.1145859
  25.1975155  36.9157624  42.6432705  26.7004013  36.8997884  42.8223419
  52.7001047  23.1282568  40.3349924  53.0843210  22.4084401  40.8354664
  53.1357527  23.0873799  39.4836593  34.6617413  57.8176737  38.5329366
  34.7488809  58.5061598  37.8736758  34.2262125  58.2456541  39.2700768
  46.9748640  42.7430773   2.7451795  47.4358845  42.1576262   2.1443972
  47.2918034  43.6172724   2.5181058   8.9232756  95.3258126  23.9741158
   9.2850090  95.9746235  24.5777941   8.9643980  94.5003157  24.4569159
  47.6193905  56.2109470  13.7502122  47.0531654  56.3948774  14.4997382
  48.5082388  56.3056612  14.0925705  17.7984715  34.2966509  33.6878824
  17.4963534  35.0740528  34.1575646  18.6936820  34.5091319  33.4239078
  10.6596959   1.0462003  44.1938925  11.0469592   1.5793984  43.4996605
  10.8088899   0.1431466  43.9137745  40.5848598  36.9683313  29.6411014
  39.6917653  37.2152638  29.8811841  40.4777813  36.2069488  29.0709567
  55.7126760  37.9181552  38.7067342  56.0965157  38.7900710  38.6136580
  54.9113131  38.0617380  39.2101550  53.8498783  51.6901255  18.1477821
  53.3270025  51.8281889  18.9375746  54.7569656  51.7481518  18.4478867
  19.3634248  51.5552092  20.1095772  19.3434811  51.4519262  21.0609794
  19.6673465  50.7083130  19.7830391  65.2823830  27.4554133  25.5563760
  65.9504795  26.7880106  25.3999996  65.7351875  28.2861781  25.4113674
  55.4232454  41.5943623  16.2539208  55.8051014  41.6304445  17.1309137
  54.8152971  42.3332119  16.2268162  11.3892008   8.7592575  75.1124625
  12.0042683   9.4762966  75.2666752  10.5644108   9.0660116  75.4890983
  22.9163742  58.1519032   5.0947666  22.0097852  58.1264734   5.4008359
  22.9654741  57.4613190   4.4337726  18.6712313  49.8812532   6.6641682
  18.7542439  50.8337975   6.7089486  17.9730403  49.6722460   7.2847128
  70.1427794  41.6607666  33.7707019  69.7654963  41.3074732  34.5763516
  69.6506596  42.4656153  33.6086202  13.9231312  22.7613759  24.2744756
  13.8933063  23.1294131  25.1575899  14.8525250  22.7633262  24.0454459
  29.7431207  42.5855970  25.0500035  29.9055791  41.9164610  25.7149100
  30.1161551  43.3859444  25.4194927  62.6756907  36.9663858  36.7540908
  63.2489729  36.6439652  36.0586596  61.8067980  36.9962478  36.3536406
  27.9234576  29.6086359  35.6733990  27.2623658  29.3233657  35.0426793
  28.2902575  30.4061389  35.2917194  33.4062552  43.4326458  32.1271467
  32.8273392  43.7526560  32.8190160  34.2694044  43.3882904  32.5385332
  67.2903013   4.0719259  31.4654970  66.6384983   4.3445456  30.8196950
  66.9077158   3.2987168  31.8802357  72.2538328  27.3563957  46.8724060
  72.3907232  26.8211865  46.0907078  72.1481514  28.2468486  46.5375137
  62.2791672  42.4413586  40.0959826  62.4189043  41.5385866  40.3818369
  62.3979139  42.9646683  40.8886242  12.2301900  57.5152397  19.9868071
  12.5727713  58.3177614  20.3802824  12.0630705  57.7486181  19.0736604
  42.0089436  19.0755224  24.3137860  42.9300117  19.1834641  24.0766954
  41.5995693  18.7160850  23.5267377  43.7674236  29.7250557  22.4549699
  42.9567862  29.3122172  22.1571994  43.5549212  30.6566358  22.5118208
  87.3779011  28.8125539  24.2742538  88.0334949  28.1804466  23.9795041
  87.2625065  28.6215234  25.2050710  21.6541862  38.8499260  11.6182387
  21.8579054  38.0022383  12.0134008  22.2569919  39.4620275  12.0403636
  11.5934873  61.3866472  27.2977138  11.5156686  61.6048384  28.2264590
  12.2907233  60.7317448  27.2631383  38.3027577  41.2683725  26.0088658
  38.0600023  41.1254025  26.9236660  38.1430340  40.4255581  25.5841494
   8.6112756  37.8338838   2.4772921   7.7199221  37.8878689   2.1326084
   9.0367991  37.1675801   1.9376627  23.1499124   9.7571087  23.6093783
  23.6780429  10.1822674  24.2850614  23.5395026   8.8881850  23.5123110
  22.9592824  53.4633923   8.4234947  22.5062585  53.7764597   9.2064333
  22.8490663  54.1680717   7.7851290 106.4688721   3.6643049  73.3001380
 106.4507809   4.1399357  72.4696653 106.8834629   4.2703030  73.9142327
   6.5428442  58.4600925  42.7830696   7.2189885  59.0663338  42.4805260
   6.7258328  58.3430672  43.7153006  44.5562983  19.0847814  15.9482348
  44.3796158  18.9747453  16.8825293  44.0121317  18.4226537  15.5219638
  44.7378969  22.9561019  46.0728645  45.3728294  23.6086822  46.3682222
  43.9002943  23.4194088  46.0735989  36.7416811  35.0183678  26.9755864
  37.1839404  35.2840161  26.1693192  36.0729456  35.6890702  27.1140981
  43.7099552  37.8322196  27.6909423  43.3792210  37.9367781  28.5830832
  44.0860891  38.6851263  27.4734473  31.5155339  47.9538584  44.9628973
  31.9866514  48.7590647  45.1771927  30.8902502  47.8443146  45.6793165
   6.3980795  85.5156516  26.6202545   7.2174479  85.2674221  27.0483351
   6.6620804  86.1308931  25.9361410  47.2784758  33.7807751  15.4017365
  47.1952009  33.6257720  16.3426244  47.9776716  34.4302034  15.3269422
  36.3634181  61.6771555  24.3214250  36.9609118  61.6943407  23.5738039
  36.5815783  60.8679533  24.7838354  30.9035015  30.5993319  66.2560415
  30.8980298  31.2388301  65.5438280  31.3681746  31.0382962  66.9685173
  11.6118122   6.2376902  76.2614171  11.5507675   6.9738743  75.6526987
  12.1239544   6.5760443  76.9958942  49.6135902  37.8219557  31.0205650
  49.7497892  37.8742194  31.9665813  49.0706015  38.5827947  30.8143616
  38.4099323 100.6040963  84.6298112  38.7349026 100.1656445  85.4161872
  37.7976506  99.9785288  84.2425050  79.1545391  15.4187000  41.6636467
  79.3561935  16.1858261  42.1994495  79.5486975  14.6858299  42.1366882
  17.1238744  43.6813974  36.5008664  17.8797662  43.9585161  35.9831166
  16.4200556  43.5774708  35.8605003  25.8859110  65.9175491   1.8252590
  25.2144599  66.1231899   2.4757192  26.6765046  66.3458681   2.1534923
  61.0654879  43.3487511  36.9646668  61.1755514  44.2615128  36.6982508
  61.7865086  43.1883240  37.5734544  56.5858889  30.9907675   7.9755837
  55.7671165  31.0955811   7.4909604  57.2533178  31.3683319   7.4026865
  79.7381687  21.6825032   9.0445691  80.6494236  21.8691349   8.8187230
  79.4203424  22.4913836   9.4457352  73.4645414  16.5333700  58.2042885
  74.0649891  17.1721840  58.5884953  73.3062696  16.8566811  57.3173571
  80.5659866  28.5153198  27.6910663  81.0688210  29.0845346  28.2736278
  81.0674286  27.7005363  27.6608229  56.4583349  51.8432617  17.6477826
  56.0360479  51.9018793  16.7907691  57.1440029  52.5107050  17.6230872
  51.7054749  41.7285204  21.5643358  51.9362974  42.1817827  22.3752046
  52.5275898  41.6761065  21.0768771  61.7371368  37.8900242  11.0880649
  62.4905825  38.2281256  11.5720451  61.7252111  38.3989120  10.2774334
  42.4677944  35.7527304  32.7330780  42.7862930  34.8581982  32.6122355
  41.8938923  35.7014275  33.4974337  95.5844809  67.6484823  49.1678047
  96.5409673  67.6670218  49.1997671  95.3421212  68.4819365  48.7642622
  66.3717270  23.4656596   7.0668060  66.1164093  24.3560314   7.3082274
  65.9377527  22.9085279   7.7129477  38.4101796   1.8914573  11.3605642
  37.9247451   1.3218053  11.9572890  39.1742396   2.1710384  11.8648243
  18.2380188  34.8110318   4.5823696  18.1523359  35.7403016   4.7953117
  19.1265547  34.5835066   4.8561716  40.1194286  44.8530054  38.9849186
  39.2025185  45.0342798  38.7784100  40.1889801  45.0123739  39.9261928
  60.6295776  36.5779948  23.7983799  60.9086800  37.4737263  23.9881063
  60.2039433  36.2840772  24.6037841  47.5676298  34.8326683   5.7426810
  47.0553780  35.5360579   6.1415178  48.2073593  35.2846074   5.1924682
  97.8568042  64.0555525  13.7332833  97.8609122  63.7315226  14.6339619
  97.4318160  64.9114466  13.7885964  55.7053137  15.4818892  15.9127736
  56.6539288  15.4974771  15.7857835  55.4678917  14.5581973  15.8311903
  38.5768461  13.2934880  44.5216703  38.8081002  13.4323800  43.6032677
  39.2128015  13.8158846  45.0104380  45.6647253  67.4501038   9.1720748
  46.0474491  66.8234921   9.7861689  45.1915026  68.0704069   9.7266179
  48.1227207  50.5007553  41.8674135  48.1638861  51.3675117  41.4633417
  48.9191961  50.4445314  42.3953342  53.7233734  22.5269723  43.7454176
  53.4376383  23.1410980  44.4217587  54.5544386  22.8845501  43.4328604
  58.5033607  53.3825874  30.1024055  59.3198919  53.8481522  29.9213982
  58.6886978  52.8713608  30.8901429  46.4279032  23.5807514  31.0347152
  46.6627407  24.1165233  30.2770662  46.4904022  24.1787195  31.7795372
   0.5563236  92.8299772  31.1129951  -0.3540038  93.1103854  31.2073565
   0.6075670  92.4777495  30.2244329  59.5056725  21.5795016   4.3105486
  58.9194202  21.5582252   3.5541862  60.3644609  21.7869139   3.9421797
  98.0287138  80.6396302  88.2049525  98.5068813  81.4684471  88.2304546
  97.7858034  80.4751261  89.1160862 104.4884014  33.5766411  15.8938742
 104.2298985  32.7618551  15.4631412 103.8472939  33.6905146  16.5954781
  70.2806187  52.8091335  20.6173229  70.0267792  53.7295103  20.5487847
  70.7730246  52.6360941  19.8149359  46.6582012  38.0433130  33.5825992
  45.7882786  37.9508305  33.9710736  46.8216467  38.9864540  33.5829806
  32.5377345  60.1652670  11.4860940  33.2913470  60.7528591  11.5411854
  32.5582695  59.6718788  12.3060799  36.0531926  36.0531759  31.5084553
  36.6585922  36.2055206  32.2340679  36.2074256  35.1431537  31.2548780
  11.1383903  64.8757648  37.7233815  11.0791337  63.9362097  37.8964591
  12.0770442  65.0461531  37.6450920   6.1245149  50.2260494  16.4881754
   5.7712758  50.4937601  15.6397736   6.7775154  49.5590925  16.2760651
  34.3537164  73.4259272  48.5085344  34.5811677  73.8778877  49.3210793
  34.7136450  73.9811039  47.8168249  32.6392365  72.7833366  40.3065968
  32.4354911  72.0353222  39.7451806  32.4492621  73.5487366  39.7641039
  11.7834508  21.9521976  32.6105738  11.9467449  21.5180492  33.4478807
  10.9297359  22.3709393  32.7203798  32.0298886  37.7870584  43.4789658
  32.2382784  37.9996371  44.3886995  31.1990070  37.3143148  43.5277510
  24.7300673  16.6532171  17.4315166  24.0557599  16.5616918  16.7583406
  24.8265147  17.5985241  17.5469506  50.9486389  40.7000399  39.3793344
  51.6451216  40.8023310  40.0279284  51.3470459  40.9772444  38.5543132
  66.7149353  68.0473375  26.5678620  67.5154305  67.8856182  26.0685730
  66.1861134  68.6060047  25.9982443  56.8166542  36.4788818  27.1345329
  56.7674971  37.3136520  27.6003361  55.9462500  36.0945916  27.2391891
  23.9063048  61.4560032  22.7137733  23.1408167  62.0064640  22.5487089
  23.8148522  60.7280016  22.0990491  51.8675900  42.3328352  15.3526592
  51.3138342  42.2698641  14.5744419  52.1658850  41.4365816  15.5075252
  72.8016090  75.6146288  37.2687292  72.8634262  75.5849361  38.2234693
  73.6885643  75.8264732  36.9777584  61.4524698  54.6624374  30.2673292
  61.8244553  54.9112844  31.1134577  61.7351484  55.3538370  29.6687579
  53.3884573  34.5637035  29.8367882  52.4725819  34.3040442  29.7368884
  53.5189247  34.6223187  30.7832432  49.7487736  18.7165308  47.8526020
  49.7858381  19.3966639  48.5251141  50.2371883  17.9831243  48.2264996
  39.0417981  66.1873341  53.3746386  39.5837235  65.4744768  53.7128401
  38.8482618  65.9336615  52.4721861  68.0335903  26.1218596   6.6137689
  67.6709461  25.5419707   7.2834313  68.8130188  25.6648469   6.2977570
  78.9781666  38.2293963  27.7189374  78.9067841  37.7702332  28.5557795
  78.1308651  38.6610770  27.6095629  43.7948418  72.1509933  18.8813365
  43.9268589  73.0804062  19.0684021  44.6520948  71.8414068  18.5889232
  63.4404278  41.3963461  37.1725798  63.9763927  40.6411219  36.9304824
  63.2882643  41.2908745  38.1117034  42.1468449  21.8266344  15.7770836
  41.6547918  21.4237690  15.0616729  41.6192436  22.5826049  16.0347223
  25.1213408  46.2033939   5.6038749  25.1170135  46.5736723   4.7212037
  26.0451102  46.0325003   5.7873929  33.6847639  90.8018398  11.0128927
  33.0068254  91.3821030  11.3591993  34.5051622  91.1683178  11.3428509
  60.1653671  45.3507900  25.5026531  59.5916367  45.2987671  26.2670875
  60.8177996  46.0107088  25.7373214  55.1795006  73.4361649  15.1534986
  55.9237003  73.1564236  14.6204484  55.4805946  74.2362833  15.5840600
  46.7364311  39.1422510  20.4833293  46.3500690  38.4543967  21.0253716
  46.7608643  38.7678814  19.6027136  62.2092628   3.6006513  30.1474547
  61.6783714   3.6719489  30.9407401  61.5784216   3.4091237  29.4534898
  46.2039089  83.2225037  28.0275655  46.3164425  82.2757149  28.1121421
  45.3408003  83.3956337  28.4034610  35.6513453  90.4826355  18.6093676
  35.3192496  91.0883904  19.2719376  36.3660836  90.0188637  19.0455985
  97.4902550  84.7728642  84.4568749  97.8500572  84.2881807  83.7140034
  97.0233647  84.1131767  84.9697660  68.6152506  13.5764217  36.8221331
  68.1536961  14.2099750  37.3715067  69.1161060  14.1125357  36.2073493
  29.4575286  49.1049814  17.8056848  29.6980858  48.5106564  18.5164177
  29.9636173  49.8993731  17.9761088  77.3626614  54.1309881  15.3902662
  77.7855253  53.4536076  14.8624682  78.0093384  54.3505478  16.0609627
   9.5077282  56.5220118  40.7170057   8.8260853  56.2322760  40.1106644
   9.3506348  56.0153866  41.5138006  48.6685419  90.4011440  41.3110971
  48.3113813  90.5397224  42.1882868  48.0800724  90.8871078  40.7333612
  44.4561481  78.4464073  15.5790186  43.9960289  79.2856073  15.5629563
  43.8187790  77.8306818  15.9407830  40.0071621  94.4444466  18.7596571
  40.6250668  93.7225819  18.6441243  39.4695115  94.1822147  19.5069194
  51.1156273  25.3477359  41.2574911  51.5088129  24.4758534  41.2956619
  50.1791143  25.1835179  41.1469936  68.8064194  57.0651007  33.4127331
  69.3081236  57.8645849  33.5719538  69.3569946  56.5503311  32.8227258
  58.0694914  38.5456109  35.4846501  58.8969851  38.4428167  35.0146317
  57.8337097  39.4644046  35.3563690  57.7734661  40.7898521  26.3763332
  57.0086670  40.5377960  26.8938041  57.4129820  41.0579920  25.5311227
  69.3177414  64.8021269  23.2975769  70.0706673  64.3723106  23.7032771
  69.6999454  65.3901291  22.6461124  38.7329888  49.5633554  35.5609512
  38.3069587  50.0483990  36.2676787  39.6429324  49.8596668  35.5817199
  64.2812204  32.4059629  23.6004114  64.4103146  32.4119425  22.6519752
  63.3665371  32.6618218  23.7192464  37.6882148  61.4818573  22.0088339
  37.1835518  61.4164209  21.1981153  38.5451818  61.8062019  21.7319894
  46.8628597  49.8036861  21.9364333  45.9774780  49.5197868  22.1638823
  46.9320297  50.6865597  22.2997260  44.5988894  55.8156252  20.4335976
  45.0884914  56.2457085  21.1347032  44.4859457  54.9151278  20.7378650
  29.5320034  50.8576393   6.0411906  28.8826752  50.4994154   6.6464013
  29.9665952  50.0882435   5.6732428  26.2996721  45.1299000  22.1530533
  26.4317131  44.8471451  23.0579519  25.6680918  45.8464241  22.2157526
  72.0942593  24.0695262  19.1712141  71.3734722  23.6701679  18.6841667
  71.8058872  24.0511465  20.0837588  39.4116712  37.3103523  32.4503827
  39.1399908  36.4469337  32.7617216  40.3673220  37.2938943  32.5022984
  73.3214474  44.0875483   7.8053129  72.6575279  44.4339323   7.2091073
  74.1437483  44.4658232   7.4939221  73.9073992  67.5151920  55.9107399
  73.0052280  67.7240038  55.6684160  74.2385626  66.9968939  55.1773024
  63.2902622  79.8581266  12.2063315  62.4870205  80.3414822  12.0129418
  63.4241247  79.2998362  11.4404178  83.0955601  84.0441608  30.4461360
  82.5595951  83.9419842  29.6596622  82.5109005  84.4556332  31.0826063
  38.7666774  43.7512016  30.1720834  39.2579985  44.0189838  29.3954706
  37.9203367  44.1893768  30.0829363  57.3362732  62.0037794  29.6913242
  57.9137325  62.4732733  29.0893698  56.4813995  62.0150232  29.2608666
  69.0517950  41.3936234  18.9021826  69.5948124  41.9217873  18.3170247
  69.3882179  41.5838718  19.7778857  59.2465258  43.7046289  38.9902210
  59.7302103  43.0151510  39.4450855  59.6316624  43.7294436  38.1142735
  47.9030371  48.7827158  33.8456726  48.7868643  48.4476471  33.6946392
  47.9772997  49.7265100  33.7043738  50.7967567  42.1354151  29.9333811
  50.5909348  41.9908571  30.8569479  50.3580523  42.9579496  29.7161245
  52.2397089  52.2899580   8.9554363  51.6121578  52.9677057   8.7042952
  51.9718981  51.5186119   8.4559095  21.0562063  33.7294409  81.6010569
  20.7258393  34.6004126  81.8212973  21.9422270  33.7108252  81.9627981
  54.5846558  45.1785755  36.4588237  54.9285746  44.2966604  36.3167667
  54.6313524  45.3040791  37.4066114  30.1320529  56.5870428   7.9122216
  31.0115051  56.6829491   8.2777303  29.9653029  57.4183941   7.4680561
  47.5203991  30.4630136  32.3440289  48.2387590  30.9843755  32.7023149
  47.7988625  29.5554399  32.4665022  49.5769072  35.7329535  10.3475368
  50.4594898  35.3750610  10.2516520  49.7130919  36.6206264  10.6787837
  93.7934589  60.3774691  10.2286553  93.5972214  61.2524939   9.8939037
  94.7344398  60.3933382  10.4033852  86.9497108  66.9533491  12.5351894
  86.0414219  67.2165155  12.3868728  87.1065903  66.2614822  11.8925822
  69.2604971  72.0185041  19.7301817  69.5732164  71.4898825  18.9960158
  68.3228302  71.8319893  19.7773504  63.5739565  12.3338032  46.4477587
  62.6168156  12.3260677  46.4555168  63.8238478  11.8232501  47.2179031
  69.3589067  69.4729805   9.4384801  68.7898016  69.5005274  10.2076292
  69.8414040  70.2991581   9.4678271  35.7547045  49.4464779  12.2025251
  35.1702523  48.7186241  12.4143612  35.4871631  50.1488113  12.7953005
  94.6090031  73.6589098  19.1951919  94.8912048  73.2030153  19.9881351
  93.9062595  74.2384338  19.4893539  32.9064394  10.6334326  84.0235679
  33.7910010  10.9945509  84.0816622  32.6100804  10.5783579  84.9320658
  60.8383417  46.6271019   9.2117268  60.5541229  45.8106041   9.6225560
  61.1693621  46.3610363   8.3539003  73.9585161  26.2128925  29.3097448
  74.1596746  26.8045616  28.5846949  73.6682749  25.4050589  28.8861966
  54.7152948  85.9139347  15.0534713  54.7307920  86.2063980  15.9647632
  54.8399687  86.7140007  14.5430017  86.9202232  74.1315842  34.9463630
  86.2132359  73.6122084  34.5634079  87.0235920  73.7802124  35.8307195
  66.2121677  79.3849134  31.1433053  65.5549335  80.0798416  31.1065817
  66.3122320  79.1016197  30.2344775  70.2675676  60.0721502  37.4160981
  70.2138424  60.8064365  38.0277872  70.8581495  60.3769827  36.7272425
  78.2963673  88.1877979  83.1407665  77.4001137  88.4885105  83.2908802
  78.1956259  87.3578151  82.6747082  45.9231806  39.5701408   4.3727297
  45.4146862  39.0271974   4.9751246  45.3167772  40.2592564   4.1013789
  56.4227438   7.3772222  17.7572894  56.3210154   8.0791473  18.4000838
  55.7611418   7.5645292  17.0913851  52.7585840  52.1357059  20.6102324
  52.1688223  52.6087618  21.1972833  52.8867912  51.2864637  21.0328317
  66.8012190  37.5796390  38.3967876  65.9328508  37.9821515  38.3846045
  67.4073744  38.3150673  38.3076000  70.1378012  59.1739321  23.9923096
  70.4301310  58.2637453  23.9439297  69.8747158  59.3888855  23.0974293
  45.7996559  65.2189493  25.3396630  45.1299477  64.9056625  25.9475946
  45.3118706  65.4736090  24.5564342  85.8919144  87.3715210  57.7152491
  86.4800930  86.8557072  57.1636868  86.2866306  87.3344421  58.5864878
  69.6723890  80.2182961  27.3628402  70.5452871  79.8796368  27.1638632
  69.5378923  80.9217262  26.7277646  26.6239524  90.2578831  18.3889103
  26.5754652  90.8699799  19.1232276  27.4517035  89.7947025  18.5174453
  59.3130827  51.8203211  32.1004295  60.2080965  52.0631123  32.3375702
  59.2395973  50.9000349  32.3532128  75.8405256  97.7374268  44.0334225
  76.5283251  98.0705261  43.4570456  75.2307749  97.2912884  43.4457207
  19.3912102  15.8766911  83.0326162  19.9740006  16.6321537  83.1092034
  19.7589184  15.3624222  82.3139016  47.4394560  97.8464031  26.1729884
  46.8981218  97.1548080  26.5536284  47.5605822  98.4748363  26.8847680
   0.6267678  68.7823534  10.5081499  -0.3062977  68.5826921  10.4322791
   0.9195839  68.9053631   9.6051753  68.3689547  60.7179689  29.5265102
  67.5571251  60.8839798  30.0056863  68.6728477  59.8721886  29.8559499
  17.6895356  75.8366585  19.1722190  18.2213211  75.0668430  19.3742621
  18.2751799  76.4089155  18.6764622  88.7614441  56.0491467  51.9761324
  88.8372898  55.1336050  51.7073107  88.5407829  56.5176439  51.1711121
  73.6745167  48.9425039  23.8157129  73.7669182  48.7155056  22.8904200
  73.9556551  49.8560238  23.8674474   6.8932488  98.3522519  78.6052148
   7.4075844  98.8156756  79.2662196   7.5099328  97.7353772  78.2110112
  55.8578587  72.9808140  39.7927976  55.0151634  73.0733681  39.3483567
  55.7817745  73.5363245  40.5685902  82.7452946  88.0788231  23.6302328
  82.5291443  89.0051842  23.7368512  83.0324745  88.0030727  22.7202749
  86.0566139  62.5383186  27.6246500  86.4962482  61.8923712  28.1775498
  86.5906239  62.5775671  26.8312263  46.0287380  88.0258560  34.8863220
  46.6332102  87.8062820  34.1773558  45.3439093  87.3592854  34.8322368
  85.0910282  55.4450369  66.1997747  85.9333992  55.7169914  65.8355045
  84.5323277  56.2175035  66.1138630  85.7693958  52.5948238  13.6368394
  84.8347187  52.4835539  13.4629703  86.1921597  52.4166822  12.7967405
  80.4955578  41.5289068  10.0986195  81.0796738  40.7901144   9.9276710
  80.7510090  41.8402672  10.9669662  90.0477505  32.7645874  41.5413332
  90.0332737  32.0547819  42.1833611  90.8068848  33.2936811  41.7863131
  90.6192303  86.5495968  11.2377775  90.9420967  87.0448112  10.4849434
  91.0509109  86.9513893  11.9917333  41.2936163  72.7437687  63.9163828
  40.9490871  72.4936008  63.0590916  41.2860441  73.7008953  63.9075470
  77.1223402  90.6029892  53.5645914  76.3782549  90.1633072  53.1531954
  77.3694038  90.0283527  54.2891455  71.5684366  67.9337168  23.9879918
  72.2386694  68.5382557  24.3066716  70.9559059  68.4882975  23.5047960
  82.5546551  67.3530245  44.9798775  82.8306293  66.7373037  44.3009377
  81.9977665  66.8349648  45.5610085  86.4543915  59.6028566  48.9283562
  86.8432045  60.3280878  48.4393835  85.7585144  60.0084925  49.4455099
  76.1931801  75.9738207  57.8942871  76.7227077  76.5881920  57.3859739
  75.7698917  76.5161419  58.5598326  63.8574696  68.5775566  45.5667877
  63.4541988  68.6250734  44.6999836  64.5058823  67.8774977  45.4912376
  88.3635426  80.2304840  43.7818193  88.9254189  79.4823503  43.5797644
  87.8018284  79.9229193  44.4932318  40.7257271  51.8861103  12.2161615
  40.0185204  52.0586872  11.5946257  40.5101109  51.0332870  12.5935662
  71.2183523  78.2145452  14.7720063  71.2865829  77.9541445  15.6905746
  72.0482969  77.9391146  14.3826938  44.0238857  66.2647057   0.1144908
  44.5543098  66.9813061  -0.2338892  44.6179867  65.5144453   0.1338708
  72.8679419  71.5239573  66.8093395  73.3441925  71.6111040  67.6350689
  72.3226452  70.7463121  66.9282722  94.0170002  85.7889938  49.9789715
  94.4853497  85.1698971  49.4189596  94.2704582  86.6505814  49.6478415
  73.7761784  91.2209892  51.5778017  73.0767536  91.7236805  51.1602592
  74.0785980  91.7801189  52.2934484  56.1982441  72.7040148  23.8001490
  55.4677868  72.9602194  23.2371020  56.9458246  73.1967688  23.4616947
 102.3235798  86.0081863   2.8690574 103.0210114  86.6393471   3.0464286
 102.1889305  85.5592060   3.7036341  62.1841669  32.8948689  29.5303154
  61.6624928  32.8699207  30.3324819  62.2216320  33.8226247  29.2977333
  63.5965490  67.8004932  49.2624235  64.1899872  67.9690933  49.9942970
  63.8935232  68.3930779  48.5718584  36.6057944  39.0016103  22.9748106
  36.0251880  38.5825801  23.6100602  36.0148168  39.4453979  22.3665071
  43.7114573  81.0679913  21.9399858  44.4076967  81.1130428  21.2846613
  42.9661942  80.6912613  21.4721346  47.7017450  76.3899469  29.2537928
  48.1430101  77.0603895  28.7322307  48.3218002  76.1841106  29.9533582
  64.4250011  74.0127230  39.2600131  64.0296555  73.7369490  38.4330416
  64.5839787  73.1961823  39.7335362  90.6449413  51.6038179   8.5716265
  90.1990128  51.3461733   7.7647793  91.2716389  52.2727013   8.2958198
  60.4703951  58.2306862  16.3973904  60.9599924  58.5954571  17.1345949
  60.4473019  57.2890377  16.5676737  43.4269476  55.0883484  11.5118825
  43.6396599  54.1615582  11.4021444  42.9289675  55.1247311  12.3285377
  33.0625772  41.6459131  22.5332427  33.6239338  41.3668394  21.8098974
  32.1990514  41.2950468  22.3154140  64.0560246  79.1504478  21.4967585
  63.2878733  79.3539619  20.9631300  64.5971632  79.9384928  21.4479661
  57.6214075  86.4692307  33.2660079  58.1051731  85.7749939  33.7134767
  56.9031477  86.0150433  32.8255033  62.2763920  66.7382288  39.0685630
  62.6224756  66.8995428  39.9463081  61.4681864  67.2497940  39.0320206
  92.1753883  88.4600258  28.5440922  93.0978584  88.4464550  28.7992358
  92.1582127  88.0378914  27.6851773  89.0371418  65.5437374  30.9349108
  88.1473923  65.3824091  30.6209946  89.5270348  65.7898045  30.1502490
  56.4018679  82.8171825  12.8861916  55.9922838  82.0003796  12.6010573
  57.2888756  82.7779198  12.5285459  66.6382360  37.8363872  23.8533831
  67.1271038  37.1748304  23.3639097  66.0763597  38.2517648  23.1991768
  72.6470184  85.2698994  27.6431179  73.2884693  85.7746410  27.1431112
  72.8042793  84.3613338  27.3862028  45.8223391  30.9707212  18.1556296
  46.1688185  31.2522292  19.0023518  45.5788040  31.7843008  17.7140331
  78.3676291  69.3548536  53.3059645  78.7618637  69.4805479  54.1691017
  77.4695301  69.0799570  53.4905815  36.6996838  21.0493443  60.0100725
  36.9764973  20.9015247  59.1057722  37.2087456  21.8080780  60.2953975
  54.3245125  55.4868603  23.2324409  54.7643423  56.2604666  23.5850143
  53.4174156  55.5725193  23.5258269  49.3387270 100.0830555  46.6382647
  49.0243673 100.1176167  47.5417089  49.5518064 100.9912777  46.4238977
  53.1171370  99.5462418  27.8452277  52.9183102 100.1318550  28.5758209
  52.5195312  99.8199558  27.1493959  60.6671381  48.3313847  19.8317695
  59.8971462  47.7629662  19.8471367  60.7184410  48.6407709  18.9274013
  54.0783001   9.4289324  63.8643043  53.2356716   9.0918800  64.1686170
  54.4635082   8.7029907  63.3735292  69.1164112  45.1904345   4.3773580
  68.3081961  44.9332428   4.8210624  69.4621706  44.3737936   4.0171051
  88.6890793  70.6082153  30.4232645  88.0627441  70.8498192  31.1055827
  89.3687916  70.1173115  30.8850384  59.1914368  72.4705076  28.1907320
  59.5015287  71.5667009  28.2473755  58.9352083  72.5788546  27.2748518
  71.0268164 102.2827721  16.1381078  71.8726921 101.9902897  16.4774907
  70.8357906 103.0826187  16.6279972  77.9216385  69.0747881  30.2953172
  78.8362122  69.1273069  30.0177717  77.4212360  69.1172218  29.4804382
   8.5778675   9.3300928   2.2500680   7.9991589   9.2992795   3.0118987
   8.6014137   8.4281076   1.9305401  65.3442621  73.7331676  42.8075361
  64.4954681  74.1627598  42.7015638  65.5918360  73.9124203  43.7146235
  76.7092705  62.8948164  18.5470974  77.5821114  62.7605963  18.9163744
  76.7875767  62.6084614  17.6370955  61.2918090   6.9460405  24.1100335
  62.1428798   7.3839105  24.1235256  61.0153269   6.9316114  25.0263214
  50.2708483  24.3326950  13.8552999  50.0049448  25.2493787  13.7830329
  49.5689249  23.8450170  13.4243655   0.6205044   8.9785112  49.2794275
   0.0146160   8.8122858  50.0015736   1.0649214   8.1419004  49.1422606
  25.0749804  60.2503035  82.1649544  25.9913374  60.0689528  81.9560729
  24.6025969  60.0614760  81.3541334  74.5287275  67.0930672  11.1616147
  74.9312592  66.4860725  10.5405247  74.3201971  67.8673458  10.6388867
  72.4417543  42.5272036  23.5341191  72.2521830  42.0206976  24.3238950
  72.4380064  43.4383917  23.8273072 107.7912998  76.1423159  38.0979037
 107.8508377  75.2857161  38.5208988 108.6466980  76.2663269  37.6866317
  78.9425205  26.3279928  47.7079391  79.7162412  26.2061418  47.1577263
  78.2216810  26.4348520  47.0872879  70.8631754  70.4857826  29.2378712
  70.4061508  70.3385115  28.4098196  70.2783775  71.0569048  29.7359276
  62.3651314  73.7500525  37.3634171  62.6241398  73.3387136  36.5388274
  62.2978067  74.6819544  37.1554351  51.1646509  39.8589540  28.7127733
  50.4499435  39.7161627  28.0922604  50.9371805  40.6761932  29.1561794
  53.4553385  68.5897160  69.5340586  52.8348446  67.9565001  69.1731501
  54.1294241  68.6754799  68.8599014  36.4377999  84.7728062  43.5394335
  35.5411053  85.1064873  43.5107231  36.6414189  84.5546722  42.6299334
  70.1529264  62.5343466   4.1475123  70.4243803  63.3240175   3.6795765
  69.2731762  62.3510790   3.8178328  82.5600433  79.7260094  21.2866235
  83.3334064  79.7256374  20.7225800  81.9814777  79.0685844  20.9002495
  68.1524420  67.6589108   3.4548995  69.0629482  67.4376345   3.2593191
  67.8763819  66.9979048   4.0897906  90.5410099 101.2993717  63.6075258
  90.7139492 101.2195301  64.5455790  89.5945644 101.4298248  63.5487175
  59.1504383  66.2715626  44.8200750  58.8877773  65.8176088  44.0193462
  59.9495125  66.7400169  44.5786953  73.5849094  60.6434202  29.7763634
  73.1090832  61.4645958  29.6518993  73.3448267  60.3587723  30.6581640
  75.2871466  55.4313707   8.3325917  76.2190771  55.5813122   8.4915155
  75.1425076  54.5224714   8.5956836  37.5702071  69.6098852   0.9330253
  37.6605105  68.7589312   1.3619225  37.3361635  70.2109289   1.6402733
  82.9590988  71.5125799  79.1095304  82.1591091  71.8002558  79.5494032
  82.7208900  71.4692259  78.1834602  65.3971958  88.9740372  31.2183428
  64.4823647  89.0564442  31.4876509  65.8987808  89.2154980  31.9970250
  68.5202742  49.8740959   8.6975718  68.0991507  49.5092058   7.9192758
  69.3791389  49.4524050   8.7251234  56.2579298  71.0289478  55.6280899
  56.4774704  70.2109909  55.1820135  56.7510700  70.9945726  56.4477682
  93.8623047  59.8482037  43.9252424  94.7656822  60.0568533  44.1631937
  93.8642025  59.8326826  42.9681730  23.5950209   9.2646572  83.3765172
  24.1491963   9.9659035  83.7191193  22.8974558   9.7195551  82.9045962
  80.4588890  73.3505011  19.9476886  80.4195690  73.0674362  19.0341449
  81.1499119  74.0126610  19.9637365  79.0872335  61.3815880  37.9141545
  78.2156467  61.0718584  37.6679063  78.9786577  62.3236227  38.0445886
  59.3585110  77.5303173  27.1024609  58.5229540  77.8915119  27.3984456
  60.0116968  77.9444361  27.6664519  75.1709843 100.5047226  48.0226469
  74.9390030  99.9420738  47.2838306  74.6519756 100.1674175  48.7527847
  64.1057253  59.3711948  40.1285696  63.6640596  59.6566343  39.3287635
  65.0149298  59.6466208  40.0114298  74.3007469  62.4738169  34.5037651
  74.6017599  61.5904236  34.7164726  73.7085009  62.3528242  33.7615776
  29.4714285  17.5797340  72.6188438  30.1975657  17.9346439  73.1316666
  29.5277334  16.6328690  72.7473585 100.4105377  97.3066616  49.8424530
 100.0746155  98.0934238  49.4130468  99.8977470  97.2357559  50.6475973
  62.5862837  86.4668560   0.7752758  63.2897758  86.0273361   0.2976182
  62.7165461  86.2061214   1.6870193  70.6304836  92.4000931  52.6169062
  70.8199406  91.4917564  52.8519917  70.1858234  92.7585506  53.3850336
  66.3563776  73.7209034  30.3927708  66.9613075  74.3167973  29.9509501
  65.4873800  74.0195751  30.1246905  51.0541416  39.0387079  75.0166111
  51.1997296  38.1046793  74.8661606  51.8135906  39.3203947  75.5266301
  87.4406433  90.4943275  27.6974320  87.1811962  90.3287125  28.6037898
  88.1964016  89.9240398  27.5566149  60.2794504  70.0812769  28.2970071
  61.0893440  69.6400928  28.5532689  59.9032974  69.5176888  27.6209068
  63.6088800  82.6874161  13.3313477  64.0311956  83.0236912  14.1217923
  63.8658953  81.7660427  13.2959616  95.0072575  61.7603588  64.1906500
  94.4849873  60.9957361  64.4331646  94.5164394  62.1693754  63.4778786
  51.8298435  78.8345432  43.8913202  51.5471506  78.3303404  44.6542740
  52.5138664  79.4138432  44.2271137  28.4096932  71.2696266  24.3050051
  27.5701809  71.0254240  23.9153695  29.0342498  71.2155008  23.5816550
  73.9085770  65.9457493  29.5765185  74.0512753  65.1704454  30.1194525
  74.6463251  66.5203714  29.7809076  90.4385725 100.2562245  76.4172225
  89.8079745 100.7416590  75.8853071  89.9003807  99.6831235  76.9632463
  65.6746054  45.6470442  21.5143919  65.0578737  45.8458281  20.8098626
  65.7797766  44.6962786  21.4794755  55.8020401  39.7432661  18.3927488
  56.2358618  40.5744076  18.5857213  56.4378309  39.0757370  18.6504507
  91.2786865  49.5136881  54.2934608  90.6156540  49.0013599  53.8307095
  92.0095348  48.9072418  54.4131517  52.3428774  30.2552891   4.4995055
  51.5588427  30.6796193   4.1509935  52.3194981  29.3711567   4.1334540
  65.7339334  60.7022095  45.8893967  65.0472879  60.0620604  45.7024097
  66.0608196  60.4568911  46.7549562  50.7631540  72.9101753  52.5342560
  49.8763275  73.2339239  52.3762798  51.2475872  73.6775589  52.8386879
  82.3124027  52.5821161  24.5328236  82.5514412  52.1049833  23.7381935
  83.1086063  52.5766993  25.0641036  94.6947098  90.5872917  11.0135496
  95.4325199  90.4555321  10.4181433  94.5499897  91.5334797  11.0098791
  76.7845821  94.6196079  21.3766909  77.6089430  94.4465542  21.8313503
  77.0350981  94.7270966  20.4591298  86.1901497   0.2806581  21.7523217
  86.3878750   1.0594190  22.2725725  86.5574907  -0.4445731  22.2576356
  87.3807335  61.0192013  53.5947084  88.1646538  60.4988384  53.4188604
  87.2249317  61.4998055  52.7817011 100.8648872  79.4628048  41.3801050
 100.1190090  79.3922329  40.7843494 101.4310360  80.1216412  40.9780645
   7.8856789  49.9754190  26.5860796   7.5235497  50.8039331  26.2719750
   8.8308369  50.0657701  26.4646196  67.3038578  94.9299431  30.7648659
  68.0103111  95.1818943  31.3595724  67.7514219  94.5522690  30.0077105
  84.9134922  68.2153225  47.4827194  84.1374493  67.8162718  47.8761005
  84.6633911  69.1267490  47.3311090  83.0949974  78.3626032  16.1532199
  82.3303413  78.0533600  16.6389227  83.6418438  77.5842619  16.0465539
  79.0455008  89.0633106  37.4641728  78.9231539  89.0947151  38.4130025
  79.9298906  89.4021511  37.3253655  73.2344818  51.7017746  15.9860325
  73.6373568  52.5672340  15.9159923  73.0272102  51.4602995  15.0832796
  10.2342656 100.2958354  82.9637508  10.7478955 101.0755833  83.1744610
  10.8723500  99.6778830  82.6070742  54.9927711  73.7519836  21.4900160
  55.5891371  73.1637621  21.0267997  54.1422033  73.6052656  21.0762000
  60.8224058  68.3869600  21.3004732  60.7997370  69.2813110  21.6408443
  60.7734108  68.4910250  20.3502083  55.5665636  72.9440498  51.0404634
  54.7609282  72.7175236  51.5050840  55.2684832  73.2953167  50.2014208
  70.6562185  66.7405081  37.9785681  70.1464844  67.4395275  38.3881712
  71.0845041  67.1615791  37.2332478  57.4591589  82.9495430  24.5488739
  56.7104197  82.7593899  25.1140857  58.1925535  82.4931145  24.9612236
  81.3161182  57.2152853  31.4972687  80.9124470  57.3226881  30.6360245
  80.9493351  57.9254293  32.0239472  59.0768003  84.7121906  27.1017838
  59.1496325  83.8520908  26.6880608  59.8235369  85.2053738  26.7620969
  39.9183106  74.4640732  39.2447829  39.5684838  73.6781883  39.6645927
  39.3197751  74.6336079  38.5172892  46.9811201  42.2825146  11.9791865
  47.1970940  42.7553415  12.7829397  47.3865128  41.4226198  12.0908773
  73.3851004  77.6925945  31.1069155  74.2447710  77.9271030  30.7573366
  73.4725094  77.8054571  32.0534110  72.9304218  59.7172785  49.6878195
  73.7588358  59.3237972  49.9619341  72.7175426  59.2781019  48.8643885
  76.9045401  76.4466333  31.6886282  76.7544079  76.9293737  30.8758235
  76.2725544  75.7282734  31.6607785  47.8485060  43.6701250  22.8780937
  47.8566265  43.6363459  23.8346648  48.6557341  44.1301060  22.6478124
  16.9303490  30.2699396  86.4294250  17.0248247  30.9283373  87.1177735
  16.2098957  29.7142622  86.7267449  47.8698778  91.9075680  69.3913031
  47.4730015  92.7603054  69.5689297  48.7583590  92.1128464  69.1002846
  84.7791386  60.2486134  23.0492902  84.0735054  60.8100891  23.3703279
  84.9880028  59.6793175  23.7899041  80.8378410  61.2931204  56.0752964
  81.3079834  60.8358812  56.7725277  80.1462936  61.7750740  56.5288496
  71.0399675  75.7335949   1.3907115  71.9916058  75.6404781   1.4348382
  70.8608341  75.9291029   0.4709727  83.0128860  76.0437870  32.8546596
  83.8349056  75.9302998  33.3317614  83.1060028  76.8887615  32.4146771
  65.6217813  68.9592648  15.2455854  65.4392862  68.3161259  15.9306383
  66.0475159  68.4558010  14.5516777  71.4630747  83.5169601  38.5466766
  72.0841122  83.3862686  37.8301144  70.6428957  83.7522316  38.1128716
   3.6982498  10.5047143  13.4642422   2.9430637  11.0085214  13.7677217
   3.4110556   9.5926679  13.5082388   0.5737457  13.8659585  34.0076303
   1.1325226  13.2835878  34.5222592   0.5590258  13.4739412  33.1345081
  95.1666927  73.9084148  16.6307974  94.8349571  73.7298155  17.5107324
  95.9194565  74.4828892  16.7706466   2.2559891  24.2403615  45.3247118
   2.4804125  23.7707056  44.5214128   1.3458691  23.9990056  45.4969501
  18.4244667  83.5354137  37.3344231  19.2733895  83.0956936  37.3814416
  17.8277909  82.8685093  36.9946623  97.7662443  21.9730772  59.7214985
  97.8095173  22.2667993  60.6314898  98.0646728  22.7265657  59.2121601
  30.0928093  25.5750057  77.5456231  30.7589413  25.3764698  78.2037132
  29.7692372  24.7185251  77.2663896  63.0843973  85.3492641   3.1505540
  62.2182178  84.9419117   3.1566411  63.6446857  84.7276306   3.6151814
  91.8227100  73.0620193  20.2882195  91.8833923  73.9679623  19.9852002
  92.2523785  73.0662680  21.1435556 101.9392967  98.0644608  35.6929708
 102.5656796  97.9061604  34.9867058 101.4924526  97.2259808  35.8092189
   0.8210312  95.2998924  50.4298973   0.8724438  94.9690342  51.3266277
   1.2391125  94.6212673  49.8998785  66.4433479  98.3255577  11.9957280
  66.6459846  97.3962975  11.8877900  65.5152321  98.3958244  11.7723668
  94.4964695  86.3290405  31.6038823  95.2742004  86.8252182  31.3485956
  93.9521503  86.3151360  30.8166361  50.1701641 100.0231552  43.9038515
  50.1951027  99.6291065  44.7758198  49.6362066 100.8102131  44.0118790
  71.8128490  64.6450472  54.0471458  72.6348400  65.0551891  54.3161154
  71.8230486  63.7872076  54.4716978  65.6452894  80.7044220  56.2498331
  65.2997398  80.2017498  56.9874907  64.9151993  80.7573223  55.6330729
 100.5027126  14.1059793  34.6815944  99.6475433  13.8645185  35.0374365
 101.0170339  14.3621267  35.4471588  78.0378485  81.1172295  55.6269646
  78.3519602  81.9950485  55.4101419  77.9673719  81.1170673  56.5815687
  17.9730107  45.5463621  88.9093889  18.5490586  45.0359270  89.4784662
  17.5717570  44.8977968  88.3309519  77.8735447  68.9730692  11.6160655
  77.8459454  68.0611801  11.3263679  78.3116579  68.9410448  12.4665141
  32.0165405  13.9329351  46.3685703  32.4405632  14.1064085  47.2090101
  31.6950569  13.0344499  46.4434433  60.2865124  83.2427311  44.3649197
  59.5965910  83.8162518  44.0312767  60.4625750  83.5683060  45.2476597
  43.5856367  32.6178381  67.3466246  43.7344815  32.2383616  66.4805572
  43.8952900  31.9491694  67.9575460  92.6277733  71.2583065  37.5189519
  92.7336121  71.8260479  36.7556047  93.5202408  71.1055756  37.8294420
  92.1584511  78.8546896  24.2139387  93.0184078  78.4435463  24.3015528
  92.0104027  78.9013767  23.2694101  11.6853104   8.1090272  43.0103540
  11.6249142   8.8904584  43.5598612  12.1445522   8.4040750  42.2240496
  67.8530884  89.0153027  10.1279962  67.0574760  89.5324230  10.2537739
  67.8836346  88.4341240  10.8879483  32.0292069  31.0145399  87.3435016
  31.9353558  30.0908587  87.1106146  32.8503157  31.2832186  86.9314070
  54.7286774  15.2586290  88.5800946  54.8133732  14.4236347  88.1198265
  55.6007458  15.4242107  88.9382875  88.7358856 101.2331200  53.0130959
  89.3720245 100.8438396  53.6131239  88.0485916 100.5720043  52.9307652
  54.1424465 101.5436268  33.5059047  53.7621164 101.1837196  32.7046251
  53.6572933 101.1186409  34.2131901 100.6272507  94.4694710  32.5601435
 100.5033398  93.6798000  32.0335579 101.2299633  94.2024231  33.2541609
   3.5884415  53.9347744  19.0952921   3.8823448  53.0455875  19.2932880
   4.2002331  54.2462969  18.4282863  88.9022064  93.5296822  38.2733011
  88.6294270  92.7617359  38.7753820  89.7793674  93.3109379  37.9586840
  81.0541344  59.9935818  16.8516076  81.5894890  59.5431995  17.5048947
  81.6304970  60.6689692  16.4939821  56.7978764  78.8590002  42.4737597
  57.0857763  79.7702026  42.5290489  56.5583992  78.6285925  43.3714247
  82.9508606  96.9186362  77.8046434  82.2284952  96.3949402  77.4580054
  83.0437056  97.6401385  77.1825104  89.5152187  55.7789803  71.0799170
  89.3848515  56.4973354  71.6989565  90.0681973  56.1518574  70.3933239
  45.7931376  76.0317707  37.6449323  45.6285763  75.9917927  36.7028332
  46.7305517  75.8587933  37.7318835  88.2811474  23.3192552  56.5969276
  88.5327696  23.9700426  57.2522116  88.1514572  22.5134958  57.0970917
  64.8586798  86.0019398  19.4941950  64.5938587  85.0841331  19.5552957
  65.5298901  86.0126400  18.8118529  93.5862827  73.1962109  35.7550478
  93.9674759  72.6895571  35.0379539  94.1256142  73.9854956  35.8038020
 108.2720779  45.2994073   0.7324989 108.3048700  44.9277414  -0.1489884
 107.9312109  44.5910085   1.2785888  76.1861992  74.4524145  67.9902458
  76.0015249  74.7743654  67.1079350  77.1304131  74.5694017  68.0951452
  72.4882507  79.2368793  27.3411584  73.4198284  79.4471121  27.4059248
  72.2824097  78.8033342  28.1693506  38.9731385  60.1632998  81.7669545
  39.4349743  60.5972120  81.0495590  39.6660830  59.8949644  82.3703246
  87.1095848  71.3462114  44.1524506  86.9375229  72.2742367  43.9930725
  87.2195053  71.2824821  45.1011801  64.7003222  65.8171654  34.9649048
  65.4881096  66.3374519  34.8070383  64.6199322  65.7875109  35.9182644
  28.4599266   2.9921068  37.6829934  27.5705681   2.9302991  37.3344779
  28.9307652   2.2697271  37.2674203  63.7908411  70.4496956  23.5703087
  64.2299604  69.7648811  23.0658889  64.0154076  71.2623215  23.1170559
  83.5570431  78.2867575  41.6850615  84.1475677  78.7276077  41.0741949
  83.3814526  78.9401579  42.3621702  63.2308769  71.2204790  44.0586996
  64.0795040  71.3707161  44.4752264  62.6348639  71.8213320  44.5058870
  61.4273024  61.6253281  35.6027031  61.7641544  62.1417522  36.3348699
  61.5236664  62.1976805  34.8415446  74.5120287  78.7704372  46.1692095
  74.6975136  78.2388639  45.3950930  74.9778891  79.5918894  46.0129118
   0.4612004  90.7756805  22.0940161  -0.3428615  90.2566338  22.1116281
   0.2104412  91.5911198  21.6599560   9.7839317   3.5085500  25.3255105
   9.0642986   4.1375173  25.2729392   9.7185860   3.0016340  24.5161915
  26.6193177  23.5456774  83.1650095  26.3815237  22.6560185  82.9038756
  25.7950903  24.0316317  83.1379192   6.7981755  59.0922260  38.5577726
   7.3344647  59.6821642  39.0874839   5.9045159  59.2367697  38.8687563
  92.3930740  83.9524078  18.5706043  92.0467567  83.9121819  17.6791549
  92.6957703  84.8550892  18.6694574  69.6497965  61.5772724  32.7193356
  69.0913963  62.0034313  32.0690966  69.4589567  62.0368624  33.5370111
  21.2402020  18.6452116  38.0463839  20.5395660  18.4129156  37.4369717
  21.6720924  17.8139032  38.2429290  98.7646984   9.1264165  41.3565922
  99.6792387   8.8471998  41.3132048  98.8048862  10.0825227  41.3346767
  54.9158049  81.8854618  49.6801567  55.2751493  81.0396290  49.9478722
  55.5326700  82.2111130  49.0246677  94.1048145  61.2360048  17.9463732
  93.4478188  61.7398930  17.4660802  94.9261570  61.7015696  17.7886283
  60.3771019  81.8577480  29.7751045  60.0933790  82.7672005  29.8679519
  61.2909746  81.9191456  29.4970679  67.5909853  35.3757954  32.2078133
  66.8293905  35.9243584  32.0199752  67.2302246  34.6100020  32.6546311
  78.4972715  93.1897926  38.4805918  78.7421227  93.2930470  37.5610161
  79.3200779  93.2871246  38.9599156  87.1801853  94.9082184  33.5206175
  87.0518970  94.2448425  32.8426027  86.5491867  94.6786213  34.2027879
  82.3277760  98.3719730   5.4011887  82.5184727  99.1271687   4.8448265
  82.8656960  97.6670170   5.0407428  74.5010996  78.4030867   5.7697672
  74.4832850  78.2680893   6.7172325  74.4429970  79.3524218   5.6619644
  95.5310822  76.6769886  49.5057583  94.6898937  77.1312809  49.4583654
  95.3497791  75.8010626  49.1650057  63.4615183  71.8005610  29.3969679
  62.5886917  72.0371342  29.7107148  63.9681005  72.6098442  29.4653034
  45.2909908   3.2831872  11.2239873  46.1591110   3.5399259  10.9130454
  44.7132549   3.9873517  10.9296954  10.0037323  87.4299145   4.0182614
   9.5872723  87.0256615   4.7794253   9.2735516  87.7292919   3.4765592
  80.6813431  79.0181780  33.7175369  81.0514069  79.8655415  33.9650321
  80.3137207  79.1628218  32.8456640  57.6083231  63.4281969  26.7822790
  57.9157400  64.0131569  26.0897851  56.6926908  63.2568121  26.5620995
  73.5645962  72.1171188  43.5671282  74.0879965  71.3168001  43.5249710
  72.8059530  71.8793488  44.1001940  86.7955017  52.6879597  22.2715640
  87.5482368  53.2750273  22.2011280  86.7809200  52.2162247  21.4388037
  81.9635868  73.4458303  37.3435521  81.9332600  73.6617899  36.4115262
  82.2904396  72.5465727  37.3705316  45.5422735 100.9902287  61.3586426
  46.1164713 100.3833961  61.8258476  45.0887108 100.4443645  60.7163525
  11.4758835   9.5379079   5.5845684  10.6069050   9.8119081   5.8778995
  11.5343151   9.8523534   4.6823800  38.2611251  93.2678795  63.2404232
  38.4585929  93.8130760  64.0019989  37.3514414  93.4753418  63.0267334
 103.1748009  66.8852186  11.3404739 102.3773384  67.0379162  10.8335519
 103.4012890  65.9725809  11.1615276  81.6170025  93.4829235  26.2175155
  81.7062378  94.4035339  26.4639759  80.7105255  93.2639694  26.4333940
  63.0544828  27.0629514   6.0952973  62.5330518  26.9128240   5.3067505
  62.4384784  27.4445451   6.7207223  45.7900286  84.9219608  14.7341669
  45.6527853  84.0930271  15.1927102  44.9072027  85.2476120  14.5586646
  44.4249487  48.1285954   4.7984168  43.9663410  47.3822355   4.4125977
  43.9027834  48.3594608   5.5667090  47.8455496  83.8664532  22.7939367
  48.7607956  84.0650368  22.9917455  47.7210045  82.9714584  23.1096768
  84.2673397  77.4552107  82.1760368  84.7094059  76.6592836  81.8805313
  83.5255051  77.1396399  82.6920986  49.0307198   9.1088594  22.5594163
  48.3810864   9.3854536  21.9131088  48.9715920   9.7646059  23.2542038
   3.5118017  12.4897207  17.0012462   3.3757649  12.5898851  17.9434216
   3.5195789  11.5430749  16.8596733 103.2715200  11.7236913  36.4115214
 103.9416050  12.2096170  36.8922472 102.8655170  11.1601556  37.0701694
  80.1017094  67.9778194  36.8876719  80.2766228  67.5256920  37.7130294
  79.1491508  67.9514456  36.7973232   2.2402607  93.8326168  11.7899752
   1.5291344  94.1770363  12.3302662   1.9660508  94.0117455  10.8905542
  38.8870026  30.0405047  86.8874955  39.6250798  29.8153040  86.3211383
  38.1200958  29.9765608  86.3182892  38.4295202  41.9396803  87.7641799
  38.6715103  42.5858328  87.1007344  39.0799738  42.0528814  88.4572365
  54.0869617  42.8151846   7.3774791  54.8325777  43.4147835   7.4052083
  54.3239689  42.1688557   6.7124122  52.2804356 101.3579845  13.2665229
  52.3939419 100.6701183  13.9224088  53.0367041 101.9320107  13.3881164
 104.7968197  96.8810844  60.8367586 104.1322708  97.0755863  61.4976454
 105.4919052  97.5182915  61.0012722  61.6721153  91.9727421  17.2843170
  60.8693838  91.5389729  16.9950199  62.2165632  91.2644768  17.6280653
  87.2359467  93.4092712  31.2041283  87.9204273  93.5365868  30.5472279
  87.1243954  92.4598503  31.2528968  37.2009827  14.9853108  84.9049188
  36.5706326  14.3139097  84.6439322  37.2140909  15.5997345  84.1710638
  94.1906738  82.1641731  24.3727493  93.7738228  82.2103691  23.5123229
  94.9781418  81.6391850  24.2295146  28.1171298 102.1978378  48.6808681
  27.9425812 103.0441189  49.0926600  28.3351707 101.6171646  49.4099140
  99.5619392  85.4003716  32.7347660  98.8743877  85.0284672  32.1823144
  99.6105766  84.8099995  33.4866476  67.0789528 101.7385674  41.0114717
  66.5035057 101.0084534  40.7833767  66.5630722 102.2696400  41.6181517
  91.9777775  96.0956478  58.5978889  91.7105961  96.2934589  57.7002716
  92.3732853  96.9077682  58.9145374  68.6992788  90.9411144  31.8100667
  68.1669903  91.4795017  32.3957658  68.5494947  90.0436974  32.1074367
  70.1426697  89.2751026  59.4908142  69.9549294  88.5604954  60.0993586
  69.2956686  89.6979427  59.3493080  65.7422686  94.0574360  34.9823809
  66.0664320  94.9474907  34.8447251  64.8257303  94.1724682  35.2332926
  74.6330737  11.6498006  34.8501849  74.2393302  12.5131906  34.9756813
  75.5590271  11.7764677  35.0570560  47.8655624  77.9993677  38.8082051
  48.5513592  78.3105803  38.2173920  48.3312464  77.7545929  39.6078658
  91.9621300  14.2327417  44.6644306  91.5365766  13.4841360  44.2464352
  91.9700645  14.9113763  43.9894247  53.5135651  73.4554863  25.8327413
  53.9102745  74.1008186  25.2475929  53.0404902  72.8620863  25.2493834
  86.0899258  66.0668802   1.3631952  85.1696110  65.9197330   1.1450206
  86.2432671  65.5216932   2.1348730  84.7515678  73.4335041  24.1323328
  84.7345543  73.9047289  24.9653316  83.8314247  73.3631563  23.8781142
  97.4931049  84.6056271  21.8954682  97.7226257  84.3570709  22.7908850
  98.0648232  85.3477383  21.6988826  97.9773808  70.9201097  57.9364252
  97.2975063  70.2560472  57.8223276  97.8121376  71.5543890  57.2388506
  99.0351700  14.1405786  25.9574628  98.9364647  14.6774877  25.1711917
  99.8171734  13.6141504  25.7913947  80.0867462  72.6643991  17.1869218
  80.5836582  72.0187807  16.6844440  79.3020153  72.1951103  17.4701118
 101.5341257   0.3606618  42.4626255 101.7544054   1.0961832  43.0342150
 101.0952019   0.7628835  41.7130995  81.8917561  98.0426121  19.0113497
  82.8275871  98.0036926  18.8140357  81.8521881  98.2597637  19.9427533
  83.4103607   9.9087251  10.3407896  82.7821230  10.5411828  10.6894279
  84.0050482   9.7347654  11.0703897 102.3450254   2.3035158  44.1613579
 102.5406479   3.1950677  43.8730812 101.9915556   2.4095071  45.0445652
  60.7486819  26.6413415  37.0060802  60.6012009  25.7684339  36.6420579
  61.1941003  27.1202005  36.3071346  81.7471027  86.7955780  41.1753321
  80.8586407  86.5133476  40.9580183  82.0119762  86.2209892  41.8936110
  91.0156918  78.6199331   4.6482208  91.2203789  79.1920805   5.3878039
  91.6444397  78.8696289   3.9710554  36.8919396  53.6629820   1.6933493
  37.0782089  54.0459013   0.8360823  37.7134705  53.2459784   1.9530217
  76.0356903  70.9319735  33.1858945  75.8205462  71.7834473  33.5665917
  76.0911608  70.3409910  33.9368272  83.4891008  15.2114786  24.6933913
  84.1644119  15.8413328  24.9453306  83.5555099  15.1576341  23.7400174
  64.5657110  65.8287907  37.7750349  65.0072479  65.1016617  38.2138538
  63.6791515  65.8235121  38.1358862  78.6012554  72.3707771  28.0438924
  77.6643801  72.5060415  27.9017687  78.9588881  72.2315598  27.1669960
  38.5642743  92.5698090  24.9552584  38.7157917  93.5011292  25.1162124
  37.6164961  92.4973011  24.8425913  82.0243549  86.4863777   8.3121425
  82.0028591  86.4582443   9.2686874  82.1722794  85.5780029   8.0490702
  27.5989987  49.1880152  38.9908211  26.9745089  48.7066862  39.5335476
  28.4561230  48.8630697  39.2664616 106.7599297 101.4907265  85.5825329
 106.4799690 101.7154026  86.4698792 107.0838165 100.5928040  85.6537056
  65.5147362  75.0052595  53.0078650  65.3566980  74.1655636  53.4393311
  65.2612257  74.8578119  52.0966959  96.3705229   3.4691633  10.4170823
  96.0206245   2.5997079  10.6116664  97.0811199   3.5879148  11.0473061
  81.1503029  82.8054237  60.8497715  80.8001232  83.6789703  61.0244656
  82.0965004  82.9004574  60.9589291  63.7617588  85.3223038  38.5896587
  64.1107750  85.2731037  37.6997161  63.5731268  84.4134903  38.8235450
  50.8287573  78.5609055  18.2707429  50.8614731  79.0763712  17.4648559
  50.9566879  77.6571846  17.9823756  71.8127775  90.0880432  70.9458637
  72.7503777  90.0158978  71.1245775  71.5836573  89.2570782  70.5296469
  98.6818218  65.6426668  20.6860924  99.2501926  66.4037657  20.5681229
  98.3446789  65.4573536  19.8096049   3.5884796  43.9196968  30.0506067
   4.2304837  44.5466232  29.7173905   3.3261620  43.4138441  29.2814970
  53.2927132  86.3633728  71.8494081  52.9251957  85.5597115  72.2172308
  53.2282448  87.0028019  72.5587845  91.1413956  88.6087799  17.1468794
  90.9652710  88.5368824  18.0849850  91.4446735  89.5089054  17.0284224
  86.2999153  80.3984547  51.2180471  86.0707474  81.3262272  51.1636591
  87.2534370  80.3820419  51.1358452  66.8142462  71.7716503  18.5150778
  66.9447613  70.9089184  18.1215167  65.9269094  71.7400312  18.8726604
  77.0445442  60.4818583  23.9530206  77.1743345  61.4021349  24.1820836
  76.2573195  60.4792976  23.4084988  85.9636974  71.9825506  46.8339157
  85.5379105  72.7060318  46.3740063  85.2790833  71.6202402  47.3962831
 100.2066040  63.2440901  12.3200810 100.5393600  64.1411543  12.3479736
  99.3051052  63.3131552  12.6343489  84.6823120  55.2125597  60.0022268
  85.0148869  55.2755976  60.8975744  83.8130379  54.8230743  60.0964832
  85.8375549  74.8763657  38.6195350  85.2656651  75.5588531  38.2682705
  85.2851009  74.3941498  39.2347431  22.2749401  36.4096377  69.6818189
  22.7548100  35.6921217  70.0954883  21.3532377  36.1752340  69.7902219
  91.7003441  97.1693516  18.4218633  91.8262291  97.1068478  19.3686891
  92.5265694  97.5237465  18.0932641   2.2082936  90.4639053  83.5022259
   2.5988041  91.2942028  83.7748718   1.2780701  90.5579376  83.7073898
  56.1314917  63.3457422  10.5822480  56.4458132  63.7952709  11.3666940
  56.3949919  62.4340010  10.7068849  96.0104656  71.4216805  66.0564089
  96.8297386  70.9884262  66.2958241  95.5764389  70.8045721  65.4673147
  87.7856541  61.6851377  40.7921219  87.4136448  62.5642395  40.8630323
  87.0248604  61.1055803  40.7528067  91.9026661  75.6883240  32.7043366
  91.5324974  75.9028435  33.5606003  91.6896439  76.4430141  32.1554279
 108.0531979  88.7640572  35.9286857 108.0027676  89.2111015  36.7735767
 107.4454784  88.0290031  36.0099912  71.4334202  94.6632290  30.6582808
  70.7828188  94.2933369  30.0615168  70.9888983  95.4061317  31.0666084
 108.3948803  67.4148464  20.5806065 107.5562859  66.9811344  20.4228497
 108.1844044  68.1335640  21.1767435  48.4808979   9.1921342  29.7102547
  47.5293598   9.0883172  29.7049856  48.7052403   9.3904127  28.8010836
  90.7332134  90.0316238  25.8584285  91.5401173  89.5206738  25.9221196
  90.1712418  89.6788406  26.5483284  70.9584141  70.2202272  32.8821087
  71.1410427  69.3827820  32.4560022  71.6875601  70.3437805  33.4898233
  74.1268921  57.0306063  37.1162176  74.7805738  56.3726139  36.8796086
  73.3573055  56.5223503  37.3724198   3.3420492  65.3088972  75.8032470
   3.4946824  64.7382948  75.0500243   2.6400520  65.8952829  75.5211453
  73.2543135  71.9413805  40.5751467  73.4997749  71.9173193  41.5000248
  72.4761963  71.3867140  40.5193472  15.5386950   7.6461908  79.9394684
  16.3967873   8.0294439  80.1211982  15.2445389   8.0850765  79.1412918
  63.9512873  76.4379501  21.1547518  64.7326803  76.1987209  21.6531754
  63.8075352  77.3610497  21.3632059  61.9506073  71.2120581  32.6625991
  62.4643660  71.8874454  33.1054711  61.3944006  71.6960049  32.0521379
  80.8219528  71.3352203   4.1827184  80.9076405  70.4568529   4.5533407
  79.8775196  71.4752769   4.1144076  97.0667744  84.7077465  53.0807638
  96.7019367  83.8271046  53.1678915  97.6904964  84.6381855  52.3580170
 105.6848596  33.5503114  20.6988120 104.7437977  33.3883298  20.7651353
 105.9185671  33.2484735  19.8210251  69.0625454   1.2767241  75.5942087
  69.8613240   1.0154841  76.0523956  69.3723656   1.6751597  74.7808878
 102.7522182  76.4789438  52.1347904 103.3751583  75.9216261  51.6683388
 101.9496918  76.4278364  51.6155863  88.1608772  38.1119585  33.2476187
  87.3771191  37.6224351  33.4972620  88.6940861  38.1318569  34.0423012
  10.0966679  69.3051243  56.7007160  11.0138642  69.0599155  56.5788507
   9.6589695  68.9973116  55.9070492  43.5422516  94.3387318  28.2329321
  42.6895666  94.1850567  27.8260636  43.3387756  94.5430660  29.1456628
  84.5003414  75.3025341  60.5969238  83.8411617  75.5056620  59.9332619
  84.7420979  76.1534214  60.9626770  80.6525993  83.6302948  40.4236937
  81.0632229  84.0102196  41.2004042  81.2909889  82.9934692  40.1025295
  63.8347769  98.9776993  59.9992275  64.1479445  99.7537327  59.5345449
  63.0130911  98.7525940  59.5628929  58.0613041  90.9642124  19.6987879
  57.1523905  90.8958817  19.9910998  58.4201097  91.6957283  20.2011514
  56.3220739  85.6452465   4.5354849  56.5420246  85.4298210   3.6291492
  55.3788424  85.4938030   4.5955321  64.9972200  96.0179996  30.4885626
  65.8868647  95.6648254  30.4832125  64.4332743  95.2458858  30.5336285
  47.0681168  24.8990891  86.2454517  46.1735035  25.1546070  86.4704298
  47.5594975  25.0050470  87.0600352  79.3607473  66.1528397  42.1650553
  79.3909788  66.2903214  43.1118488  78.4574270  65.8889675  41.9900703
  88.1876564  63.4337044  32.8868198  88.3925629  64.0249252  33.6111856
  88.5997868  63.8383245  32.1234965  77.9256630  92.1815014  24.2227411
  78.5729694  92.6332951  23.6813426  77.3841858  91.7001820  23.5971475
  72.3062706 100.0691700  27.6945162  71.8336105  99.7271633  28.4533691
  72.8194380 100.7991219  28.0410147  63.6374283  77.8005171  33.5044909
  63.9249229  78.6406851  33.8618374  62.8036022  77.6271248  33.9414167
  14.8565899  36.4953470  19.2797542  14.3581806  35.8960772  18.7241495
  14.6189820  37.3674798  18.9648628  18.4008370   5.1503385  55.2816963
  18.4923039   5.1416028  56.2344742  17.5277481   5.5114473  55.1282072
  40.3415871  91.7157650   7.0314234  40.0156498  90.8438969   6.8081707
  41.2943172  91.6331196   6.9901556  97.5371933  77.5763273  38.1776857
  97.6495552  76.8497658  38.7906432  97.9863262  77.2902775  37.3822689
  80.7478428 102.2626781  42.3358488  79.9228668 102.0621300  42.7779245
  81.4237976 101.9457722  42.9349232  78.2268858  90.2914238  62.3645496
  78.7679577  91.0804272  62.3953199  78.6706400  89.7210217  61.7368937
  63.1914282  78.8733768  30.6901288  63.8482332  78.1792736  30.7454586
  63.7012386  79.6809626  30.6258702  62.0580816  99.0820599  31.4658904
  62.8098059  99.5783520  31.1420894  61.3437271  99.7186852  31.4912438
  34.3875624  46.6686937  85.4116984  33.8531948  46.0734102  84.8860423
  34.7403694  46.1191580  86.1115293  73.4958363  53.8988066  58.9366293
  72.8351641  54.5674896  58.7560558  73.0280113  53.2280827  59.4341230
  67.6889229  89.8524857  52.5110102  66.7779350  89.7488976  52.7859783
  67.7160454  90.7121754  52.0909739  65.5371094  71.1564302   2.7121547
  66.4538288  71.4234877   2.6447645  65.3304386  71.2422466   3.6428282
  98.1220627  83.5614395  37.2195029  98.3663845  82.6884174  37.5266767
  97.5247860  83.8928413  37.8900838  78.0571222  62.4104691  21.0734963
  78.5388088  63.1247234  21.4906931  77.1671629  62.7482986  20.9731174
  76.8999052 100.2618027  17.2039878  77.8205538 100.0463295  17.3530138
  76.4579058  99.9946594  18.0099082  73.4889221  87.3078728   5.1677340
  73.4881449  86.4784813   4.6898845  74.0655661  87.8772640   4.6583074
  94.4468282  -0.1275050  22.1029115  95.2991842   0.0512136  21.7056942
  94.2488788   0.6600488  22.6096725  83.1946586   5.1073278  39.2514038
  83.8219236   4.4387830  39.5267534  82.6876711   5.2994646  40.0402498
  17.6114037  98.5686787  69.5163147  17.5619271  98.2630690  70.4220669
  18.3105233  99.2224606  69.5219796  91.3105488  51.7866230  38.3151340
  90.3632450  51.8791199  38.4166050  91.6710854  52.5908470  38.6885834
  83.5423183  87.8704834  53.1122398  84.0896320  88.5019684  53.5790539
  83.3722782  88.2814026  52.2646189  15.7545792  89.5862007  51.9252729
  15.4567276  90.4816818  52.0853806  15.6353413  89.1405582  52.7639723
  28.9007721   4.3860639  21.9571519  29.7515831   4.1283525  21.6022730
  28.4006271   3.5708536  21.9960880  68.5848713  97.5235176  22.2182202
  68.1783438  97.2876263  23.0520821  69.0993357  96.7534447  21.9762516
  94.2412853  68.7457657   4.2534375  94.9894238  68.2311964   4.5563188
  93.5114574  68.4507322   4.7979912  10.4983769   3.4964097  59.0574312
  10.7919464   4.1333021  59.7089005   9.6575508   3.8366998  58.7517357
  95.4432392  89.2460728  63.5832548  96.0910034  89.8196220  63.9927530
  95.9567261  88.5216808  63.2257366 104.5576477  65.3987503  38.8932896
 104.7205257  65.4887199  39.8322296 103.6962605  65.7945299  38.7606192
  47.5890598  10.9234632  17.0407224  46.7129479  11.3087858  17.0543253
  47.5336609  10.2255548  16.3879716  87.2813320  88.3416367  30.3522611
  88.0120468  87.9214573  29.8986959  87.3788738  88.0713272  31.2653041
  15.7799183  93.2453346  59.0153408  16.2788044  92.9494381  59.7767735
  16.3911759  93.1661987  58.2829952  20.9224663   0.9958185  60.6710768
  21.7462025   0.5311216  60.5236435  20.4047737   0.3997720  61.2123299
  78.7620662   1.0024942  57.9091644  78.7003874   0.9925188  56.9540024
  78.2597469   1.7732061  58.1735754  91.5821050  28.8702882  26.0293078
  92.3750328  28.3892930  25.7923675  91.7694305  29.7764314  25.7842612
  19.5486962  75.6867170  35.6683588  20.0486695  76.4920044  35.8016992
  18.7422119  75.9736586  35.2400112   1.8480812  80.7482243  14.0261960
   2.3251568  80.3035069  13.3255851   1.0497414  81.0686398  13.6064148
  92.8863621  66.9919157  15.1314890  92.1976757  66.3276243  15.1057374
  92.9212666  67.2653103  16.0481501  40.9557400  19.7918523   5.0594801
  40.9136448  20.6678880   4.6760625  41.8494568  19.4967569   4.8850608
  96.6461468  86.4115524  27.0976591  97.2103786  85.6411362  27.1634126
  95.9406948  86.1422729  26.5093875  95.9678005  43.0059637  38.5894752
  96.6727947  43.6517347  38.6363482  95.9967970  42.6847089  37.6882625
  25.2807579   8.4492792  67.5426435  25.8183346   9.1696847  67.2136068
  25.6188641   7.6740278  67.0944166  96.9372534   8.9573873  46.1106968
  96.8791126   9.7654069  46.6205502  96.6052459   9.1958917  45.2451801
  16.4700279   3.1466020  14.2644453  15.7522450   2.7478231  13.7725008
  17.0661697   3.4773649  13.5925519  80.1996040  47.9301500  22.6013398
  79.3322325  47.5338936  22.5184393  80.5255222  47.9832649  21.7029023
 107.9006958  71.2672997  26.7825723 108.4231567  70.8703184  26.0856652
 107.5457001  72.0652723  26.3908529  44.2009735  93.3970642  43.6585522
  43.7531328  92.7523804  44.2063236  44.8307133  93.8145542  44.2462254
  99.6698761  88.2907867  62.6300240 100.2677250  87.8657818  63.2449865
  98.8805962  87.7496338  62.6505423  20.7784424   2.9209913  75.2444696
  20.2199135   2.6736368  75.9814167  20.7001076   3.8736261  75.1937532
  92.5356770  88.1360149  25.6172824  92.4673557  87.3467827  25.0799942
  93.4750175  88.2434750  25.7666969   5.5031525  97.7748108  26.6137600
   4.7101151  97.4320412  26.2016559   5.3287255  97.7177620  27.5532007
  92.0320797  94.4861984  34.8983073  91.8210411  93.8422203  35.5743122
  91.2012672  94.9265862  34.7193265  65.2334080  10.1850332  27.4586916
  66.0572968  10.6608880  27.5634980  65.4980526   9.2758478  27.3187637
  92.8708172  98.6799717  59.2600393  93.6426544  99.0615940  58.8418627
  93.2111454  98.2515144  60.0454235  82.0095158  84.5422935  55.6610346
  81.8627453  83.6917210  55.2472639  82.7579308  84.4006824  56.2407351
  61.8896627  89.3839455  46.0024166  62.2893715  88.5303211  45.8357286
  62.1743011  89.6130371  46.8871403  22.7534519  85.0085163  13.8773298
  23.4454285  85.4302216  13.3678496  21.9870697  85.5674839  13.7490821
   2.8231846  74.1215563  56.3160801   3.6057984  74.5202827  55.9356070
   2.1456467  74.2414856  55.6506538   1.3258228   3.8614286  43.2687569
   1.6600094   3.1276620  43.7846375   1.6851673   4.6385015  43.6968517
  99.7570229  66.8101549  35.7569480  99.2231846  66.0572767  35.5031252
 100.3599834  66.9342470  35.0239611  57.2647333 101.1612225  11.0850668
  57.5407839 102.0771313  11.0513711  56.7544937 101.0943890  11.8921721
  76.5987062  98.1205082  27.1706295  76.2075949  98.9652252  27.3936224
  76.5576696  97.6156902  27.9828501  16.5553318  59.1009426  20.2618766
  16.1107384  59.4705153  21.0247540  15.8480870  58.8827467  19.6548879
  65.2767372  62.0062637  13.7766802  64.6639490  62.7296829  13.9085329
  66.1270761  62.3628092  14.0336359  97.0149494  57.0228407  88.5186887
  96.9166447  57.6764319  89.2110624  97.8589512  57.2261259  88.1154928
  90.4018593  67.0459461  21.9795942  90.3650188  66.4001322  22.6851439
  91.3371372  67.1798086  21.8260264  99.4759369  89.9691486  17.0653188
 100.4125881  90.0528908  16.8867171  99.0670872  90.6411743  16.5199244
   1.6620480  89.6295261  33.0848241   2.5714718  89.4974327  33.3526659
   1.7235886  90.0368881  32.2208214  63.4874535  75.5944920  45.6282902
  63.2764959  76.3404608  45.0668097  64.1725397  75.9202719  46.2120295
  16.7873322  80.6862640  47.4923944  16.1257206  81.1652184  47.9914999
  17.3802315  80.3345776  48.1564808  82.8708458  97.4106979  29.4481492
  83.4480381  96.7840290  29.8844624  83.3907509  98.2119846  29.3858051
  36.5250517  21.4513228  83.1649260  36.3852478  22.2055838  83.7374483
  35.6464220  21.1083910  83.0017184 105.0844479  96.3246441  32.3713899
 105.1399994  95.9733009  33.2600403 105.1257992  97.2740364  32.4861789
  20.3880081   1.2921537  47.2217035  20.7716904   0.4710401  47.5295687
  20.0464211   1.0855592  46.3517189  19.7388039   1.9899572  58.4004259
  20.2082596   1.9406427  59.2331362  19.3488751   2.8641237  58.3967161
  12.9949604  74.0650177  53.7178040  13.8585984  73.8446617  53.3687925
  12.4798523  73.2662535  53.6043501  19.9424229  37.4312986  35.1673341
  19.2260799  38.0342592  35.3661108  19.7685204  36.6645063  35.7132483
  20.9625756  51.2501764  44.8836374  20.9036290  51.2835598  43.9288378
  20.0525032  51.2577152  45.1801920 102.2561334   7.4860967  79.8364353
 101.3767408   7.8640188  79.8450994 102.2432350   6.8661607  79.1072273
  70.8573294  88.8802338  67.9318619  71.7965269  88.9201546  67.7514553
  70.4553652  88.7286091  67.0764828  37.5108395   0.8811677  59.3117142
  36.6209755   1.0353864  59.6288776  38.0512486   0.8880247  60.1017427
  92.6048470  85.6964397  29.6408105  92.5443745  85.1042080  28.8912582
  91.9538784  86.3752651  29.4628501  83.1421852  52.5874472  31.1977291
  83.1256104  51.7524529  30.7300329  83.3265877  53.2378912  30.5201244
 104.8518181  80.9256077  27.6688862 105.5853748  80.4334831  28.0375838
 104.1336632  80.7828999  28.2854247  17.7579533 100.8955193  27.8105640
  17.3673760 100.0476170  28.0221009  17.1238934 101.5376186  28.1297922
  80.8012295  70.2167130  39.4905996  81.3945484  70.0798321  40.2291536
  81.3526344  70.1040840  38.7163305 104.4807339  72.0312023  20.0058126
 104.8105621  71.2231684  20.3989053 104.9870491  72.1293211  19.1994345
  71.4179993  79.3610477  40.3386879  71.2159348  80.2156830  40.7194853
  71.3473797  78.7494993  41.0716629  41.2757931   5.5984701  42.2702074
  41.1546860   6.4693273  41.8918419  42.1712647   5.6066335  42.6082993
   9.4643936   2.6386751  22.7709508   8.7471924   3.2722200  22.7490973
  10.0356350   2.8985418  22.0481896  10.0751267  17.7390779  22.6966214
  10.7433567  17.0841611  22.4947071   9.3575344  17.2376169  23.0837083
  90.4316711  68.2909822  44.6935558  90.1072311  68.7403536  43.9131498
  89.8838711  67.5092793  44.7649479  88.5413933  76.9011974  28.9102077
  89.1101742  76.5001440  29.5673800  89.0977383  77.5461245  28.4734178
  22.1755085   6.1178030  44.7755671  22.7790031   6.3060487  45.4943085
  21.4990959   6.7911542  44.8481894 107.2138332   0.9471429  31.5910006
 106.4359449   0.9991754  31.0356498 107.6545786   1.7874731  31.4652109
  77.6548338  99.2477322  47.0808029  77.3456526  98.4215832  47.4524498
  76.9653368  99.8776531  47.2906065  90.8931541  80.5547142  17.5419211
  90.8968067  81.3723469  18.0396104  91.4138222  79.9501324  18.0706966
  84.9737358 102.7506161  36.3264656  85.6559563 103.1849957  36.8384385
  84.4616699 102.2649288  36.9730926  85.0748062  83.1374264  51.4259005
  85.0586033  83.9565659  51.9208431  84.2117119  83.0888176  51.0148764
  85.7149506  50.4612827  54.4916201  84.9368668  50.9792137  54.6979570
  86.0747242  50.2191734  55.3449488  66.7186975  85.2965355   6.4001590
  67.2151947  86.0645294   6.6828287  66.2456846  85.5903625   5.6215990
  67.9772997  86.5610123  23.1487918  68.2366514  87.4184132  23.4861875
  67.0471191  86.4905643  23.3633375  69.9757195  68.6305237  57.8399563
  69.0517569  68.7233496  58.0721521  70.2757883  67.8767967  58.3479834
  84.8288727  85.3138161  28.2840443  85.0697422  84.6738720  28.9538860
  83.8839245  85.2046680  28.1773043  53.9575434  71.6677284   7.7619135
  53.6129141  71.0303164   8.3873481  53.3274078  71.6611385   7.0414138
  75.3287458  78.7240362  17.0359957  75.4272461  79.0387917  16.1374080
  75.1327896  77.7917242  16.9430816   5.6512652   2.8902830  37.8547502
   5.3818045   2.9192556  38.7727833   5.8296738   1.9650186  37.6865840
  95.3688310  15.3732980  37.3537517  96.0724090  15.9787000  37.5876284
  95.6311630  15.0177682  36.5046310  50.0593090  86.8467712  29.3979192
  49.1105366  86.7686176  29.2981863  50.2088690  87.7812386  29.5416045
  70.3391075 100.7694721  41.7585182  70.8407831 100.8538628  40.9476995
  69.9608421 101.6376877  41.8975925  66.8404818  63.8124657  48.1571198
  67.4107742  64.5757914  48.2484055  66.1876631  64.0773439  47.5091171
  78.7883139  96.0238457  36.3722539  79.2145348  96.4820290  35.6479335
  78.7861729  96.6583824  37.0889020   2.2790753  83.7445927  21.6581249
   2.8413998  83.1386280  22.1406531   2.7380787  84.5834351  21.7015243
  98.0608940  81.9374084  51.3833332  98.0920792  81.0469913  51.0334682
  98.7162685  81.9437218  52.0809603  65.7833920  14.4620241  36.0608268
  65.1164494  14.9605764  35.5887461  65.4509220  13.5644544  36.0682821
  93.1187534  67.1983862  27.5523829  93.9587784  66.9160080  27.9140997
  93.1518269  68.1543493  27.5880456  81.4729023  79.1779137   9.4385225
  80.6454372  79.1307878   8.9596671  82.1445656  79.1790485   8.7565380
   1.2292134  63.8152456  39.5968628   1.6422497  64.2701674  38.8629150
   1.4793526  64.3261623  40.3666830 104.3154335  90.7452679  69.0790844
 104.0522003  90.2069092  68.3326864 103.7741375  91.5316868  69.0099096
  47.0521698   1.5952791   4.2722398  46.5127239   2.3660005   4.0955511
  46.5104542   0.8555997   3.9971757   0.7938706  62.6120615  72.8112078
   0.6673561  61.6734886  72.6722813  -0.0162758  62.9036331  73.2293844
 104.2459393  91.7632866  33.9532447 104.3970585  92.7032089  33.8535070
 105.1057625  91.4044094  34.1726446  75.5641152  72.8460810  83.2702534
  74.7229363  73.1636736  82.9419540  76.1877514  73.0580351  82.5757186
  85.0607872  96.4435005  30.7470703  85.7739162  97.0320988  30.9945011
  84.8420811  95.9792995  31.5551043 108.5757803   3.0163110  30.7341099
 108.5780309   2.7300657  29.8207140 109.1753315   3.7622465  30.7528210
  -0.1211967  11.9688238  61.7988873   0.2020226  11.1662401  62.2083187
   0.0716887  11.8572629  60.8679867   6.9967400  69.8738527  12.4736273
   6.6861187  68.9716387  12.3977864   6.2337433  70.3650522  12.7782297
  21.8038807   1.3695920  12.7284551  22.4169979   0.6409944  12.8257644
  21.7055187   1.4750970  11.7821860  80.2912521 102.9147148  21.2964201
  80.8468246 102.7529526  20.5339146  80.9062862 103.0295658  22.0208359
 105.8045483  94.5044518  45.1998281 104.8880482  94.7805119  45.2068472
 106.3006783  95.3189945  45.2811050  76.2068605  54.6651554  23.6016750
  76.8666697  54.2024803  24.1182184  75.9785080  54.0535259  22.9016781
  98.3906937 102.0787144  47.3898935  99.2617130 102.4501801  47.2499895
  97.8812122 102.3716354  46.6343403 107.4180101  12.3697484  31.6329002
 108.2321047  12.0866693  32.0492482 106.8512510  12.6218999  32.3618937
  36.8630743  71.3862562   2.9140815  36.5745139  72.2594213   2.6484701
  37.3373222  71.5295601   3.7330949  76.2177134  94.2315865  28.0154777
  77.0689583  94.0566063  28.4167218  75.7770395  94.8148918  28.6333752
  58.0790379  86.3992032  81.9796972  57.4040558  86.8712982  81.4920990
  58.9013722  86.6628846  81.5668152  58.1631756  90.0610638  35.8298254
  59.0709066  89.7826672  35.9512615  57.6508284  89.4396591  36.3471127
  95.2452374 102.3408890  19.6098018  95.5536366 102.8944206  18.8923538
  94.4197941 102.7410221  19.8832440  93.3242534  23.6696733  30.7778025
  93.0090593  24.5340837  31.0417557  93.7358974  23.3140481  31.5654063
  38.4978892  29.8131773  68.6730497  39.1612698  29.7206041  69.3568532
  38.3157660  30.7523653  68.6416046  79.3940067  94.4277191  18.0180013
  78.5536051  94.8827362  17.9640031  79.8395538  94.8349380  18.7608981
  31.1003137  24.6719956  18.8962018  30.7379150  24.6865726  19.7820282
  31.2742400  23.7466598  18.7237728  56.9210196  19.2551792  59.8404217
  56.0619354  19.5444155  60.1479053  57.0285702  19.6843529  58.9916134
 102.2353163  56.2979495  44.9272871 101.5842905  55.9037339  45.5077982
 103.0648103  55.9010636  45.1931000  33.9487529  22.0901513  54.4999456
  33.4568405  22.9110241  54.4794750  34.5412970  22.1472502  53.7503719
  72.8247309  10.7650304   9.7441030  72.7678442   9.8427945   9.9940592
  72.0261049  10.9267485   9.2418301  73.2745743  10.6370068  16.7504597
  73.9982986  10.7739556  17.3617709  73.0653524  11.5132046  16.4268363
  38.5974741  31.7564821  27.2014999  39.4834566  31.8247819  27.5573111
  38.7213707  31.4240217  26.3124824  76.2285354  74.2409026  25.9502459
  76.6049977  74.8166787  26.6158199  76.9470795  74.0798317  25.3387046
  31.8596959  34.6615481   2.7347118  31.5688205  35.5701566   2.8125054
  31.1932945  34.2425132   2.1901481  15.6410456  50.4370499  17.0580959
  15.0561976  50.9135532  17.6472712  15.5949032  50.9197330  16.2327945
  43.2233063  62.6892980  87.7570185  42.3567638  62.9778393  87.4705233
  43.1848184  62.7280232  88.7126600  26.9622588  38.0353475  18.8551545
  27.7902126  37.6002550  19.0586758  27.0505881  38.9087939  19.2366290
  26.2678123   4.8585325  33.6341977  26.6875863   5.7183099  33.6625886
  25.7813287   4.8022431  34.4566298  38.5875440  38.0995250  18.8955212
  38.0167127  37.5126338  19.3914461  38.8476682  38.7704921  19.5266879
  20.4194045   1.1913390  20.0431943  19.6386325   1.4221884  19.5398700
  20.7915401   2.0327529  20.3073335  98.2031408  54.8805176  86.3776557
  98.0284134  54.5853909  87.2713009  98.8743845  54.2797791  86.0539611
  93.3817927  69.6095785  88.2378129  92.8211561  70.3636607  88.4202419
  92.8175179  69.0015932  87.7601333  73.4737912  55.3680610  78.0599503
  72.6909438  54.8234426  77.9776685  73.4786097  55.6435975  78.9766233
  99.4461861 100.1743435  41.2389851 100.1913633  99.7587260  40.8051634
  99.8265948 100.6147296  41.9989729  44.1897631  43.6696672   5.7317674
  45.1344109  43.5151529   5.7321805  43.8351250  42.9837751   5.1660663
   0.9996296  84.9224268  43.1243372   0.7231833  85.0109993  44.0364552
   0.2135397  84.6298503  42.6631451  47.1522045  50.1307821  30.4966283
  47.7459955  49.5469475  30.9686279  46.9148445  49.6439886  29.7073746
  58.6657619  32.7282405  10.6945193  59.4947195  33.2030082  10.6340146
  58.8311195  32.0385504  11.3373363  53.4257841   1.1314209  44.2558193
  54.2399025   0.6955748  44.5077753  53.4652424   1.9828977  44.6913195
  69.4950390  40.4139280  29.2452669  69.1940594  39.5419335  28.9897895
  69.3318176  40.9587479  28.4753561  66.9421211  71.3500150  81.7238097
  66.3940231  71.7771538  82.3821215  67.8091375  71.3046249  82.1268659
  38.1831169   7.0290202  15.9424233  38.8387728   6.7858392  16.5960371
  37.5915313   6.2774265  15.9054625  23.0070376  16.3765359  15.4316676
  22.4821019  17.1463954  15.2126038  22.4230099  15.6351221  15.2721477
  97.4527422  61.5866598  80.0330834  97.1920458  61.9760057  80.8677571
  98.3739678  61.8269905  79.9340354  45.3590488  12.4786019  21.3804722
  45.8344603  12.6869142  20.5762196  45.0211477  13.3211625  21.6840267
  22.6844454  47.7671814  16.6826940  21.8952012  47.7875471  16.1414802
  23.1079483  48.6101198  16.5204239  10.8740115  22.3187017   2.4992891
  11.5335286  21.7325497   2.8703642  10.2366006  22.4383259   3.2032979
  46.6493679  96.8896108  52.6226330  46.3221432  97.6251923  53.1403923
  47.5318505  96.7337238  52.9590368  34.0780902   7.5720990  19.4764555
  33.3513594   8.0058813  19.9235904  33.8816452   7.6743656  18.5452282
  14.7410727  27.4863386  11.7017639  15.5019319  28.0413055  11.8730438
  14.7416103  26.8514156  12.4180770 105.1232449  36.6105529  66.8325894
 105.9093491  36.0650166  66.8069332 104.4542853  36.0876247  66.3906901
  11.2555052  89.3587338  38.8403988  11.5297152  88.4679448  38.6223674
  12.0435263  89.7724520  39.1926718  75.8297697 101.6754922  66.5728204
  75.7995764 101.5202769  67.5168698  75.5057732 102.5699099  66.4666622
   4.7527195 101.8992956  54.9620008   5.1013542 102.0711256  55.8367348
   3.8028933 101.9524244  55.0680351  80.7604313  30.8649826  37.8522539
  81.1370182  31.6311312  38.2851887  80.5238628  30.2767873  38.5693955
  30.7141447   1.1016165  33.2465839  30.4474998   1.9189313  32.8257179
  30.1281524   0.4403412  32.8783965  84.6615066  85.4121672   0.2542493
  84.3652334  85.4285752  -0.6557973  84.4420841  86.2800156   0.5932532
   9.4166756  63.4268475  46.9141197   9.4004571  63.6970043  47.8322649
   8.6988407  63.9131880  46.5086365  66.8763399  36.7602873   8.7323344
  67.7674198  37.0924187   8.6232567  66.6877890  36.3061714   7.9110801
  17.7257633  24.4688344   7.0877707  16.8676245  24.1167212   7.3240906
  17.6597881  24.6516895   6.1505175  12.7042317  42.4442482  46.8358946
  12.6362586  43.3745718  47.0506144  13.5109651  42.1579123  47.2641754
 103.9339533  86.2805819  19.9289119 104.4512906  85.4994725  20.1250267
 104.5510855  86.8760764  19.5037472  12.7655436  94.7531723   8.6905992
  13.3146549  95.3124218   8.1410998  12.6323200  93.9616351   8.1691086
  41.8840408  49.5572186   3.5107842  42.3715210  48.8803196   3.0413118
  41.6833735  49.1627455   4.3595210  85.0595728  95.4736909  76.8402700
  84.8388926  95.2094468  75.9471254  84.2360941  95.7986745  77.2042792
  57.2293854  46.0318804  21.7176700  57.9683685  46.0455513  22.3259068
  56.4616871  46.1789370  22.2701597  92.6817051  75.7514294  81.9870506
  91.7569128  75.9101351  82.1762656  93.0381361  76.6178378  81.7907648
  90.5662981  99.1448792  86.3141893  90.5934921 100.1013335  86.2881144
  90.2737013  98.9376935  87.2017099  48.8343763  42.5011063  32.6177120
  48.0753469  41.9242907  32.7036953  48.4600973  43.3663988  32.4521375
  71.3639975  17.7187634  21.9798279  72.1772289  18.0251300  21.5785503
  71.6477871  17.2238982  22.7484655  60.0977755  22.5597024   9.4880694
  60.6492043  23.1575632   9.9927676  60.3667164  21.6867232   9.7740948
  41.2125158  30.1143742   2.3208345  41.3495207  31.0606933   2.3649080
  41.5196657  29.7882438   3.1667241   8.3781224  39.0690851  48.8912821
   7.6364833  38.5606980  48.5630322   8.6675638  39.5840836  48.1381369
  75.7707644  29.0434456  29.2148376  75.4361105  29.9400282  29.2343020
  76.5324879  29.0846086  28.6366367  27.9401566  75.2510296  35.4585433
  28.7897135  75.3666889  35.0329804  27.8360201  76.0322820  36.0017109
  26.9480538  56.1087084   6.2323451  27.1522880  57.0431232   6.1949664
  26.5389299  55.9190035   5.3880340  88.1730524  51.5591599  84.2607220
  88.0287281  50.8813426  84.9209993  89.1180674  51.7106676  84.2755981
  53.1153536  27.6198363  61.8566275  53.1613541  28.2092261  61.1038113
  53.7802982  27.9504204  62.4606133  45.5944325 100.1006891  11.1760616
  45.1800324 100.6285076  10.4934824  45.6495644 100.6862422  11.9312572
  54.5612494  74.2634376  81.9842933  53.9816955  74.4723281  82.7168994
  55.4224030  74.5738586  82.2640883  32.7381372  20.7404685  21.2877440
  33.2860589  20.9175324  22.0523763  31.8763638  20.5385876  21.6521907
  44.1044092   6.6862482  22.6220965  43.7412167   7.1676278  21.8787289
  43.7160587   5.8139181  22.5553536  17.3601270   7.9932851   0.4742008
  18.2365441   8.2935077   0.7150133  16.8400276   8.1102479   1.2692150
   0.6029392 102.9747089  18.6216986   1.0176803 102.1544369  18.8888586
   1.0803128 103.6517541  19.1012347  17.2953272  34.2987084   7.8911376
  17.7017391  33.7776160   7.1986604  18.0266225  34.7529697   8.3095706
  92.6710859  62.3550054  75.0008325  93.2725731  61.9157406  75.6020729
  91.8011347  62.0742198  75.2846889 101.7275143  40.8402252  20.1176167
 102.1247292  41.2091923  20.9064865 102.4394608  40.8196831  19.4781244
  52.6786709  32.1073079  13.1607258  52.8657722  31.5254307  13.8973677
  53.4976244  32.5811672  13.0157924  26.7301607  47.5924063  84.3404102
  27.6300907  47.6576519  84.0208817  26.7944789  47.0537853  85.1290703
  41.6705275  36.4079857  20.5441380  40.7746553  36.3698792  20.2091837
  42.1461201  35.7548261  20.0308847  17.2347629  31.4496851  33.1780291
  17.0622444  32.3752689  33.0055094  16.4127684  31.1157322  33.5372376
  25.6244826  18.1585574  20.9373832  25.8785129  17.3282611  20.5345082
  25.3122139  17.9161453  21.8091393 105.1703920 101.7651283  18.4102368
 104.8229756 102.6566128  18.4383333 106.0269108 101.8549175  17.9924536
  49.0990400  66.6188478   6.0181159  48.1882429  66.6897869   6.3038653
  49.1595268  67.2042942   5.2632499  85.4041639  88.8517936  86.8363105
  85.9504858  88.3800491  86.2076433  85.1695172  88.1938752  87.4907696
  49.4346418 102.6138018  26.1980820  49.8762288 103.4211430  25.9345841
  48.5022297 102.8261097  26.1560488  46.5626287  13.1601787  14.3768179
  47.1853113  13.6040783  13.8010979  46.9143867  12.2751796  14.4731212
  60.0450850  29.7636580  19.7852385  60.8748817  29.8914862  20.2449393
  59.9072552  30.5817699  19.3078232  50.0322056  43.9672995  18.0061805
  49.5372581  43.7538815  17.2151613  49.6095181  44.7552013  18.3479130
  28.7360598 101.9268983  32.4910116  28.6620737 101.1156075  31.9884515
  27.9377199 102.4118281  32.2818971  82.3537031  57.0449271  78.6973958
  81.6010920  57.1725001  79.2749171  82.8153340  56.2928130  79.0681450
  44.4947958  41.7950106   3.2553214  45.3852224  42.1461439   3.2639053
  44.1099215  42.1377993   2.4487212  62.9488230  27.3836565  42.4980259
  63.6612272  27.5169587  41.8727732  62.1534681  27.4232221  41.9669199
 105.4638208   0.5788131  42.2149467 105.0032548   0.1595153  42.9417896
 105.0161336   0.2593153  41.4315367  59.7734642  27.8727508  44.4311762
  60.1866531  27.7681994  43.5740995  59.5214081  26.9850302  44.6854448
  22.5320840  30.7949448   9.5826751  23.0102396  31.3426971  10.2052224
  23.0064869  29.9635768   9.5815247  67.8709984  16.5635991  63.7537146
  68.2257652  16.9445932  62.9504585  67.0904255  17.0847893  63.9415884
   6.8115666  87.7213629  80.9504007   6.5257170  88.0895313  80.1143550
   7.6714470  87.3441537  80.7645111  20.0180745   1.4631212  33.7789154
  19.7726357   2.2687942  33.3240724  19.5873046   1.5284944  34.6312046
  20.0561023  28.4707713  24.9634719  19.5229983  28.5288858  24.1705942
  20.0978827  27.5340390  25.1558733  24.8386478   0.6346752  35.3480434
  24.7613645  -0.2866333  35.5959344  25.7077670   0.7043353  34.9530602
  31.4300419  99.3788694   0.4621346  31.0081221 100.0812691   0.9569588
  31.9352509  98.8954454   1.1158113  31.8663311  20.8246636  16.3618672
  31.0406232  20.9949851  15.9086251  31.8320823  19.8933005  16.5800917
  95.7987229 101.3199862  73.2649033  96.3023916 100.7434043  72.6903622
  95.8740250 100.9200677  74.1312902  29.5337224  59.0070152  19.1722667
  28.8091302  58.4220648  19.3937039  29.1269779  59.8688412  19.0825820
 101.8170897  84.5394834  66.3326876 101.5755383  85.0307973  67.1178596
 101.6267983  83.6275729  66.5527766  71.3941431   6.9229305  14.5458925
  71.5396166   5.9863836  14.6798706  72.2258949   7.3312747  14.7860599
  99.6537749  83.6392673  78.0315535 100.3439728  83.0102142  78.2416706
  98.9313141  83.4057244  78.6144249  95.7934776  44.5108374  63.1395666
  95.2855650  44.9795737  63.8017933  96.6676346  44.8975226  63.1901233
  89.5782105  59.0141549  84.4123428  89.8045937  58.6039075  85.2470146
  88.6233870  59.0795406  84.4287844  72.9674196  34.2343283  14.2965245
  73.4407091  33.7261772  13.6377323  72.2519875  33.6614013  14.5724654
  30.1385927   7.9917586   9.2789793  29.7232199   7.3203063   9.8201340
  30.7311177   7.5049555   8.7061185  33.9387107   2.9349098  14.9599087
  33.9414644   1.9826713  15.0572038  34.4573236   3.0966437  14.1718006
  99.3437639  76.5084346  79.0732651  99.1388622  75.6610378  79.4684409
  98.4899727  76.8919095  78.8727264  33.3212876  44.4151402  22.8262019
  33.5697770  44.8013067  23.6660600  33.3795166  43.4706354  22.9702806
  83.3795071  25.3155351  30.8112431  82.8292942  24.6646738  30.3754973
  83.1117153  25.2793908  31.7295074  48.2004524  99.4798472  21.4376497
  47.2762467  99.7012370  21.3233447  48.6211754  99.7857930  20.6341457
  31.3194180  51.3720894  23.9979434  30.5904412  50.7859707  23.7947369
  32.0079756  50.7933474  24.3253255  31.1653376  47.1249676   8.8871509
  30.2709794  47.4390697   9.0201807  31.0625935  46.2038612   8.6479086
  84.1051403  13.2973798  78.9033263  84.3167702  12.4114784  79.1976480
  83.2507912  13.2115372  78.4803061  38.9989734  15.8152449  35.4728007
  39.6034884  15.1882541  35.8698845  39.5662570  16.4668477  35.0606894
  11.9909275  17.0433187  34.5059824  12.0755708  16.8695772  35.4434705
  12.8680062  16.8912721  34.1540670  26.5506363  18.4022212  32.1516204
  25.8372641  18.3086586  32.7829528  26.1629725  18.1511223  31.3132310
   5.4744532  61.4505871  75.6929140   5.7610323  61.4929285  74.7806041
   4.5290568  61.5952977  75.6539528  53.0775404  13.6009371  24.2933011
  52.6787710  14.3116391  23.7911892  53.3897352  14.0200853  25.0952244
  80.5664269  47.9992714  86.6669320  80.4242102  48.8708302  86.2976186
  79.6926609  47.7003666  86.9187777  10.1117684  94.8967432   9.1659468
  11.0639979  94.9936043   9.1767037   9.8039795  95.6168293   8.6155182
  98.8937107  40.3217753  67.7415054  98.7951914  39.3702122  67.7090661
  98.0336968  40.6424900  68.0130737  21.0120893  18.4857357  49.1890907
  21.3788199  17.8934348  48.5326433  21.6406345  19.2058766  49.2397070
  45.4736567  28.0605555  54.9286652  44.7643614  27.7684784  55.5012178
  45.0969934  28.0358863  54.0490389  58.9552593  55.0173569  11.2597859
  58.4895611  55.7379818  10.8354604  58.9924812  54.3310118  10.5936217
  79.8051643  39.0512824  13.3045459  79.3213701  38.2978415  13.6429369
  79.7786665  38.9454746  12.3535812  63.8900375  12.8230810   5.3608829
  64.7279072  12.9990339   4.9328080  63.5256910  13.6899900   5.5396324
 108.6923996  36.3625165  72.3294513 109.2643896  37.0616075  72.0127027
 107.8417412  36.5510019  71.9331126  30.5386972  37.2397017  35.0421953
  30.1860690  38.0502653  35.4094434  31.0525465  37.5230455  34.2859483
  75.8503866   7.7537024   4.4082415  75.2749300   6.9939345   4.3197274
  75.3198099   8.4921539   4.1092288  34.7539711  16.2338936  63.3385086
  34.0100408  15.6540167  63.1755924  34.3607688  17.0392287  63.6747551
  78.7958624  91.6309248  58.6701059  78.1229165  91.5990805  57.9901314
  78.5207816  92.3442208  59.2461014  43.9388180  24.3834162  26.7774343
  43.2243299  23.7514210  26.8569541  44.7226000  23.8458037  26.6639185
  12.8075005  79.2129146  34.1348577  12.7758051  79.4475352  35.0623155
  13.3575464  78.4301268  34.1044855  77.7749109  47.4103308   8.0399722
  78.4148359  46.9587612   8.5902566  77.2012997  47.8606796   8.6599630
  80.6035995  35.8036041   6.7432082  81.3722420  35.9427381   7.2964346
  80.9498024  35.3923726   5.9512097  81.2144470  75.2891922  11.0454488
  81.2361717  74.6553516  10.3285062  82.0190620  75.7969809  10.9406757
  48.6037445  72.1462393   1.4229730  49.1443825  72.6180649   2.0564733
  47.7232552  72.4998856   1.5491012  30.7826281   6.7927301  24.6722007
  30.3307700   6.7517418  25.5150390  31.4562130   7.4618483  24.7938490
  63.9620209  40.1196384  11.9677603  64.8549509  40.3267097  12.2434986
  63.7479496  40.7940340  11.3230968  65.1489162  43.2290220  13.1527174
  65.9492064  43.6406326  13.4788132  64.5936108  43.1382275  13.9270747
  25.6719280   7.8124401  88.9552641  25.1881481   8.0743000  89.7386012
  25.2474762   7.0029280  88.6710683  38.0537462  24.1230631  24.6245241
  37.7240086  23.9201498  23.7491202  38.3749008  25.0222492  24.5570183
  45.8792353   8.2657897   3.7538651  45.0746155   7.8120321   4.0047154
  45.6501484   8.7331641   2.9505512 100.0402704  54.2354556  63.5833375
 100.4324166  53.9372020  62.7626650  99.3074051  54.7880366  63.3116858
  58.1230402  44.3776274  23.8207459  58.8082886  44.8232889  24.3187928
  57.6548958  43.8551998  24.4720101  58.4843969  16.7647123  39.5171475
  57.6023245  16.9040346  39.8617768  58.6290741  15.8224249  39.6031380
  57.6243162  19.3341434  48.3621264  57.5608921  20.2101779  47.9816389
  57.2528982  18.7560964  47.6956844  45.0559425  45.2602100  15.7207119
  45.3513527  45.7885456  16.4622128  44.7809887  44.4309902  16.1119056
  73.1766701  62.2341776  26.5695667  73.1417799  62.7681065  25.7758832
  72.4153948  61.6576385  26.5040398  53.4425259  39.8794103  10.9373546
  54.2089844  40.4050875  10.7083702  53.5948372  39.6166158  11.8450832
  27.9124808   2.2716554   5.0080824  27.7018929   2.1552566   4.0816185
  27.3792934   3.0175450   5.2830231  18.0659556   8.9107394  16.3799024
  18.4908819   9.5103365  15.7665896  17.2509611   9.3515891  16.6200411
   5.6267811  90.7030474  12.6286399   4.8207213  90.8624100  12.1376157
   6.1568142  91.4860379  12.4795699  47.8945780  53.0816650   5.5849659
  48.8163757  52.8266239   5.5465871  47.6059294  52.8063726   6.4550960
  67.0533577  65.9598943  80.7643299  66.7569224  66.4943298  80.0276236
  66.8344227  66.4775427  81.5391450  33.9234329  25.4892990  85.0411554
  33.8451363  24.6317503  84.6231629  33.7399460  26.1149761  84.3403749
  25.9904314  75.9841525  25.4580641  25.8099486  75.0441228  25.4587984
  26.1767842  76.1929761  26.3734317  74.6485416  71.4117774  88.8138213
  75.0766889  72.0637926  89.3686152  75.0119010  71.5638693  87.9414281
  91.0194969  12.9507911  26.3785911  91.9718933  13.0072260  26.4560318
  90.7082939  12.9000401  27.2823668  84.4460392  20.5622625  35.8254600
  85.2409554  20.1669955  35.4675317  84.7634029  21.2265420  36.4372158
  77.7100531  83.0663999  77.0715790  76.8570486  82.8491148  76.6955464
  78.2725159  83.2252821  76.3135414  54.0426350  46.6126776  32.4507260
  53.7298822  46.1971521  33.2543159  54.0773964  45.9013653  31.8111515
  43.4420967  54.7770023  23.0661798  42.7529001  54.2830276  22.6220798
  43.1190348  55.6779051  23.0817056  63.9331341  40.2650070  18.9673352
  63.5317516  41.0874987  19.2477477  64.8070955  40.5149984  18.6674583
  61.7331696  23.4975672  49.9876213  61.0989904  23.9886379  50.5100203
  62.4845552  24.0852666  49.9084711  72.6716661  38.2847714  31.2234735
  73.2498312  38.8521004  30.7134795  71.9706154  38.8638806  31.5224600
  43.1600094  47.4372005   1.8271710  44.1156006  47.4207544   1.8802018
  42.8862286  46.5881348   2.1741048  69.7999668  35.9143305   5.6077039
  69.8422623  35.5042839   4.7438151  70.5577374  35.5644035   6.0762799
  28.1755543  14.0873897  16.6144502  28.4597564  13.6571503  17.4208963
  28.4195971  13.4771144  15.9185779  29.2221285 102.6877837  38.9389539
  29.9490715 102.8453382  38.3364916  28.9810301 101.7735791  38.7895036
  46.3860607  32.2095394  29.9841595  46.6363287  31.5403509  30.6211734
  46.7569828  33.0209565  30.3309345  32.2783494   7.7377814  42.1868229
  32.4926186   7.0232791  41.5869808  31.6468501   8.2728702  41.7060709
  50.2340294  94.4128840   2.7676693  50.5673481  93.8483207   2.0702460
  50.0750424  95.2540730   2.3394684  40.1912498  15.4559398  13.5821724
  40.2566385  14.6525788  13.0658710  39.3284774  15.4065609  13.9937806
 107.0323791 102.8491932  42.1918631 106.1557283 103.0982771  42.4845648
 107.3639002 102.2797129  42.8861380  28.4627938  34.4636607  41.0336065
  28.7031770  33.8520098  40.3376675  27.5064206  34.4333386  41.0593414
  61.4085007   9.2431527   3.7684855  62.1070671   9.4408703   4.3922967
  61.6484833   8.3920896   3.4019721  59.5100594  35.8888674  26.2420845
  58.6221790  36.1052418  26.5268326  60.0403738  35.9610796  27.0356727
  80.2083969  38.8414669  20.8469963  79.4993687  39.1677999  20.2929091
  80.9042358  39.4920921  20.7535338  40.8115101  18.1088877  16.9705105
  41.5397167  18.0897319  16.3495564  41.0055161  17.4045324  17.5889575
  81.1335198  62.8727289  68.8405769  81.3145939  63.1629463  69.7345679
  80.4634253  62.1963879  68.9394181  79.9464703   0.3860712  24.4317174
  80.7573795   0.5310673  24.9191928  79.7838736   1.2167738  23.9848089
  95.8133045  68.6266740  68.9008276  96.2561337  69.4588276  69.0671246
  96.0663477  68.3950957  68.0071990  44.2099428  68.4497786  11.5151012
  44.4810247  69.0635443  12.1977723  43.6956310  67.7884388  11.9780827
  47.5080729  48.0984640  40.4298878  47.5223351  48.4715462  39.5485020
  47.4241590  48.8558054  41.0092163  35.6758308  52.3910999  24.5991230
  36.4313388  52.6022768  24.0506291  35.4165912  51.5124226  24.3217206
  44.3007421  47.4582720  34.5344520  43.8400555  48.2539845  34.2683029
  43.7248611  46.7447996  34.2595768  39.2709160  43.0652428  -0.1543941
  39.0831065  42.6630640   0.6936693  40.1774502  42.8203917  -0.3400871
  57.4365035  73.7907418  81.9280748  57.7411333  73.3476337  82.7199643
  58.0006472  73.4528907  81.2324970  87.0951334  91.3274773  66.7178957
  87.2267452  90.5720910  66.1449211  87.3049227  91.0032018  67.5937192
  24.9062538   1.4459904   0.7407834  25.3949261   1.5881665   1.5514722
  25.4713249   1.8017818   0.0549704  41.1236477  29.7567558   8.5796845
  41.9131470  30.0098896   9.0580618  40.6550837  29.1772437   9.1803902
 108.4207621  95.3500514  31.3486218 109.0773787  94.7223126  31.0469079
 108.0868568  94.9744522  32.1632767  78.1675577  28.9163899   2.2409292
  77.2985125  29.2308140   1.9916634  78.4821510  28.4451509   1.4694405
  65.6259918  30.7092118  32.8430128  66.4333868  30.1962519  32.8081393
  65.2598333  30.6397533  31.9613457  52.2435808  54.8755980  19.3741095
  51.6998529  55.1837063  20.0991392  52.8899622  54.3023872  19.7862351
  54.6682978  48.4316158  35.3604889  54.3204117  47.6888943  35.8540273
  55.6026697  48.2436991  35.2717853  27.0113492  29.0085578   6.9226468
  26.6750169  29.7439766   7.4347728  27.9617405  29.1216350   6.9367576
  12.4482396  52.0010203  83.9210515  11.8774559  52.7622380  83.8162230
  13.2270291  52.3441394  84.3592219  96.5415112  57.3190548  59.5354907
  96.4067141  58.2337364  59.2876618  95.9008566  56.8332615  59.0160649
  64.5794669  63.1643530  86.4325403  65.1161948  62.9255851  87.1882822
  64.2553989  62.3291358  86.0954575  65.9366862  81.8923744  80.5891816
  66.0162655  81.8129881  79.6386050  66.1026589  81.0088953  80.9180401
  70.8873272  92.0570564   8.1454033  71.2451077  91.7260075   7.3216140
  70.7192278  92.9843998   7.9780298  39.0364885  56.4223671  22.1145964
  38.2442904  56.6975880  21.6531777  38.8745832  56.6558027  23.0286670
  70.3842989  80.0174912  68.0099528  69.7809879  79.7259363  67.3264019
  69.8165766  80.2789339  68.7349169  79.0196863  46.3805958  79.2734526
  79.0634552  47.3362117  79.3068265  78.5440079  46.1907163  78.4648065
  62.3169461  92.8748044  70.4890470  62.5601832  93.8000830  70.4585414
  61.4213267  92.8736075  70.8268266  48.0645609  46.7581367  29.4258428
  48.7248039  46.7448568  30.1187563  47.2302437  46.6798401  29.8884583
  70.0669384  38.8803887  13.7529862  69.9879503  38.8743591  14.7069025
  69.3413973  38.3349633  13.4491253  21.6122986  76.0495173   1.4500220
  22.2237326  76.7196976   1.1446767  21.5280892  76.2123024   2.3895122
  77.7775971  68.0384227  81.3366328  78.0199925  67.8388365  82.2408675
  78.5402504  68.4930464  80.9789924   8.2677414  54.7788628  84.3641760
   7.5930645  54.8760750  83.6921738   7.8975537  55.2029397  85.1383518
  67.0610714  13.2054710   0.8692729  66.4574051  12.5140822   1.1409391
  66.7047024  13.5220647   0.0392125  13.0740094   7.8777885  21.5703225
  12.1509612   7.6269186  21.6060662  13.0723631   8.7378460  21.1501670
 104.9246470  68.6314889  86.3183232 104.1680781  68.2133552  85.9072228
 105.2005640  69.2985555  85.6897347  59.3883801  25.2847576  23.2964039
  60.2608871  25.6696177  23.2136607  58.8949585  25.6497574  22.5618672
  98.7333933  99.1332635  61.1384146  99.6544949  99.2680129  60.9156029
  98.6580435  98.1904706  61.2857048  30.2448320  33.2722616  25.7152700
  30.1791835  32.8690457  26.5809131  29.4550228  33.8077641  25.6399632
  54.1513062  32.4748564  39.2785597  54.1381598  31.9782996  38.4603357
  53.2386208  32.4856544  39.5668626  39.8916721  43.8598299  19.1512966
  39.4606090  44.6620893  18.8566887  40.2540588  43.4756184  18.3529913
  42.4762440   2.8681716  13.5763037  42.0678854   2.0754471  13.9242399
  43.3929777   2.8025204  13.8437486  59.2757368  33.5991168  24.3142819
  59.4211531  34.1207385  23.5249805  59.6084785  34.1449261  25.0267482
 101.9628493  77.1131166  78.3491199 101.7885796  77.6000794  77.5436823
 101.1247126  76.7065748  78.5693138  25.1245093  29.0057492  22.1141791
  25.3545856  29.5931697  22.8340650  24.8828769  28.1847358  22.5428796
  28.3434963  41.8844223  11.9196248  28.9414310  42.6270199  12.0047820
  27.5716090  42.2470522  11.4849794  35.2224255  15.6668115   8.8672686
  34.4742894  16.1978555   9.1402483  34.9455118  14.7641385   9.0245318
  57.1624374  28.1021595  47.7704763  56.3034201  28.0513120  48.1896877
  57.7596140  27.6947474  48.3978748  40.4988289  43.3236599  36.6292262
  39.6708655  42.8560781  36.5193391  40.3511477  43.8990927  37.3797584
  43.0517435  14.7988021  24.6626210  42.9201984  13.9265323  25.0342035
  43.1753922  14.6440518  23.7261391  32.8149178  87.8880247  82.6731108
  31.9812539  87.7746018  83.1295835  33.0056813  88.8227399  82.7515195
  81.4477158  17.4076831  19.9251032  82.1214390  18.0597281  20.1178908
  81.7027283  17.0431888  19.0775490  78.9496771  72.5130375  87.4753861
  79.8047129  72.2083958  87.7792578  78.4987036  72.7940234  88.2715666
 107.1123902  85.2926906  79.1764908 107.5822989  85.6211384  79.9430029
 106.6948286  86.0679468  78.8011842  10.4762101  28.2708168  46.4692974
   9.9710667  27.5522733  46.8497658   9.8708355  28.6925626  45.8594751
  11.8838074  78.6712082  87.0870312  12.5639679  78.8480862  87.7368976
  11.4474728  77.8811868  87.4059509  41.3643837  22.3548889  22.8332543
  42.3125887  22.3151779  22.9579949  41.0004950  22.0487475  23.6639714
  24.4106269  49.4155598  26.3250637  25.1242542  48.8283777  26.5744281
  24.0092206  48.9951801  25.5645466  65.7911158  55.7899618  13.0678558
  65.4263306  54.9488544  13.3430004  65.1967621  56.4418364  13.4393799
  23.0787730  45.8645487   7.5233746  23.8568425  45.7729959   8.0733371
  23.4131861  45.8276606   6.6272503  25.9807134  52.1089697  33.1669903
  25.6526756  52.2317648  34.0578008  26.9272518  52.2304440  33.2414436
  39.4713545  19.4430411  36.3157415  39.6606946  20.2235603  35.7949996
  39.6348071  18.7120533  35.7197785  34.1208816  16.0230243  29.0770268
  34.0897083  16.5857852  29.8506927  33.6247945  16.5014064  28.4127378
  23.0829906   4.1537347  25.4959893  23.3525181   5.0655276  25.3854465
  23.6390042   3.6644256  24.8896432  45.4837561  20.6284213   8.5474342
  45.6493139  21.5682888   8.6214292  45.0890589  20.3880239   9.3856794
  95.9767929  67.5184353  77.0053439  95.8447424  67.1348401  76.1383669
  96.7243925  67.0421954  77.3666231  49.0232372   3.0123711  17.0584905
  49.7774792   2.4946406  17.3401093  48.3228827   2.7628434  17.6613784
  59.0519944  80.2340540  85.4520805  58.7828294  80.9531673  86.0236196
  59.5126215  80.6615146  84.7300475  50.9829283  53.2043314   2.7406359
  50.6266785  52.7841806   3.5234448  50.6929684  54.1143370   2.8042254
 109.1610541  19.6216500  31.1347914 108.7092198  20.3374934  30.6879735
 109.1401716  18.8976157  30.5090356  87.9913044  63.6493301  49.9822998
  88.1434250  63.2546234  49.1236401  88.0864620  64.5901251  49.8336935
  25.6997371  19.1134465  16.1134398  26.5688586  18.8842463  15.7843137
  25.5914402  20.0358343  15.8816981  51.4284754   5.6352270  27.1028614
  51.2701130   6.2546295  27.8152490  51.5669012   6.1863786  26.3326025
  20.5436754  54.8711252  46.0967159  20.3600550  55.2874374  45.2545738
  20.3338599  55.5420542  46.7463779 100.8689610  78.9062890  62.4911420
 101.3117138  78.0754551  62.6641219 100.1612488  78.9390977  63.1347983
  76.8192387  24.3793011  55.7757807  75.9048033  24.0992260  55.7358313
  77.0653439  24.2634416  56.6935158  23.0002499  33.1110787  39.1592169
  23.2320642  32.5468206  38.4215784  22.1835613  33.5322714  38.8911724
  52.2169876  62.5024271   3.8906857  52.2124434  61.5862703   4.1679311
  51.8069029  62.9740953   4.6156639  28.6143017  58.8865185   9.8414451
  28.4756780  57.9704332   9.6010256  27.9812360  59.0490484  10.5407619
  30.6979442  57.5766850   5.0714034  30.3551126  56.6836929   5.1069546
  30.7041860  57.7939081   4.1391981  21.6162087  89.2656659  25.3501987
  20.9643818  88.9499723  24.7243452  22.3896862  88.7272929  25.1825047
  76.4334106  27.3508763  34.6598172  76.2518740  26.4685941  34.3360019
  75.8622742  27.4486089  35.4217124  68.5180807  62.1578693   7.0448101
  68.7146235  62.8464222   6.4095920  68.7040138  62.5562477   7.8950787
  19.2251923  96.1447295  79.0323000  18.3391716  95.7864483  78.9791601
  19.5277169  95.9065112  79.9086361  77.4126863  11.5355444  19.8277605
  77.0289135  12.4120188  19.8005819  76.6625404  10.9484196  19.9215555
  21.4985561  28.3474755  44.8961735  22.2464776  27.9475784  45.3399372
  21.8310833  28.5809255  44.0294790   0.6264831  97.7398478   4.9106964
   0.4206372  97.3544573   5.7623613   1.0644413  98.5646870   5.1206100
  58.6347532  33.2179213  28.1525540  58.5085154  32.5917506  27.4396658
  59.4242620  32.9145908  28.6007714  96.7556111  73.8859995  88.2910104
  95.9702507  74.0958532  88.7963844  97.1254221  73.1200560  88.7301049
  55.9086943  31.2981606  43.5221243  56.3180256  32.0354271  43.9750290
  56.3052177  31.3022327  42.6509285  46.9275808  14.6392870   0.2967375
  46.5425634  13.9381003   0.8224097  46.1781931  15.0673425  -0.1172878
  65.1998806  43.9395094  30.3933334  65.1957130  43.2555437  29.7237039
  65.6170559  43.5300589  31.1513209  39.3467641  52.6799583   2.7408504
  40.2879429  52.5792217   2.8832015  38.9628720  52.6034641   3.6143535
  38.8336802  20.1212668  27.3053956  38.7611556  19.9170649  28.2377434
  38.7283993  19.2771876  26.8664432  89.2384078  98.7506049  17.4878407
  90.0814524  98.2988386  17.5254524  89.4170620  99.6210884  17.8436124
  91.3219357  49.0677691  10.1137781  92.1415329  48.8211012  10.5423188
  91.5291119  49.8786831   9.6493179  51.1647654  23.8220358  62.3801470
  51.2746811  22.8713679  62.3606014  52.0576715  24.1666889  62.3674774
  42.3813391  26.8970990  38.5256648  41.8200397  26.2185407  38.1505203
  43.0667448  27.0300150  37.8708482  35.3348780  60.1354313  11.8575072
  35.7731509  60.9174728  12.1930122  36.0352516  59.4896126  11.7646444
  46.3143969  48.1506205  36.1670828  46.9085979  48.4355688  35.4728484
  45.5144167  47.8951359  35.7077432  38.4455013  30.6229782   7.3152810
  37.7719569  29.9743605   7.5198901  39.1805172  30.3924060   7.8834510
  53.1561899  25.4216552  21.1605406  53.4888029  25.3207254  20.2686787
  52.2923183  25.0098109  21.1420321 108.0523745  73.4721168  56.2313382
 108.8200966  72.9261645  56.4009468 108.3308235  74.3569597  56.4674513
  66.9031572  28.3790326  19.8503518  67.7652884  28.0365086  19.6144724
  66.9915485  28.6394525  20.7671952  32.9951502   5.5019972  84.7220458
  33.6370016   4.9053213  85.1070576  32.5548483   5.8978817  85.4741369
  54.3131427  91.5955027  62.3174922  54.2545596  90.9784731  63.0469267
  55.1066450  92.1007832  62.4943416  39.8499751  21.9884062  20.4692674
  40.2652168  21.2670302  19.9965918  40.4638195  22.1984076  21.1730599
  40.7989979  40.1158953  31.6269326  41.2386084  40.3789568  30.8183718
  40.0617266  39.5796728  31.3351631  68.3808327  37.9545689  28.4339857
  68.5003567  38.0062914  27.4856877  69.1585302  37.4936819  28.7486291
  76.3087559  36.2986445  12.1856272  76.9332361  35.6051373  11.9727719
  76.7270947  37.1014118  11.8745232  78.4053183  59.8211098  26.2457514
  77.6530695  59.9171543  26.8298149  78.0405855  59.4428635  25.4456663
 107.8968826  89.4107827  79.7882067 107.5056521  88.5395249  79.7243266
 108.6723534  89.2856010  80.3352021  31.3416219  48.9956617   5.0400931
  31.9257784  49.0045071   4.2818609  31.8641973  49.3698359   5.7494187
  41.6986179  18.8337052   1.7259051  41.6885376  19.7509623   1.4524645
  42.3982859  18.7856567   2.3773575  61.2110758   4.7599944  22.4533391
  62.1288967   4.4980833  22.3809886  61.2161207   5.4782391  23.0860567
  59.8056221  50.6493425  10.7933342  59.8115826  51.2130070  10.0197232
  58.8924456  50.6460667  11.0802650 102.4207083  75.5946644  66.6915314
 101.4712301  75.6201991  66.8101446 102.6519695  74.6731862  66.8082754
  31.9160485  28.7075996  21.0221362  31.3825035  29.4537449  20.7485819
  31.8695259  28.7175727  21.9781518  84.3614737  53.0069447  69.4368069
  83.5668341  52.4961681  69.2822687  84.9644152  52.3915611  69.8539381
  33.1691909  48.6685419  10.3622305  32.5325489  48.0828667   9.9524689
  33.9151692  48.6687279   9.7624403 103.0646053  53.4302417  78.6345892
 103.6420695  52.8279128  78.1655877 103.6061493  53.7785784  79.3428426
  34.1003251  23.1841469   6.7877042  33.5653687  22.4698043   6.4416319
  34.1972852  22.9816818   7.7182084  12.0742786   4.7193581  54.7901630
  12.2246277   4.6191031  55.7301474  12.6661050   5.4240531  54.5267630
  73.6570930  19.4067788   5.5399227  74.3167162  19.4208467   4.8464280
  73.4380627  20.3278613   5.6808621  46.0049057  33.1181502   4.3673903
  45.2955341  33.6996889   4.0938291  46.6099215  33.6862636   4.8442945
  63.5064936  78.7542486  24.2860317  63.3139133  78.4795332  23.3895516
  64.3339729  79.2305756  24.2180443  43.7129116  45.1725245  33.1881380
  43.1670427  44.7397089  33.8445878  44.5475626  44.7053623  33.2249284
  13.8132406   7.4426100  63.7632792  14.5877529   7.3535368  63.2079213
  13.8120199   8.3628151  64.0268056  63.4082937 102.7272701  20.4309058
  63.2318592 102.1879387  19.6600473  63.3694792 103.6273384  20.1074696
  85.8233929  48.6221886  15.1970577  86.5247917  48.9398098  14.6283937
  85.8072853  47.6761866  15.0519729 100.3453842  67.3004135  81.2664257
  99.4211260  67.4555405  81.4611446 100.7188669  68.1758197  81.1644189
  49.8352337  29.8099542  13.8043094  50.3446388  30.0655985  14.5733261
  49.0831947  30.4021168  13.8074911  36.5951681  47.5897741  22.5496531
  37.0890141  47.1618462  23.2490969  35.9196234  46.9551706  22.3105884
  53.0639172   8.6315876  22.6256776  53.0364323   9.5820379  22.7357721
  53.9430714   8.4545618  22.2910357  33.5354782  15.5627319  76.8812578
  32.7912451  16.1541578  76.9933419  33.1389691  14.7040484  76.7339997
   5.9314778 102.0713957  81.1752074   6.5615036 102.7902993  81.1254518
   5.8171465 101.7898615  80.2675168  72.4166965  19.6465039  33.7851453
  72.4178696  20.0541377  34.6512079  71.7601442  20.1369095  33.2904959
  41.0117579  28.1205297  26.4600849  41.9037580  27.7845931  26.5479231
  40.8158016  28.5059667  27.3140597  56.5270710  31.1035752   3.5823488
  57.3159838  30.9677935   4.1071403  55.8054495  30.9030843   4.1784206
  61.5409565  49.2052269   9.0128040  62.1369696  49.2010403   9.7617924
  61.2356234  48.3005953   8.9446223   7.2465184  74.9147066  82.0472418
   7.2650387  75.4783329  82.8206830   6.6667464  75.3674611  81.4347749
  51.4304399  13.4975171  19.9501228  52.2489882  13.5282505  20.4453707
  51.1711168  12.5763977  19.9729729  20.0918556  98.0722447  58.1636906
  20.5697609  97.2431820  58.1859112  19.1772963  97.8252625  58.3008480
  11.4707339  58.0182600  14.2962599  11.7476416  57.6783323  13.4453773
  10.8788574  58.7401676  14.0846789  42.2838974  68.6327076   1.3932572
  42.4366140  67.7444792   1.7156902  42.1113873  69.1473579   2.1816760
  32.0621657  36.7309570  14.1574895  31.7097664  36.9247556  15.0261033
  31.2900853  36.5566993  13.6191952  55.2023745  33.2569313  12.7320910
  55.5506134  32.6955581  12.0393991  55.8117676  33.1433654  13.4614587
  27.2249770  15.9960818  11.4633572  26.4681220  15.5656409  11.8610013
  27.0401287  15.9861517  10.5242276   7.3445584   5.3137419  85.0728654
   6.9190527   5.4614279  85.9174751   6.6624905   4.9239895  84.5259591
  89.6327130  86.6277608  64.7187178  90.3678623  87.0229324  65.1873653
  89.1661707  86.1243161  65.3858845  57.0757341  47.2729063  35.6174374
  56.7698383  46.3659525  35.6272125  58.0302429  47.2035551  35.5992150
  50.6738853  37.9425001   0.0332069  50.2640533  38.5594010   0.6395938
  51.5852213  37.8927374   0.3216901  85.2386570  38.9740849   9.9577153
  85.5966949  39.7326040  10.4188979  85.8856106  38.7785959   9.2798692
  11.2916780  26.6029072  21.9430590  11.2194908  26.6604567  22.8957963
  11.3337088  27.5133705  21.6506147  74.0368176  43.4958363  16.2006474
  73.1650162  43.5210419  15.8062375  73.8809109  43.6318016  17.1352267
  68.7616396  33.1313801   9.7240877  68.7234449  32.9992151   8.7768251
  69.6020699  32.7546334   9.9847925   7.8132203  70.9094735  79.0389185
   8.4557488  70.5285092  78.4403841   7.1940949  70.1995882  79.2091547
  52.6040745  43.2175779  17.8808630  52.3920774  42.9638958  16.9825685
  51.7862272  43.5730600  18.2287014  47.7154398  23.7420583  26.7351246
  47.8018761  23.9490986  25.8045912  47.0451164  23.0595207  26.7673707
  88.4276406  76.7364057  86.4977430  87.8833405  76.3626011  85.8047487
  89.1981760  76.1693820  86.5292229  48.7627077  24.8154211  29.1830587
  48.5153437  25.7374763  29.2527533  48.6783123  24.6145916  28.2509780
 102.1441141  65.2926966  87.3944290 102.0041434  64.3459841  87.3750487
 101.2830464  65.6660255  87.2062259  88.5245609  20.0535345  46.1991787
  88.5245323  20.1857996  47.1471977  87.9101562  20.7075834  45.8660746
  70.5760399  68.4724446  60.7738893  70.4862801  68.7327989  61.6906183
  71.4799753  68.1665870  60.6991761  74.1362953  37.9364204  36.1770797
  73.4289312  38.5808992  36.1997676  74.3453264  37.8428316  35.2476835
  84.3067375  84.4100817  84.8498173  84.7173325  84.3074092  83.9912717
  84.8871962  83.9424952  85.4503708  23.1571509  96.6193055   0.6137123
  22.6390530  97.0753895  -0.0494571  23.5720326  95.8986269   0.1396577
  66.1749029  13.6382210  22.0220733  66.3994026  13.0976307  21.2647128
  66.9279242  14.2184842  22.1338129  93.4152126  35.0641751  23.1899977
  93.9015770  35.4409385  22.4567008  93.8677692  35.3875995  23.9689827
  71.9157028  27.9913116   8.6168301  72.2247744  28.2084990   9.4963390
  71.7537165  27.0483661   8.6459368  47.7042484  38.7514567  17.5758767
  48.6373997  38.8269377  17.7752769  47.4999332  39.5453787  17.0817375
  64.6320724  35.4534626  35.4335189  65.4820251  35.8092809  35.6927466
  64.8456144  34.6957827  34.8889542   1.4903866  68.3118296  31.1387539
   1.0677563  68.3084631  31.9975924   1.9118630  67.4547243  31.0758591
  60.7446766  56.5872955  26.8728566  59.8515654  56.3846922  27.1513176
  60.9945297  55.8506918  26.3149834  90.4531860  53.8702631  16.0269654
  90.0357056  54.6223354  16.4468789  89.7454166  53.4408045  15.5464911
  61.7536736  12.8112364  20.4132867  60.9803343  13.1294250  20.8790445
  62.3673820  12.5678051  21.1063480  60.2382946  17.2973561  21.9836116
  61.1665678  17.1276808  21.8231440  59.8625517  17.4176574  21.1115003
  66.9725410  95.5636462  82.5945901  66.4405981  96.3344344  82.3967181
  66.4224497  95.0349625  83.1726276   2.7708485  61.8233844  74.9621384
   2.2159674  62.0649894  75.7037358   2.2687914  62.0877167  74.1912286
  21.1094118  15.6739208  80.9645741  21.5700079  16.3546631  81.4551585
  20.4064823  16.1393997  80.5113088  84.3392563  66.4274073  30.0485325
  84.1133881  67.3520422  30.1498675  83.5195541  66.0078716  29.7871542
  50.5809116  81.1721897   1.7977414  51.4473009  81.5634823   1.9095162
  50.1120615  81.3946342   2.6020616  30.1546121  31.1704302  22.7408576
  30.1533103  31.0399628  23.6891246  30.7006240  31.9450450  22.6064134
  67.0162201  52.2923946   4.9944317  66.8890476  51.9529295   5.8803338
  67.5775051  53.0590963   5.1100063  73.6433315  63.9025211   2.2043060
  74.1277456  63.8127041   1.3836294  74.1976547  63.4756708   2.8575721
  20.1176071  58.7829161   5.1557100  19.5765984  58.4527445   5.8730137
  19.4981778  59.2156029   4.5680681  60.3195572   3.4231886  25.6182313
  60.3635025   3.4474310  26.5741134  61.2076998   3.1954521  25.3433323
  79.3675852  60.9379864  13.2023227  80.0613117  61.0415363  12.5509715
  79.4604349  61.6998577  13.7743068  78.0103827  22.6457953  19.9710226
  78.0695248  22.7937961  19.0271854  77.5607634  23.4210253  20.3073144
  39.8843193  62.2353554  20.7180285  39.9368620  62.7961826  19.9441171
  40.4064941  61.4656496  20.4919362  51.1647940  34.0905333   6.2100989
  52.1209574  34.1021085   6.1671674  50.9327650  34.9292898   6.6087031
  72.2557735  41.0305357  19.0511775  71.5303040  40.9751463  19.6731555
  72.7599764  40.2305174  19.1994298  78.5511541   5.6832194  47.0840645
  77.6151133   5.8323628  46.9505835  78.6540842   5.6429905  48.0348635
  53.8169098  38.2821703  32.1711421  53.9512157  39.1039681  31.6990829
  53.3019781  37.7426815  31.5711164  59.6156788  67.7236080  26.5855074
  60.0334787  66.9063377  26.3139415  58.7433195  67.4606705  26.8789077
  56.1059952  43.6685705  21.3086081  56.6465902  42.9820204  21.6993046
  56.6603231  44.4487381  21.3257432  69.4243717  48.9095116  15.6761765
  69.3157578  49.8257446  15.4213250  68.7348080  48.7572813  16.3223636
  74.9531937  46.5178537  14.9170601  73.9996481  46.4344358  14.9120212
  75.2272177  46.0849619  15.7256067  73.1138325  65.7618380   7.9019141
  72.6252985  64.9438953   7.8095311  72.4594164  66.4012051   8.1833190
  29.4231796  40.4016352  32.7286029  29.2703009  41.3035631  32.4468493
  29.3435502  39.8837137  31.9275761  60.7839727  32.7431607   3.8071963
  61.0617685  33.0692697   4.6631840  60.8454609  31.7908859   3.8822019
  64.2750788  71.2161779   6.0871929  64.8047733  70.4862165   5.7665539
  63.3884716  71.0198355   5.7845217  83.2442760  43.0393648  16.9265091
  83.8674259  42.6860189  16.2916374  82.4522972  43.2083941  16.4161873
  69.9334526  27.9130721  19.4865024  69.7274256  26.9978356  19.2964280
  70.5385637  27.8735399  20.2271175  42.2338820  52.2424316   3.6769226
  42.7198315  52.4321938   4.4794652  42.1110344  51.2932348   3.6900765
  41.4511849   0.5112526  86.0487388  42.4064518   0.5660889  86.0224606
  41.2681271  -0.4195812  86.1762832  89.1492462  59.6755934  42.3895788
  88.4851742  60.2296209  41.9793510  89.7923660  60.2919912  42.7398348
  57.0470762  36.7282939  31.7753935  56.5614796  36.0545564  32.2513199
  56.4280224  37.0527792  31.1213970  68.9349937  45.1457977  18.5933304
  68.3690834  45.5254173  19.2655420  69.7882605  45.0606775  19.0186810
  42.4040890  32.4397230  19.6669948  42.1300745  31.7851281  19.0246141
  42.4551582  33.2562327  19.1700685  97.7866427 102.4617776  87.5454675
  97.7996937 101.5508660  87.8392331  97.3475901 102.4330195  86.6953868
  70.3275919  19.6806061  27.0501208  70.8865738  19.1387665  27.6070571
  69.5096922  19.7638559  27.5403690  41.5059900  63.0145550   7.2275573
  41.3327408  62.2077322   6.7425311  40.7874441  63.5986757   6.9852251
  64.3010902  27.0038962  50.5166626  63.7837315  27.8088379  50.4913712
  64.1479588  26.6481638  51.3920116  15.0975777   0.5528948  61.0986369
  14.9670912   1.4391443  61.4359228  14.2184473   0.2524874  60.8681624
  96.8895912  56.4496136   9.6204782  96.3918304  56.9444990  10.2712929
  97.6696682  56.1538267  10.0897527  67.0271063  63.5321522  32.0382285
  66.2566519  64.0312147  31.7669916  67.7180910  63.8136148  31.4386034
   4.6411755  70.4920562  62.6901142   5.5063393  70.8359727  62.4677484
   4.7762635  69.5496234  62.7891247  44.6499348 100.8992290  52.5607014
  43.7440252 101.0531044  52.8288126  44.5794392 100.5226421  51.6835213
  49.4799232  64.5864058  26.9756508  49.8511314  63.7048388  26.9399762
  50.2345276  65.1585722  27.1150684  77.8392076  99.7373772  13.2052994
  78.6842203  99.8076057  13.6494374  77.3065853  99.1961288  13.7880480
  69.8146200  60.3231812  41.9097996  69.5055389  61.0293484  41.3423204
  70.7690144  60.3860617  41.8722343  64.2455006  26.4251709  19.4465756
  65.0580311  26.8203330  19.7625995  63.5682154  26.7743301  20.0258923
  37.2208500  36.4129424   9.9072295  36.3085318  36.6940093   9.8371547
  37.1691203  35.4742813  10.0874269  55.2338791  60.0449324  10.2296758
  54.5692110  60.3908491   9.6340346  56.0178709  59.9555588   9.6878242
  34.8888136  11.8813870  78.7812381  34.2051769  12.5149891  78.9989893
  35.3115059  12.2432873  78.0023985  77.4947023  50.3020191  19.6462882
  77.0167637  49.5259857  19.3537462  78.2345772  50.3693008  19.0427220
  54.5789194  18.9854646  35.8226657  54.3056917  19.1663742  36.7220283
  55.5243063  18.8480639  35.8825970  21.4105749  58.3089447   2.3203613
  20.7812810  57.9331160   1.7047542  20.8793712  58.5850286   3.0672416
  50.8015966  28.8184595  20.2585173  51.3229561  28.7680483  19.4573486
  50.0088120  28.3200979  20.0601268   8.2050842  61.4569569  23.7751031
   8.2836056  62.3743296  24.0368223   7.7534986  61.0368681  24.5071030
  92.9239750  58.6035204  17.5686753  93.2719231  59.4854593  17.7003586
  92.4902344  58.6419678  16.7162502  59.5882082  62.4162006  32.0458484
  59.8989677  62.2450495  31.1568213  60.3835058  62.4344778  32.5782037
  50.2574492  49.9337196  22.3321915  50.2628326  50.0339365  21.3802671
  49.3525267  50.1139259  22.5868869  92.4761295  39.1472101  13.2397437
  93.0204773  39.7962499  12.7940261  92.3325253  38.4644151  12.5844574
  68.2554340  56.8918800  16.3537776  68.1424284  57.8420353  16.3279080
  68.5171080  56.7062664  17.2556114 107.0753924  93.9750441  88.6863553
 107.0791069  93.2212790  89.2763151 106.5102450  94.6150645  89.1190398
  30.7290674  26.9693586  67.8400342  30.0231529  26.3252422  67.7848928
  30.6158329  27.3758337  68.6992113  37.7993584  28.5838485  34.2152190
  38.1175089  29.4422984  34.4946408  37.3233938  28.7575221  33.4031057
  35.0134015  64.9196196  21.6988373  34.4300866  65.6708527  21.5910435
  35.6649446  65.2118111  22.3362923  78.0704451  60.1964808  43.8215923
  77.8842354  60.4820204  42.9271507  77.2156143  59.9565935  44.1792917
  90.2348423  45.1633406  35.4117846  90.7683563  44.9464035  36.1763310
  90.8041286  45.7094193  34.8696113  45.6309652  40.2789640  14.6890271
  45.3530836  40.2272224  13.7745130  46.4548111  40.7655525  14.6618557
  95.0154320  88.6932882  88.5348395  94.7915093  89.0485796  87.6746898
  94.1768566  88.4200557  88.9068204  43.4715033  57.0161676   0.3291193
  44.1254616  57.6947641   0.4966941  43.9438677  56.3446188  -0.1629383
  68.9544153  35.0673580  11.9890487  69.0790367  34.7526360  11.0936987
  69.7674131  35.5281281  12.1963012  28.4089327  24.9531865  15.1195180
  29.1356421  24.8467350  14.5056832  27.6242018  24.8877215  14.5753276
 106.4060894  96.7185029  56.2711923 106.9944206  96.8746956  55.5324762
 106.7385880  95.9179171  56.6770737  51.2630033  73.5564804   7.7514565
  51.4195728  74.3893814   7.3064953  51.3687611  72.8957081   7.0670390
  28.5278797  41.5595484   0.8367666  28.1001425  40.8216190   0.4023325
  27.8063178  42.1168947   1.1282160  64.4705963  36.5068626  19.0195441
  64.3334246  35.8115482  18.3761513  65.3734827  36.7907524  18.8765800
  53.5836411  58.8961267  21.9991636  53.2788420  59.3338871  22.7939558
  54.4756603  58.6174870  22.2062683  42.4252939  46.0777807   4.6980390
  42.9948473  45.3091192   4.7296593  42.2310448  46.2698460   5.6154317
  66.3810492  59.1869783   2.5707012  65.9463644  58.3450651   2.4348229
  65.6651402  59.8053503   2.7167195  78.4858751  56.9789982  20.1107764
  77.6619053  56.8955612  20.5907178  78.7719870  57.8765583  20.2803349
  41.7911268  31.5701315  85.7632999  41.4813067  30.7253382  85.4368510
  41.1887289  31.7875406  86.4746948  54.2185450  83.2060623  14.4138575
  54.9751472  83.1466961  13.8305378  54.1818047  84.1289139  14.6653068
  70.3830051  34.8342443   2.8243825  70.6997871  34.3352914   2.0714384
  69.6139574  35.3003454   2.4964388  77.1789503  39.6313834   8.4746790
  76.2571669  39.3760705   8.5115540  77.3033142  40.1910543   9.2411852
  68.0593348  61.9517374  24.8437738  68.4703255  62.4713087  25.5346870
  68.7118006  61.2867785  24.6238828  89.9298573  17.3175347  36.4996004
  89.4896317  17.3725247  37.3477840  90.8626556  17.3552275  36.7109966
  63.4059143  46.6106749  19.9519801  63.3862066  47.1313906  19.1490495
  62.5020790  46.6218233  20.2669239  65.3288364  28.0565047  41.1531353
  65.4939747  27.1521091  41.4196491  66.1996222  28.4466314  41.0772181
  52.3759460  59.6395254   4.3722671  52.5731611  58.7975407   3.9619049
  53.0253696  59.7236681   5.0704074  54.3216705  47.9638147  26.3383293
  53.6765480  47.3209000  26.6327810  54.7021675  47.5773668  25.5495858
  87.9853026  90.5913170  84.5862313  88.1661383  90.3653010  83.6738454
  88.6367146  91.2588938  84.8012464  81.0946146  88.2608446  87.6568054
  80.4804817  87.9785927  86.9790097  81.9262139  88.3708509  87.1957499
  83.0324173  43.7313795   4.6943817  82.2750378  43.1469631   4.7270820
  82.8204632  44.3597269   4.0041038  45.4670095  80.8949471  29.0900946
  45.5192804  81.3317299  29.9402213  44.5292664  80.7766438  28.9388585
  43.0838324   8.9929220  71.4926414  43.6256672   8.2125923  71.3754265
  43.6410691   9.6006081  71.9788830  83.1882572  26.4001131  40.4950809
  83.2591820  27.2399855  40.0414133  83.9536190  26.3726664  41.0692739
  34.9307966  41.7944765  38.1809092  34.6463442  40.9525967  38.5366559
  35.8240247  41.9029617  38.5074091  62.3325729  43.5337067  17.9308951
  61.4091349  43.6099052  18.1710815  62.8072882  43.7397051  18.7361538
  58.6375380  48.7582254   3.5882077  58.2723331  47.9590607   3.2084855
  58.7369347  49.3529177   2.8447747  46.4090061  24.4487381  39.0824199
  46.3140345  23.7834907  38.4007597  46.2587738  25.2786493  38.6297488
  81.5791988  11.8309581  55.7630301  82.4541950  11.4434695  55.7845163
  81.4240170  12.0209086  54.8377895  99.3352985  68.1600046  31.4140296
  98.5545826  67.6638746  31.6601396  99.7150040  67.6645994  30.6883407
  71.6220331  26.9460320  22.9838681  71.2296915  27.4356437  23.7067676
  72.2100019  27.5723338  22.5616527  60.6103992  40.0658798   5.8849591
  59.9239111  40.7218170   5.7636863  60.9483004  39.9070501   5.0035805
  87.5992775  44.4566059  26.0968256  88.0298042  45.2920866  25.9155989
  88.1634903  43.8021326  25.6850529  67.0673943  65.7630682   5.6114936
  66.3960266  65.5301094   6.2527668  67.0658779  65.0364208   4.9884266
  68.6514282  86.6620350  27.1539640  68.8455105  85.8903694  27.6860309
  69.4826603  86.8761063  26.7303395  81.5632248  78.9305830  26.7768908
  81.4139366  79.8029137  27.1415567  81.7303371  79.0850401  25.8471346
  79.3241119  87.5335598  45.8471823  78.8189983  88.0514526  45.2203846
  79.8414850  88.1787586  46.3291168  70.5890369  36.8837404  29.7672153
  71.2943029  36.4924192  29.2517543  71.0023451  37.6195431  30.2188826
   3.8778807  12.7089235  85.6236600   3.9324070  13.1446573  86.4741863
   4.1954733  13.3614227  84.9994676  64.0036345  21.0160494  18.8667417
  63.8133097  20.5174780  19.6613693  64.0437746  21.9266081  19.1591513
  46.4595985  27.0691943  29.1605639  45.5793428  26.8421721  29.4602990
  46.5033865  26.7292643  28.2668281  24.0141511  97.6856613   4.9901557
  23.2669234  97.4227810   5.5275339  23.8233113  98.5898018   4.7404683
  96.6957871  81.8016657  75.0838010  97.6009480  82.0344361  74.8770671
  96.1986986  82.0605835  74.3078534  43.8988495  22.2156882  24.2143869
  43.6125612  21.5165997  24.8022175  43.9623833  22.9889679  24.7749543
  44.4763613  34.9338794  28.7105036  43.9147902  35.6604004  28.9807558
  45.1992607  34.9437332  29.3378401  83.6660671  49.7704744   7.4766827
  82.7155685  49.6576929   7.4838972  83.9255524  49.6749735   8.3930773
  56.5521669  11.8798900   0.5645650  56.3361073  11.7637300  -0.3606683
  55.7035637  11.9174552   1.0058019  94.9446583  81.9521713  20.7668567
  95.1854420  81.0723209  20.4767966  95.7227993  82.4823952  20.5948138
  44.0387154  25.9741783  29.7658539  43.5099363  25.7312465  29.0058470
  43.6499596  25.4884028  30.4932618  75.5529833  28.0329967  37.3343706
  75.1532030  28.6685467  37.9280734  76.4282084  28.3814073  37.1645951
  72.7265644  37.9568982  17.3151624  73.6049175  38.3343124  17.2673714
  72.5719261  37.5986528  16.4411032   3.1726409   3.1721041  87.9674579
   2.3064805   3.4019873  88.3038326   3.0310203   3.0045292  87.0357423
  67.1040249  64.8284817  13.2697785  67.1581221  64.5670605  12.3505592
  67.3679590  64.0478134  13.7567389  81.3766861  26.7644501  37.4934649
  81.2249947  26.6366911  38.4298921  80.6058979  26.3844180  37.0719337
  48.9256668  47.1298981  18.6469543  48.5141993  47.5592518  17.8969002
  49.7237730  47.6345682  18.8036764  44.7400166   0.5739281  71.8989186
  44.6148373   1.5220472  71.8585520  44.0051438   0.2139589  71.4023058
  38.5498786  51.0316992   9.8315644  38.3097458  51.1858320   8.9178836
  39.0363884  50.2075100   9.8155868  58.2773781  40.5181170  20.5892420
  58.5535908  39.7225118  21.0441661  57.6974106  40.9596729  21.2096477
  23.6738920  57.5600767  12.8589261  22.9847002  56.8991613  12.7923083
  23.6109781  58.0549097  12.0419741  36.5930319  55.1029110   6.1354607
  36.3080502  55.1826525   5.2251536  36.6219497  56.0039568   6.4571875
  64.8604718  69.3473669  77.5283854  63.9626471  69.4275185  77.2063284
  65.2745620  70.1774832  77.2924487  60.4911709  52.9596853  20.0214386
  60.0171280  53.1082439  20.8396363  60.0141811  52.2483110  19.5940459
  42.0597744  25.0281739   2.9782656  42.2079420  25.9726763   3.0250731
  41.1482716  24.9422717   2.6989529  63.2903051  29.5042658  33.5361433
  64.1854763  29.8206234  33.4144115  62.7382326  30.2253294  33.2336307
  31.8611836  65.3624964  33.3331776  30.9675336  65.6495428  33.1454945
  32.0172548  64.6468163  32.7169991  99.4067097  52.6612616  32.5063801
  99.2195797  53.5121393  32.1098709  99.6224689  52.0942497  31.7659879
  36.3077331  40.9757900   9.5340991  36.8074608  40.6336260   8.7928671
  36.9709897  41.3253069  10.1292121  64.5784473  66.7660475  13.3009994
  64.3228292  67.6761532  13.4513128  65.4489326  66.8236876  12.9070926
  78.7047720  53.6123657  23.2737517  78.7411261  52.7279139  22.9095316
  78.7703371  54.1880369  22.5118256   7.2183564 102.6271304  61.8240921
   6.6702940 103.3890875  61.6362541   7.0979216 102.0531329  61.0676186
  72.3195648  34.3062615   5.7598674  72.7334881  34.1881275   6.6148204
  72.5230551  33.5021782   5.2820885  71.9474983  44.7455072  17.7414238
  72.0589495  44.4658995  18.6500657  71.8573952  45.6970596  17.7929783
  49.4714642  35.6185961  15.3628743  49.9195385  36.0696363  16.0784340
  50.1020813  34.9656677  15.0591588  82.0089436  52.4478340   3.6253601
  81.1898613  52.2088003   4.0591776  82.1011639  53.3865499   3.7882504
  87.0541573  47.1675158   6.8362248  87.8886795  46.7510462   7.0515215
  86.4352322  46.8056488   7.4704272  68.5678768  39.0991402   7.8847522
  68.2995605  40.0171518   7.8461123  69.3478823  39.1007352   8.4395689
   4.1053845   4.4367668  76.0501914   4.8676516   4.5942995  76.6072957
   3.3884836   4.2783949  76.6643624  50.3450918  77.4129868   7.4650955
  50.7806778  78.1560802   7.8826064  50.1769829  76.8005991   8.1813025
  40.0171995  76.8758392  28.4447217  40.8449745  77.2539663  28.1480098
  39.4258404  76.9790649  27.6991534  23.9699340  43.3111334  23.9786983
  24.1669488  42.4242067  24.2799926  24.6281528  43.8604498  24.4044089
  47.8619576  45.7310534   8.5989928  47.0888805  45.9777498   9.1066563
  48.0646849  44.8414612   8.8883996  76.1547661  41.0785913  16.7458391
  75.8954048  40.6137323  15.9503090  75.8524370  41.9762754  16.6080379
  61.2882900  49.9012566  21.9917250  61.0049057  49.1925669  21.4140677
  61.4444971  50.6408978  21.4045620   5.2252295  81.7335638  88.3951082
   4.8097041  81.2734803  87.6657997   6.1521866  81.5052732  88.3253434
  44.0554571  51.7696524   8.3371466  44.0353155  52.7229786   8.2535046
  43.1342983  51.5094709   8.3344567  28.9030838  27.8473139  16.8806136
  29.7028017  28.3678079  16.8046474  28.9800572  27.1879363  16.1910272
 106.7811203  49.5855427  45.8538008 106.6626930  48.8304377  45.2775860
 107.7151299  49.5828676  46.0632086  71.7840338  52.6866150   3.2585463
  72.6194572  53.0360317   3.5687244  71.4056015  52.2552109   4.0246481
  93.4286022  59.8016596  33.4516549  92.5243378  59.6594238  33.7315083
  93.6701965  58.9921284  33.0016255 105.8902374  57.7201279  68.7172143
 105.8520809  56.8188604  69.0373580 105.0928131  57.8238245  68.1979864
  15.3424050  13.7622759  60.5879276  16.0786368  13.1512711  60.5586021
  14.9555136  13.7132666  59.7137706  95.0139157  90.0961813  83.7705402
  94.5890728  89.3519934  84.1970639  94.7375170  90.0378665  82.8559725
  66.6557217  86.4001656  30.2909374  66.1515856  87.1469498  30.6140327
  67.5683212  86.6390228  30.4532313  57.2051334  28.9068246   9.9441105
  56.4603424  28.8025808  10.5362654  57.0848274  29.7745657   9.5583856
  54.6768904  46.5860081  42.3503542  53.8631964  46.4758873  41.8584108
  54.6058226  47.4579763  42.7387524  84.5585537   1.8246479   5.6476820
  84.8068237   1.6413584   4.7415915  85.1452637   2.5307629   5.9186232
  78.1579494  48.1832266  12.8458428  78.6668634  48.9811850  12.9890168
  78.8131046  47.4872351  12.7948284  67.1192122  18.8700843   4.0395439
  67.8241301  19.4356585   3.7241912  66.9026613  18.3163571   3.2893935
  62.9779577  39.3087268  15.8637369  62.1365404  39.6392894  15.5491281
  62.7620745  38.8237166  16.6602242  23.5466435  91.1853036  70.3043430
  24.2916443  91.6977414  69.9903207  22.9803421  91.8253859  70.7354288
  65.5214357  38.4695315  20.7084155  64.7767448  37.9124880  20.4817533
  65.5394888  39.1363096  20.0218940  69.9074316   6.1036879  61.5405273
  70.3150320   5.9290010  60.6922483  70.4506874   5.6289399  62.1695900
  90.5089569  81.3639355   3.2282236  91.3260174  80.8667850   3.2666832
  90.6313038  81.9695950   2.4971688  43.2359911  27.5940106  88.5167790
  42.8280998  28.4559605  88.5998574  43.6840512  27.4595663  89.3518849
  48.1851721  44.2377520  15.7831752  48.6237240  44.8588657  15.2016973
  47.5350142  44.7637033  16.2488997  85.9054852  30.7952428  22.8159428
  86.3771820  31.1909866  22.0830584  86.5937901  30.4685545  23.3953667
  24.3165207  58.8156509  10.1490319  25.1935291  59.1456461  10.3444552
  23.9149141  59.5029926   9.6175218  46.9413757  29.3760014  15.9964657
  46.9827652  30.1161528  15.3909135  46.4719963  29.7158194  16.7583323
  27.5816681  77.3057541  76.1799090  28.4294941  77.6430830  76.4691048
  27.7997067  76.6011938  75.5697589  46.3886499  15.1826203  31.4069653
  46.4564371  16.0609460  31.0325575  46.4815998  14.5948339  30.6572342
  75.9137344  75.6059504  51.9533157  75.0388622  75.9067917  51.7077017
  76.3343000  76.3772392  52.3333979   1.0869337   1.4645359  53.8846795
   1.5558745   2.1128151  53.3592670   1.6448952   1.3278219  54.6503322
  32.9902172  50.3076553  16.4377773  32.4365926  50.9226322  16.9189620
  33.8813591  50.5199146  16.7153502  54.2081738  41.5513659   0.4284716
  54.0730047  41.1460638  -0.4280864  53.8563108  40.9162235   1.0521844
  67.1461058  29.2957830  15.0378871  66.9691229  28.4357691  14.6567273
  66.4659643  29.4079947  15.7019997  27.2360659  72.8871346  20.8227873
  26.7007208  73.5749674  21.2184167  26.6053772  72.3125792  20.3887963
  79.2589617  54.9269009   0.6554862  78.5384750  55.5545568   0.5990973
  78.8991165  54.1162348   0.2955414  69.3826723  31.6580868  27.1699858
  69.5870352  31.7818618  28.0968881  68.9778900  30.7917261  27.1275806
  61.8716621  62.1815062  25.2759385  62.1130180  62.9023695  25.8576012
  62.7042389  61.7662764  25.0509191  79.2933893  25.7635760  14.7674465
  80.1163673  25.6493092  15.2427137  79.4016647  26.5896702  14.2961955
  81.5860367   0.3771232  15.6224144  80.9777164   0.9756404  15.1888800
  82.3370361   0.3289048  15.0308847  87.7553177  62.1560621  18.2933390
  86.9168854  62.6089430  18.2030034  88.4044456  62.7912807  17.9910672
  55.4599285  47.4843645  10.2913642  55.7661963  47.5421762   9.3863285
  54.5115709  47.5993061  10.2310944  87.0707512  64.6868515   8.1189179
  86.6234875  65.4407454   7.7344358  87.7523327  65.0690460   8.6717272
  48.7513113  62.7744055  19.1897929  48.7413311  62.3611355  20.0531244
  49.0622044  63.6646938  19.3540061  42.4729824  47.2882366  26.9289327
  41.7256212  46.7611837  26.6462660  43.0826235  47.2541046  26.1917710
  50.3538942  49.2793179  29.9746728  50.8428574  49.8102045  30.6034088
  50.8083344  48.4368992  29.9679327  67.8272772  11.8388665  27.6222062
  68.2941866  11.4200187  28.3452535  68.2560921  11.5044248  26.8344879
  90.5315748 100.5164202  73.2713263  90.1102987 100.7668646  72.4491124
  91.4289967 100.2947911  73.0228429  98.5271660  96.3884886  86.2748490
  97.8762833  96.2270268  86.9578675  98.2242790  95.8715495  85.5283497
  82.4368063  74.2380437  88.0006751  83.0552975  74.4925030  88.6854756
  82.0359770  73.4324845  88.3272378  22.9654932  41.4822626   9.3908542
  23.6208606  40.8010387   9.2403013  22.3386455  41.3738108   8.6756396
   1.7779099  35.6085157   7.2092372   1.3985955  36.3685894   7.6504177
   1.3396488  34.8567343   7.6079631  35.7249475  64.3996716  24.7648668
  36.4167619  64.8693752  25.2307034  36.0165596  63.4879923  24.7588944
  44.0748383  17.0160458  75.5686562  44.8822857  17.1590540  75.0748854
  44.0893723  17.6870987  76.2510877  25.1492739  43.1141758  12.7642894
  25.4992700  43.3844757  11.9153643  24.9708033  42.1792221  12.6630795
  58.9898825  62.7517128  15.5085146  59.4942904  62.3350048  14.8098314
  58.3587599  62.0847368  15.7788098  71.3311386  54.7184515  29.2556643
  71.7261791  54.6046972  28.3912373  70.4001856  54.8523283  29.0778208
 107.5343513  58.2442427  14.3751764 108.2856083  58.0322361  14.9291718
 107.2653675  59.1175079  14.6602845  63.1878042  55.9784889  28.4960604
  62.6717758  56.5497875  27.9272366  63.1813002  55.1300764  28.0529022
   0.5747544  34.0309572  20.4893422   0.5058514  34.9135208  20.8534431
   0.6419884  34.1663742  19.5441580  64.9441147  79.3859720  39.8837566
  64.0913677  79.7971725  40.0250721  64.7673035  78.4463167  39.9286819
  93.3618164  50.2404308  31.4169860  93.2727051  49.7895050  32.2566032
  92.8190613  49.7328043  30.8136988  94.5098591  86.8619919  34.2413807
  94.5975304  86.5748978  33.3324695  94.7201061  87.7955437  34.2190170
  68.5801268  77.4068832  23.9130640  69.3635130  77.7148008  24.3688273
  68.1894541  78.1998205  23.5458374  83.9049816  69.4535017  50.6681347
  83.8480568  69.3107891  49.7233486  83.3937645  68.7397051  51.0494184
  73.5335636  90.3217697  29.4981360  72.7253819  90.0950050  29.9581933
  73.2546282  90.5080700  28.6016321  64.3516588  71.0591364  39.9483919
  63.4140682  71.2327242  40.0321865  64.4232082  70.4973793  39.1766810
  87.1504688  25.0455284  23.9733529  87.2221088  25.7984996  24.5599866
  87.5499630  25.3405643  23.1550717  85.4223982 100.3045376  83.4301524
  85.4453293  99.8367079  84.2649208  85.3297917 101.2254675  83.6741762
  72.4728918  60.6073856  42.3236132  73.3312941  60.2893972  42.0438671
  72.6449060  61.4787579  42.6804781  74.6840429  74.7213030  32.2806478
  74.2100763  74.2505074  31.5951276  74.9277163  74.0440845  32.9117012
  67.5941540  10.3729174  74.0615718  68.4304787   9.9896929  73.7971132
  66.9494702   9.9614689  73.4859662  78.8377523  54.8890591  18.3044910
  78.5831165  55.5529165  18.9453399  79.7316551  55.1255178  18.0569887
  70.9420109  98.6542034  19.7309172  71.8789434  98.5057068  19.8587227
  70.7793331  99.5110989  20.1252508  31.6335416  62.7331400  39.3388271
  31.3183928  61.8395281  39.4743371  32.2855306  62.8641605  40.0272846
  98.2466984  74.8848677  25.1372457  97.7292538  74.9533606  25.9396124
  97.8289986  74.1800308  24.6423101  91.9857184 102.6728257  76.6177170
  91.8377081 101.7402991  76.7749278  92.3279205 102.7138146  75.7247167
  79.8221016  73.3404684  44.8742819  79.6434259  74.2573500  44.6653938
  80.1519489  72.9683638  44.0563726   7.6818119 101.6402340  32.8388357
   7.5851857 101.2112999  33.6890769   7.5312744 100.9431076  32.2004008
  73.5259628  74.7272921   0.9654608  73.9156580  75.6008339   0.9294964
  73.3618736  74.5003605   0.0501418  98.2576275  68.8307333  49.4339514
  98.3137321  69.4293690  48.6891556  98.6262417  68.0092049  49.1092205
  84.1160297  76.5741682   7.6394677  84.7714329  76.5719461   6.9418472
  84.2484283  77.4083567   8.0898368  48.4456539  69.0478468  21.1917281
  49.1154671  69.4802570  20.6620026  48.3006334  68.2081509  20.7557178
  67.1120882  69.8391104  24.2402768  66.6685152  70.5738115  24.6641827
  66.5414476  69.6048546  23.5083413  78.8355805  28.7679216  82.0127390
  78.4624268  27.9751370  82.3980890  79.6390034  28.9207193  82.5101261
  83.5408878  48.8464928  12.8368533  84.3542194  48.5893679  13.2711375
  83.7834263  48.9514542  11.9168591  62.4452066  38.1574416  18.2854187
  62.8037548  38.9814115  18.6151910  63.0411148  37.4865437  18.6186099
  97.9453182  63.3222437  16.3709068  97.6113415  64.0057755  16.9518316
  97.5742245  62.5108719  16.7175972  92.9543972  90.5239773  37.8853226
  93.5227203  90.2209949  37.1771955  93.0281448  89.8469448  38.5579443
  80.7619667  72.3449516  58.1099892  81.5790462  71.8467999  58.1310797
  80.9188271  73.0871820  58.6936998  61.1224318  88.4113693  23.6097455
  61.0188913  88.9390087  22.8178453  62.0183563  88.0780792  23.5600424
  84.8480701  47.2419071   4.1192451  84.4726658  47.5961924   3.3131546
  85.5753613  47.8298092   4.3233347  53.2958771  41.9642756  71.4038460
  54.0026451  41.3808271  71.1275952  53.3624722  42.7164290  70.8155744
  75.7472849  69.4968605  58.9171743  75.5414295  68.5755205  59.0752792
  76.3440943  69.7341442  59.6269226   4.2468557  65.3710938  28.9603567
   5.1967901  65.2542019  28.9742374   4.0868047  65.9425497  28.2093191
  74.8909569  62.3957396   4.0955833  75.6279230  61.9128799   3.7214786
  74.7398996  61.9816780   4.9452695  55.6001663  50.9077024  14.7225690
  56.4691782  50.5569935  14.9176478  55.7532167  51.5608454  14.0397716
  77.3226547  43.1424379  18.7565351  77.5076962  42.3426723  18.2642233
  76.4661074  42.9861355  19.1541898  58.3410622   5.2898380  73.2445280
  58.5717083   5.0562307  72.3453836  58.1377770   4.4540617  73.6645012
  96.9203377  67.5643301  32.7678680  96.0365105  67.7662277  32.4607563
  97.0924187  68.2159948  33.4475422  81.2772385 100.8712300  87.3262702
  81.9713608 101.5032824  87.5132004  81.7343060 100.1160010  86.9562081
  76.7690229  62.6455688  30.1617813  77.2221565  63.3382368  30.6425333
  76.7833567  62.9377747  29.2503858  71.8702841  62.5631428  29.1610980
  72.2817993  62.9587317  28.3927274  71.7556953  63.2905722  29.7726083
  87.4615860  51.7361021   0.8918586  87.6967049  52.6456356   1.0754114
  87.6945591  51.2626457   1.6904786  66.0355234  19.4364381  35.2041888
  65.4805517  20.2144694  35.2580833  65.6732655  18.8381076  35.8576441
  76.3965321  57.5871801  15.0426447  77.2533083  58.0119562  15.0010443
  76.5895700  56.6518354  14.9786520  83.4651566  59.4881105  55.1649570
  83.3730221  59.0687990  54.3094349  83.2096100  58.8115788  55.7920408
   1.1682831  68.9974833  17.5065196   0.2816712  68.8299751  17.1869862
   1.1552368  69.9149179  17.7792430  10.4697834  69.1278219  32.2221875
  10.3160702  68.7649965  31.3498569  10.9178959  69.9580956  32.0607090
  72.8519608  15.8924172  87.7015080  72.4008633  15.2420828  87.1631649
  73.0632759  16.6012785  87.0939775  73.5734320  72.5320101  16.4591587
  73.1387424  72.7519321  15.6351995  74.1396809  71.7917156  16.2410784
  63.7629795  45.4641533   8.8048959  63.1608105  45.2507257   8.0921000
  63.1936169  45.6567907   9.5498455 105.6773821  66.5789314  78.8669948
 104.9857632  66.4280006  79.5112895 105.7999579  67.5282487  78.8651292
  81.6414738  44.6587324  26.7752409  80.7051945  44.7005558  26.9698334
  81.8070984  45.4270077  26.2288427 105.4987049  38.5919356  14.7515988
 105.4214573  38.5751390  13.7976694 105.1912212  39.4632816  15.0014889
  76.2951088  52.2068405  29.8008323  76.3021517  52.9008770  29.1416693
  76.9476891  52.4816275  30.4449320  39.6114708  20.5089352  55.9616582
  39.1133524  19.9425575  55.3723090  40.3059603  19.9463579  56.3043277
  80.5271244  56.1925411  22.2133327  81.0922146  55.5750465  21.7489958
  80.4444313  56.9366312  21.6169095 105.2801323  94.1454124  34.9492359
 105.1176548  94.9879932  35.3733778 105.3559589  93.5236073  35.6730032
  83.5780621  69.1483927   8.0595785  83.7303257  70.0669241   7.8374219
  83.0211449  69.1792631   8.8374770  70.3353786  44.6685886  14.5789611
  69.7482586  44.3449450  15.2621698  70.9681892  43.9616632  14.4523215
  84.5319748  54.3596745  21.5806746  85.4213619  54.1568565  21.8706465
  84.3993282  55.2727413  21.8355227  85.3412819  83.9209080  18.4538829
  84.7095680  83.7570763  17.7536428  84.8693371  84.4721985  19.0780532
  86.6421318  70.9375668   4.6380377  86.9754887  70.4091406   3.9128691
  85.7008076  70.7642269   4.6477759   0.2224766  28.4839177   2.3466194
   0.1651608  28.5602307   3.2990497  -0.2485813  27.6760888   2.1422899
  70.5417156  51.7678022   8.2121676  69.6977854  51.3366413   8.3467704
  70.3829575  52.6827526   8.4443200  64.1877724  29.4280550  75.1485865
  64.0739800  28.6895678  75.7468490  64.4242359  30.1617643  75.7160299
  21.8333031  25.2769396  62.6623814  22.2653462  24.4379732  62.8227012
  22.5519921  25.9013102  62.5629608  24.3644390   0.8580698  56.6400719
  23.5415325   1.2609304  56.9171286  24.7568379   1.4985670  56.0467529
  71.8477631  81.1312866  35.4808235  71.8306255  80.4236031  36.1251259
  72.4216127  80.8086967  34.7859406 102.6253033  64.2547274  30.2596807
 102.6071167  63.2998085  30.3231931 102.0770264  64.5535088  30.9851789
  62.1201969   0.4165527  86.4417519  61.2578274   0.1620838  86.1134277
  61.9386364   0.8723185  87.2636677  57.7549219  68.4830856  23.4964561
  57.0633173  68.3854437  22.8419495  57.8438377  67.6118231  23.8827586
  84.1392708  84.7351551  21.5438533  85.0201416  84.8868084  21.2013626
  84.1942310  83.8836193  21.9775510  57.2698189  19.6296808  82.6265060
  57.2763325  20.2365276  83.3667271  58.1947495  19.4599888  82.4477618
 106.3799953  53.8153028   5.6187677 105.8116722  53.1664705   6.0337991
 105.8374786  54.2054701   4.9334365  60.1379967  37.3722148  15.0195301
  59.5529222  37.6201344  14.3036699  60.4741859  38.2040429  15.3531027
  79.8100042  64.4589806  11.6439855  80.6286049  64.0678358  11.3388062
  79.3600655  64.7282696  10.8431900  14.9314820  59.0573788   9.3627125
  14.2301117  59.3136835   8.7638581  14.4803463  58.8240480  10.1740456
  69.0117931  60.7759094  12.4927557  69.1964340  59.8385382  12.4338520
  68.7809896  61.0311556  11.5995514  72.5486231  66.2368202  33.3159804
  73.4917164  66.3688993  33.4127402  72.3360014  65.5535316  33.9517021
  21.5747858  48.5827658  86.3665761  21.1228396  49.1647265  85.7555895
  21.2523390  47.7085230  86.1476080  44.5169808  16.3402865  81.5361200
  45.0980450  15.6829092  81.9188063  44.2358280  15.9568855  80.7053451
  30.2991034  19.6373388  52.1326034  29.4735934  19.5323870  51.6595833
  30.8662010  18.9516995  51.7797081  46.5428330  18.6834833  70.4923515
  47.2955681  18.5362455  71.0650222  46.8504883  18.4293577  69.6222930
   4.6456966   6.7547048  57.9783392   4.2687283   6.9412054  57.1184921
   4.0097532   6.1754049  58.3981276  12.9238735  59.9810553  23.6953783
  12.1600663  60.3268671  24.1571546  12.8012978  59.0318060  23.7070155
  75.8268785  97.0721626  29.7026992  76.3155270  96.6574287  30.4136515
  75.6039953  97.9399395  30.0396299  76.5070152  60.7767248  37.3393512
  76.1774731  59.8850107  37.4510884  75.7791519  61.3366556  37.6093864
 102.4965096  64.0653419  10.9298980 101.7981911  63.5006618  11.2611306
 102.2199154  64.2926884  10.0421834  69.2518234  63.0058384  34.9240732
  69.8419619  62.9423285  35.6750321  69.0955544  63.9445543  34.8209739
  13.5417439   8.4600041  85.5170627  12.9246260   9.1533110  85.7510017
  13.0244519   7.8439161  84.9983357  72.0846605  74.2726040  68.8710880
  71.3064766  73.8236380  69.2013741  71.9100189  74.3999720  67.9386139
  53.1650711  42.0971891  88.9749503  52.7425839  41.6099188  89.6822716
  53.6458088  41.4332983  88.4806135  34.2647434   6.6208908  44.2125265
  33.5409333   6.4221499  43.6185305  34.1689564   5.9902498  44.9262135
  21.6638803  54.9165535  15.6578600  22.2174954  54.1357374  15.6496286
  21.0979652  54.8008776  16.4211369   3.9492165  57.2060013  56.3685942
   3.2081639  57.7928305  56.5193033   4.7188317  57.7720833  56.4274693
  73.8249350  66.2073660  46.7109489  73.7935781  67.0114422  47.2293234
  74.1097784  65.5346251  47.3294258  25.3689060  11.8721212   8.5638511
  25.0464211  11.2469495   7.9146934  26.3219605  11.7974103   8.5155106
  97.5633049  89.6724224   4.7219047  97.7207851  89.1245747   3.9529490
  97.7195549  89.0911579   5.4661793  96.0829926  81.7877197  77.7391243
  96.5127373  81.7918873  76.8838310  96.2493515  80.9114265  78.0865002
  49.9619579  35.4557776  23.6477804  50.5860519  35.7190347  22.9714394
  49.3223047  36.1674047  23.6735034  49.1221189  80.0775528  44.1428995
  48.7798691  79.2475319  43.8109970  50.0721645  79.9607801  44.1460228
  90.3993893 100.7875633  21.9920564  89.8579311 100.6000423  22.7587914
  91.2628555 100.4419041  22.2182798  23.2524800  74.7980928  20.1584387
  23.0103803  74.0680981  20.7282829  24.1756153  74.6473217  19.9551654
  92.2642040  87.9600620  21.3798285  92.9283619  87.8578281  22.0614982
  92.4439049  88.8188744  20.9972286  66.1036634  52.6796532  30.9767604
  65.4129457  52.2250175  30.4946327  65.6478453  53.1082010  31.7011952
  44.3745565  46.2988234  24.9114156  43.9523172  45.4985809  24.5990825
  45.2780342  46.0385418  25.0909066  70.0522804  68.0081844  29.9985051
  69.1073704  68.1095219  29.8840117  70.4143906  68.8643265  29.7701812
  70.0794697  70.3026009  26.6168356  69.2364693  70.7054901  26.8248248
  69.8523378  69.4506216  26.2443089  96.2349415  84.8518562  13.2938778
  95.7088184  84.8685837  14.0933442  97.0874786  85.1954746  13.5609698
  74.5731544  55.2401876  31.8731093  74.8357964  54.9482203  32.7460361
  75.3964615  55.3326464  31.3936853  95.2545643  46.3111401  15.9205878
  95.8603096  46.3146400  16.6617322  95.7604027  45.9362555  15.1996017
  78.6442375  82.5495434  48.2175207  78.2327652  81.7497730  47.8899765
  78.0897665  83.2565975  47.8875732  92.5825405 102.5020218  39.8808575
  91.9213772 101.8111897  39.8378682  93.3158779 102.1029091  40.3490162
  54.2036819  79.5047188  30.6557298  55.0460577  79.8285913  30.9746909
  53.5527945  80.0071430  31.1457801  89.3291283  79.6554852  31.3728261
  89.5332909  79.6457577  30.4377031  89.2295742  80.5831814  31.5866113
  58.0521393  92.0589352  10.9206498  58.5893250  92.7674198  11.2751985
  57.3022461  92.5023651  10.5240977  77.8355312  57.5170135  31.6647029
  77.9047775  58.4587336  31.5078425  77.0852804  57.2410345  31.1382127
  13.2743607   4.9225915  20.7302380  13.2464371   5.8012117  21.1090183
  13.1154022   5.0592435  19.7962749  56.4745855  74.2951250   3.2575074
  55.8182716  74.9908495   3.2956120  56.0311270  73.5274887   3.6184996
  98.9638424  22.5743389   7.1449721  98.6398411  21.9720197   7.8146493
  99.3787766  22.0081878   6.4941764  77.6871681  54.6994209  31.8796730
  77.9530239  55.6169987  31.8196464  78.5078335  54.2189121  31.9885468
  55.0876236  67.0111895  17.7903616  55.8929110  66.6946554  17.3810327
  54.3853998  66.6370153  17.2582877  89.5464420  73.6415434  22.8380585
  88.9724541  73.2382441  23.4892964  90.3074455  73.9354658  23.3387780
  68.4626293  54.3675089  28.4061909  67.7744389  54.8139000  27.9128718
  68.7620735  53.6704874  27.8224754  42.6780224  60.1189137  12.7776194
  43.2123899  60.4880953  13.4807503  42.3307562  59.3050957  13.1427741
  75.9886503  55.8446646   5.7679898  76.4201212  56.6990519   5.7772422
  75.9104204  55.6058359   6.6916090  64.5314074  60.8012390  33.2725906
  64.3628740  60.2159119  34.0109777  65.3786755  61.1997747  33.4714127
  71.8261862  21.2874818  30.5496502  70.8781719  21.3198447  30.4213834
  72.0795631  20.4163122  30.2445364  64.6109654  20.9605906  81.6860758
  63.9745690  21.1844036  82.3651503  64.1056706  20.9660599  80.8731304
  95.2533245  56.1883640   0.7060549  94.8554897  55.3552198   0.4533978
  95.0421047  56.2827206   1.6348812  47.2585678  48.0743504  12.7237868
  47.2135782  49.0226698  12.8458524  48.1526041  47.8426409  12.9752588
 101.3750362  75.1059294  23.6323500 101.5459824  75.8281326  24.2368579
 102.1755981  74.5816278  23.6530924  59.2472029  46.6972065   5.6933647
  58.6833525  47.3837328   5.3370208  59.7125292  47.1200562   6.4150995
  78.8119030  59.0928555  15.1695466  79.5168018  59.4513178  15.7088566
  78.8682270  59.5796299  14.3472886  62.3383522  65.1959181  16.8904841
  62.0429945  64.4575453  17.4232161  62.7714014  64.7909927  16.1389959
  31.3055540  35.9350226  63.7088768  30.3633238  35.9079859  63.5424225
  31.3994099  36.5213320  64.4596522 104.7856998  65.0769949  44.6453714
 105.5582333  65.3634930  45.1325464 104.1825294  65.8185816  44.6951246
  60.0173330  65.2996063  31.8053603  59.7681808  65.5329180  30.9110904
  59.6211720  64.4399595  31.9478202  27.6265455  11.8279574  57.8224962
  27.5165154  10.9405634  57.4809496  28.3460594  12.1948311  57.3087470
  31.0490465  52.8239870  11.5864503  31.2316298  51.9466305  11.9228184
  30.5862904  52.6730061  10.7622576  82.1150208  64.2035961  13.6451387
  81.5198517  63.9447975  14.3487203  82.9091644  63.6931467  13.8033032
  46.5229489  24.8003027  68.6097257  46.9000126  25.0833103  69.4427686
  45.6151081  24.5814058  68.8198058  75.2581596  32.1606207  25.6255007
  74.4857025  32.3725224  26.1495614  75.2883816  32.8442216  24.9561667
 104.1027737  49.5184469   7.7259308 103.2696915  49.2952728   8.1411511
 104.7628403  49.3143225   8.3884031  37.5594673  10.2999509   2.0714490
  37.3228989  11.0944570   2.5500017  36.9784412  10.2965559   1.3107748
  58.2359648  50.5943966  21.1654305  58.5692978  51.3626242  21.6290593
  57.3221493  50.8069658  20.9757209  70.7183599  89.8162079   2.2364859
  71.6703701  89.7251701   2.2767945  70.4823589  90.2334213   3.0650166
   1.3641201  75.0937891   3.6898664   2.2719799  74.8783922   3.9034551
   1.3454663  76.0503531   3.6604500  89.1883278 100.6305790  19.5795536
  88.3180332 100.9096432  19.8640513  89.7325420 100.7072926  20.3632474
  65.1775265  62.8278637  20.1961684  66.0531521  62.4424219  20.1654696
  64.7105932  62.4199963  19.4668877  75.3854656  88.4070969  48.9131784
  74.7121906  88.9834023  48.5515022  75.4461002  88.6585045  49.8347807
  80.8053802   3.3278955  42.7464724  81.3593076   3.1466211  43.5057688
  81.1017727   4.1820825  42.4322367   9.9790633  53.3153772  23.6297274
  10.0591385  52.4334097  23.9929843  10.2696037  53.2277870  22.7219009
  83.3401489  60.5961323  41.6522884  83.1961823  60.4833698  42.5918579
  83.5848236  61.5165329  41.5562391  88.0851364  83.7552834  18.5940313
  87.1307373  83.7914658  18.5305309  88.3458710  84.6535587  18.7974060
  96.9060158  12.5549234   8.8203579  96.5835928  11.9775308   9.5123768
  97.3627924  13.2553018   9.2862535  75.3866386  68.8416338  65.7994366
  75.8826685  69.0988398  66.5766287  75.1976299  69.6664953  65.3520966
  80.9802914  58.8062429  25.9885907  80.0320339  58.9240360  26.0447240
  81.2965584  58.9838171  26.8744087   3.6879479  78.1123352  61.8530130
   4.6177613  77.9966593  62.0487261   3.2503830  78.0061722  62.6977015
  78.0323315  78.7771893  16.6188252  77.1436882  78.7471151  16.9732773
  77.9112530  78.7879658  15.6693757  72.6038790  40.2277470  36.5243888
  73.3092117  40.7919264  36.2074709  71.8555260  40.8154249  36.6284585
  42.0923878  11.2796805  60.5455320  41.9271542  10.7577011  59.7603767
  42.9677464  11.0156462  60.8288424  82.3927879  70.6288052  31.3938665
  81.8143368  71.0371590  30.7497621  82.0530891  69.7391891  31.4908791
  84.6041838  64.7113188  66.0194008  83.7031904  64.7544118  66.3396852
  84.5675722  65.1049324  65.1476447  89.8852730  52.2222185  34.3627715
  89.2081165  52.7148390  34.8264670  90.4951668  52.8901196  34.0494537
  56.8322039  80.8129311  37.9902077  57.7483463  81.0460949  38.1403923
  56.4780092  80.6573963  38.8657570  98.8474464  77.3533678  29.0792394
  99.2035007  76.6396379  28.5500407  99.6012592  77.6929951  29.5615768
  62.0830059  60.7183886  32.0768857  62.9348993  60.8574200  32.4906230
  62.2920513  60.4581928  31.1797619   9.4212391  71.2645873  87.6242303
   9.4214776  70.4859062  88.1809061   9.7287800  70.9510800  86.7737241
 106.8545532  86.6594505  44.6286583 106.8337536  86.1006260  45.4055214
 106.2956810  87.4032688  44.8536348 107.4471283  43.4016180   2.7686477
 107.8827572  42.5698471   2.5825891 108.0541325  43.8663006   3.3447072
  65.9954977  48.2491636  13.5799515  66.4396858  47.6266003  13.0043256
  66.5738058  48.3286142  14.3385553  96.7110538  47.2513056  22.2623873
  96.2125015  46.4423037  22.1475410  96.0464764  47.9393196  22.2970605
  94.4057655  25.0846863   7.6671064  94.2069054  24.3409920   8.2359719
  95.1120567  25.5482841   8.1170601  82.2926807  73.4093189  34.7192955
  83.0026245  73.3601999  34.0791321  81.5586281  72.9625559  34.2976379
  89.6595287  50.5319023  12.3885620  90.3981304  51.1079216  12.5857902
  90.0016403  49.9175930  11.7390907  16.7816664  11.5898249  88.2438865
  16.4291359  12.0518276  89.0044844  17.6619745  11.3254377  88.5110695
  38.6090064  26.0841250   5.4447752  38.6628747  26.5235329   4.5960999
  38.5155225  26.7961502   6.0776371 101.9055748  30.3987217  26.6959190
 101.5522480  30.9482050  25.9963059 101.1759949  30.2887654  27.3057175
  27.4818932  58.7144661   6.1334425  26.5633522  58.9098883   6.3186967
  27.7472435  59.3851280   5.5041331  98.5330772  51.6765070   0.9245666
  98.2164955  51.8460178   1.8118507  98.2371426  52.4317074   0.4163128
  48.7744761  43.1875801  36.9382071  48.1275654  43.8749266  37.0972347
  49.6062660  43.5732841  37.2131395  39.4661642  13.8457129  89.3657923
  39.4481398  13.8110706  88.4093892  39.9615265  13.0685303  89.6243194
  22.6068617  31.4390394  41.8219988  22.9199435  31.9696447  41.0894244
  21.6781355  31.2994978  41.6369669  72.7814579  73.6988831  30.2271271
  71.8257284  73.6733437  30.2736449  73.0369091  72.7935791  30.0499225
   3.5793053  41.9519377  11.7294216   4.4711720  41.6047907  11.7120624
   3.6231362  42.6948500  12.3314142  32.3876454  46.1272928  81.8201791
  32.4659134  46.9846365  81.4017777  31.4683844  45.8871100  81.7039924
  93.2978884  82.6596817  59.7512429  93.4246126  81.9452795  60.3755824
  92.4809853  83.0759796  60.0261967  55.1791334  73.3947515  18.3680665
  56.0721064  73.1099987  18.1737757  55.1457214  74.3020201  18.0647826
  85.0077057  54.7426033  38.3838964  85.1179123  54.1356230  37.6520109
  85.8991623  54.9209738  38.6834455  50.2179956  71.3182688  16.5616167
  49.9928331  71.3629341  17.4908841  51.1040115  71.6771221  16.5123379
  73.7310886  73.3395004  26.9331527  73.3233595  73.9884186  27.5066471
  74.5252800  73.7676764  26.6135359  61.7143202  18.5868335  24.3820477
  60.8666039  19.0208340  24.4782305  61.6049576  18.0130231  23.6237502
  62.1975327  74.4184923   5.8661968  61.6667366  75.2144814   5.8959836
  61.9944954  74.0268660   5.0167036  21.8631508 102.6946696  88.1564121
  22.3749592 101.8932637  88.0467187  20.9654953 102.3894700  88.2879348
  54.6248436  36.3898587  18.0695975  55.3618526  36.9996333  18.1046379
  54.9841499  35.6031752  17.6593995  54.0748001  15.7310555  75.7698374
  55.0167633  15.8844778  75.8432703  53.8542820  15.2184364  76.5475433
  63.8078928  57.3915768   2.9382262  63.8376093  56.8700886   2.1361037
  63.6097622  56.7584991   3.6282897  66.4353275  42.7865362  22.1778703
  66.8628359  42.8034878  21.3216114  65.7920980  42.0808840  22.1105003
  74.7601271  87.9859447  36.6293788  74.5081425  87.4505234  37.3817492
  75.0664091  87.3548412  35.9781218  52.6547314   1.5443012  79.4840585
  52.9939724   2.3791763  79.1613655  51.7917515   1.7575619  79.8390423
  51.3685703  81.8964958  28.6359763  51.5346050  82.8118896  28.8611913
  51.5283442  81.4170647  29.4488978  53.7373495  90.3778076  48.8930655
  53.9200354  90.2126217  47.9680920  53.5270166  91.3107681  48.9327669
   3.1421235  96.0972317  83.5246550   2.3882630  96.4775475  83.0737798
   2.7624133  95.4643115  84.1341369  70.7833338  56.1030006  51.6267204
  70.7663727  56.3445282  52.5527954  69.8941708  55.8006811  51.4417219
  75.3105831  90.3158665  39.9144149  74.4161034  90.6561375  39.8956108
  75.6465101  90.4764366  39.0325975  57.0648336  32.5515580  14.4769585
  56.9884539  31.5988255  14.4250143  57.9524279  32.7033353  14.8015738
  72.9332924  49.7619104  10.1866031  72.7159262  50.6940889  10.1811862
  73.0479860  49.5480919  11.1125398  76.5987110  84.3477154   0.5909467
  75.6868553  84.4504833   0.3185680  77.1032619  84.7976589  -0.0867072
  97.8017139  54.2081165  13.3631468  97.6464653  53.2821798  13.1766605
  98.2057762  54.5487070  12.5650465  41.2555790  88.6487293  45.7079458
  41.1266947  89.3431473  46.3540125  41.2316418  87.8392982  46.2183142
  61.5775347  33.2464862   6.7031389  62.3852873  33.1519508   6.1983323
  61.8233967  33.0045223   7.5960195 101.1909841  16.0544218  39.9667621
 101.8581461  16.7321504  39.8581100 100.4970192  16.4800085  40.4702759
  18.1693112  69.1632366  13.2957351  18.6251389  69.9909878  13.4483278
  17.3067700  69.4211960  12.9706109 106.4734077  76.1012554  15.5118454
 106.0124111  75.4226065  16.0049498 107.3080158  76.2043476  15.9690475
   2.6614033  53.8742781  23.0846429   3.1984745  54.6037436  23.3939457
   1.9283520  54.2915630  22.6321626  78.7911558  92.7194309  14.9201953
  79.5246410  92.6847172  15.5342221  78.2305431  93.4188271  15.2560449
  20.3804432  76.6703749   7.9656702  20.5559956  75.7733965   8.2499963
  19.5761906  76.6053295   7.4507147  44.1768433  26.1191818  84.5184620
  44.6054150  26.4320490  85.3151219  44.7170521  25.3839991  84.2287930
 100.4362653  24.0760911  39.6438622 100.2380108  24.9821390  39.4071746
  99.6578192  23.5843767  39.3822074  23.2912670  98.0156517  22.4482727
  23.3031308  97.1044159  22.7410936  23.2593571  98.5267067  23.2569957
 100.1868629  62.8824759  26.8565345 100.5545616  63.4631968  26.1903572
  99.4325924  62.4758911  26.4299273 103.4882259  84.6221638  45.3506041
 103.6885166  85.4002285  45.8709145 103.4403038  83.9119148  45.9905148
  72.8796101  48.9774370  16.4462030  73.3436060  48.6936665  15.6585395
  72.8472567  49.9314022  16.3745248  30.4040956  90.5035114  14.3953049
  30.8181787  90.9420204  15.1385927  29.5774674  90.1699924  14.7441399
  83.9361954  70.5165148  38.2634521  84.5280647  69.8276329  38.5657215
  83.5313034  70.1554203  37.4748421  87.2579098  73.9126205  16.3179779
  87.0534611  74.7058725  15.8228159  87.8055573  73.3958530  15.7269955
 100.7839203  98.3466148  56.6711998 100.3882217  97.7802658  57.3337030
 100.0435925  98.6631584  56.1535645  21.2955700  92.3623466  15.1940107
  20.9584748  93.2486248  15.0631630  21.3747345  92.0032978  14.3102407
 100.2257919  71.7091084   8.0057693 100.6285763  71.1580944   7.3346680
  99.7284508  72.3618269   7.5129718  38.5655189  72.4662304  28.3286881
  38.8081980  72.8272581  27.4760461  38.2408643  71.5872860  28.1330013
  64.7773457  53.0834866  35.6539750  64.3275356  52.9051685  36.4798737
  65.5547523  53.5811996  35.9072447  44.9260975  39.2817041  86.6104876
  44.3716027  39.8152372  86.0411842  44.3274380  38.6430857  86.9977908
  27.7075697  27.8105995  81.0879092  26.7609335  27.6885674  81.0156714
  28.0742384  26.9416306  80.9245764  81.8033028  72.0834875  68.5638237
  81.3470173  71.9584894  69.3959379  81.1664677  72.5304747  68.0062532
  88.0279541  77.9291058  32.9017162  88.5384464  78.6340284  32.5033331
  87.2444248  77.8628302  32.3558927  34.4172932  31.5388701  85.6858064
  34.2366482  32.3774931  86.1104383  34.5927502  31.7657015  84.7725727
  66.6841173  73.1771183  22.5565577  66.1900043  72.8012085  21.8280125
  66.3277626  74.0597582  22.6575089  92.9303932  52.9243803  16.6667283
  92.7090645  52.7796364  17.5866711  92.1477604  53.3293390  16.2929380
  48.4807358   7.4234117  19.5245183  49.3851433   7.5577844  19.8077595
  48.0754433   8.2873453  19.5993686  73.8163710  84.7477531  49.7194672
  74.3226480  85.2079868  49.0500593  73.4991598  83.9589405  49.2797232
 107.5362968 101.9464588   9.4997483 108.0086994 101.1691761   9.7978991
 106.9413280 101.6207409   8.8243574  56.2269783  97.6722336  36.7551708
  56.4589310  96.8269444  36.3705659  55.7653141  97.4490166  37.5634217
  74.4097948  59.3939781   3.7338910  73.8348103  60.1544523   3.8193306
  75.2769089  59.7661686   3.5732073  30.5466629  36.9127295  67.3703210
  30.9717394  36.0553095  67.3892324  30.3218914  37.0888350  68.2839410
  90.5878448  35.2146268   1.9071060  90.2033710  36.0827947   1.7858672
  90.5174255  34.7993326   1.0475696  31.8241456  97.0880660  89.3549903
  31.4307263  96.2306985  89.5174086  32.2304776  97.0055827  88.4922514
   5.0732170  85.4809666   1.0229329   5.8789479  85.5056095   0.5067729
   4.4768559  86.0728931   0.5644354 101.1258316  61.9567060  36.0984063
 100.4139137  61.5766287  36.6131306 101.9165230  61.7582130  36.6000438
   4.6273813  14.0283025  27.1581745   5.4515085  13.5524572  27.2612190
   4.0321550  13.3930315  26.7602181  18.9802338  21.1262295  74.6619813
  18.1310440  21.5137407  74.8739724  19.5169522  21.8661568  74.3779497
  14.4871556  77.2459698   1.6087720  15.3879010  77.5427961   1.4792265
  14.1275441  77.1788311   0.7242364  84.7256851  69.0893555  12.8981137
  84.5257759  69.9191570  12.4648738  83.8907242  68.6216593  12.9167676
  81.8201065  72.4145889  27.2653913  81.5889549  72.1080494  28.1422210
  82.2535706  71.6655779  26.8563461  72.0948076  64.2261314  35.0445390
  72.8765011  64.5859623  35.4637218  71.3676834  64.5475340  35.5776596
  92.3741913  81.9788551  45.6628990  93.2842827  81.7766380  45.8798552
  92.1548271  81.3692856  44.9582434  26.3565947  14.2262480  78.2998304
  26.6860558  15.0985596  78.0835776  25.4187084  14.3531487  78.4429996
  62.8694487  55.6099415  32.3309708  63.7912703  55.5503511  32.0801210
  62.8484774  56.2873459  33.0069256  61.6089773  71.0106945   5.6679714
  61.1837864  71.6194344   6.2720239  61.4304924  71.3712597   4.7994301
  85.7986736  77.5690889  31.2081814  84.8450470  77.6516533  31.2109566
  85.9897137  77.0244551  30.4445648  34.6547352  89.4315243  35.9713364
  35.2708184  88.6994553  35.9438682  34.0044533  89.1729259  36.6243982
  93.9087391  62.0179129   6.0523158  94.5452690  61.8110466   6.7366147
  93.1939888  62.4557972   6.5145147 100.2712250 100.3352737  17.0972383
 100.2651596 100.0045013  16.1990237 100.0041103 101.2509441  17.0170879
  97.1310711  83.9336395  39.7103810  97.8734303  84.0630913  40.3006220
  96.5604591  83.3207512  40.1740599  59.6185637  79.6251774  20.6120849
  59.2342138  80.1043797  19.8780060  60.5363131  79.8969984  20.6213212
  87.7769852  85.4169178  11.4022446  88.6245060  85.8617592  11.4097977
  87.6121712  85.2312469  10.4778004  92.4314308  84.2087650  40.0003099
  92.9827785  83.5810089  39.5332336  92.9045296  84.3842983  40.8136940
  14.4939076  71.7844248  19.5610344  13.8491188  72.3955297  19.9174404
  15.3398930  72.1568203  19.8097599   4.6212326  96.1144447  42.4325418
   4.3197285  95.9702110  41.5355873   5.5697666  96.2154102  42.3530579
  69.6073532  89.3351555  47.8299427  68.8461542  89.6226025  47.3257780
  69.9461794  90.1361370  48.2297754  89.7051048  72.7446556  13.5845697
  90.1952171  71.9300795  13.4728599  90.2141285  73.2448959  14.2224455
  39.0825154  23.3613083  82.9295634  39.8566605  23.4459469  83.4861325
  39.3945290  23.5773394  82.0508085  74.9372959  56.0598946  55.5569983
  75.5402565  56.1138487  56.2984562  74.0763044  56.2390518  55.9349251
  91.3111591  84.8807240   2.7440605  91.8525982  85.6564522   2.8901374
  91.9342995  84.1960526   2.5008398   1.3214432  69.8072767  52.6651907
   1.7928826  70.2857447  53.3471346   0.3975807  69.9799824  52.8465128
  70.0459957  88.3512688  38.3458662  70.7123280  88.0410099  38.9590359
  70.2697515  89.2693710  38.1933641  42.2658659  49.1995165  83.2122772
  42.2639490  49.9078295  82.5684486  42.5925280  49.6062204  84.0148412
  76.9998407  51.3367081  25.3710675  77.3859692  51.7416763  26.1476851
  77.7425528  51.1814976  24.7875285  85.6877995  90.1909256  41.8539619
  85.2468300  90.1895428  41.0043907  85.7330990  89.2674732  42.1017981
  10.2334938   3.8306154   4.1822127  10.7032452   4.5585168   4.5893183
  10.8413467   3.0931676   4.2362234 107.5405979  52.4421835  22.3503661
 108.4028244  52.3353720  21.9486403 107.3921680  53.3878088  22.3510456
  86.5761852  64.8686171  30.0933123  85.7033730  65.2212334  29.9198437
  86.4259434  63.9444685  30.2923322  91.3664913 100.8494091  35.1254010
  91.4860058 100.8389568  34.1757488  91.4824581  99.9372673  35.3914499
  87.1852303 101.3134861   0.7445803  87.7817345 101.7590237   0.1429890
  87.4558830 101.6098976   1.6135558  87.5015545  74.7091627  26.7816877
  87.7386570  74.2269278  27.5738144  86.7892361  75.2863264  27.0568490
  63.4389496  59.7272635  35.5062032  63.7524986  59.7741270  36.4093781
  62.6421452  60.2576494  35.5014610   1.0662590  99.8243332   7.1812755
   1.6932713  99.7528934   6.4615583   1.1744725 100.7184887   7.5053263
  32.7228047  30.9799311  81.6872268  32.2708536  31.3715193  80.9398101
  33.4790398  31.5480063  81.8343078  80.9468079  73.9792776  39.8616791
  81.4067459  74.7723055  40.1369810  81.4269352  73.6797094  39.0896916
  82.7336693  53.2751083  13.4721720  82.0741081  53.6285543  14.0690708
  82.7068424  53.8579369  12.7133393  13.8878857  82.0589924  26.1120534
  13.5720383  82.8252506  25.6331825  13.6628662  81.3165951  25.5512905
  72.9034901  69.7420835  25.7073998  73.3921480  69.2416763  26.3608766
  72.0747709  69.9527645  26.1376023  60.9870793  16.9773838  84.0565799
  61.9337536  17.1015713  84.1245835  60.8778645  16.0354826  83.9256846
  98.2991028  66.5189552   6.9680816  98.1519890  66.7535496   7.8843534
  98.0861568  65.5868626   6.9223267  30.1286007  24.5451424  71.1302273
  30.5837179  24.0796539  70.4285018  30.7711102  25.1758215  71.4552860
  78.1634521  74.4533920  14.3673170  78.0772066  74.8218584  15.2465355
  78.4742451  75.1829863  13.8312864  48.6216691  99.9151286  85.9219341
  48.6784699  99.3875130  85.1253008  47.8555920  99.5722922  86.3821636
  70.1869345  39.8776460  16.3176382  70.1593828  39.6684861  17.2513008
  69.6708393  40.6797075  16.2365365  44.8306729  36.8057940  89.0295559
  45.3068043  36.4910433  88.2611369  44.1120030  37.3256228  88.6696783
  32.3013258  25.3816414  21.7367435  31.9340038  26.2553549  21.6028357
  31.5384579  24.8050547  21.7793560  90.5475616  78.8674164  28.5834289
  90.4040051  79.4629574  27.8479314  91.4803314  78.9515162  28.7811661
 104.3680286 102.4376392  22.4619150 104.6863174 103.2755184  22.7978802
 103.5567760 102.2787189  22.9444599  60.5192995  65.2966118  25.4856515
  60.9689045  65.6049299  24.6988654  61.1667061  64.7521973  25.9336567
  95.9137264  92.7987679  75.4635410  95.8817259  92.7820834  74.5070212
  95.0986544  93.2283887  75.7229953  37.1807053  90.6812175  87.5987609
  36.4845898  90.2422556  88.0876129  36.9496109  90.5464467  86.6797035
  88.8904667  84.1062069  21.9069695  89.4946861  83.3835888  21.7367482
  89.4562817  84.8400784  22.1467996  91.9628048  67.2535133  17.7804947
  91.4287376  67.9219389  17.3512924  91.3420868  66.5619135  18.0099320
  81.7933178  47.3660278  10.6883168  81.1021042  46.7394590  10.4741442
  82.0102501  47.1803331  11.6019309  88.5445690  78.7810040  18.1577384
  88.5175800  78.4559441  19.0576494  88.9719200  79.6349239  18.2242405
  45.7475449   6.2131331  84.0649723  46.6634251   6.1766216  84.3407501
  45.4891754   5.2963326  83.9703278 104.1942406  90.1585388  23.6173105
 103.9678860  89.9100399  24.5135474 104.3021297  89.3257809  23.1578517
   1.5264832  80.8423901   6.9360554   0.8867108  80.6103802   7.6091772
   1.2432705  80.3592873   6.1597610  70.5193758  90.5827236  23.7207294
  70.5269337  91.2503147  23.0348015  71.3364315  90.7220078  24.1995311
  82.3026562  83.8834667  27.9672647  82.1762180  84.6776009  27.4480367
  83.0496788  83.4463882  27.5584078  83.3349491  11.3740799  67.1558373
  82.6673294  10.8930752  67.6448648  83.4309841  12.1998283  67.6303308
   1.8759667  56.9925022  47.6567793   1.3266312  56.2371778  47.4471426
   2.7592884  56.6320372  47.7344513  64.9052906  96.0323620  12.0791197
  64.0369558  95.6649017  11.9141757  65.0430059  95.9092426  13.0183256
  94.9229790  67.5481245  83.3991032  94.5550801  68.4303400  83.3483087
  94.7129513  67.2516558  84.2846705   5.0729977  64.1763592  26.4407110
   5.1430165  63.9623880  27.3710561   5.7595288  64.8266268  26.2921715
  75.6715631  68.5674047  14.6496093  75.2064276  67.8640509  15.1025724
  76.3350916  68.1176519  14.1264665  44.6375347   3.8379118  85.8157920
  45.2484871   4.0501902  86.5214150  43.9830853   4.5357105  85.8476074
   2.5566326  94.5434093   1.5254940   3.0340039  95.2900028   1.8873468
   3.2367550  93.9038277   1.3143057  99.0029335  67.3392773   0.5154596
  99.3079376  67.7396870   1.3296311  99.7831726  66.9275188   0.1440865
  75.2967262  73.7377167  49.6951532  74.7676468  72.9406691  49.7271252
  75.5828762  73.8716507  50.5987120  72.4529457  76.8350315  19.5091343
  73.2008123  76.7279005  20.0968790  72.4122953  76.0127163  19.0208983
  82.5051880  58.1395912  40.1328182  82.8864861  58.7082672  40.8017397
  82.9471302  58.3932543  39.3225265  61.8879318  67.6712656  17.3978758
  61.8426752  66.7151403  17.4003398  61.6509533  67.9245615  18.2900167
 103.5904694  98.4814644  15.3986311 103.6040497  98.6600399  16.3389277
 103.4113693  99.3312073  14.9960256  79.5603132  84.9879074  15.4843366
  79.7523022  85.2362823  14.5800793  79.4441605  85.8205795  15.9419250
  78.6334801  64.7086620  22.5875926  79.5788240  64.8588181  22.5841117
  78.4091330  64.6157455  23.5134792  45.2554394  18.0415651  84.0261482
  45.8973671  18.7200043  83.8166575  45.2324272  17.4850437  83.2476984
  58.0456781  60.6205654  35.0886965  58.8267756  61.0495520  35.4381013
  57.5993538  61.3049459  34.5900536  85.6062698  84.7388554  38.1632710
  85.8160019  84.0103626  38.7476850  85.0494194  85.3141117  38.6878967
  92.5684929  99.3071842  56.0289907  92.6844311  99.5084572  56.9575787
  93.2104778  98.6198902  55.8509159  87.5847721  55.9557104  65.1346970
  88.2626152  55.5313873  65.6607294  88.0688381  56.5060186  64.5190096
 109.4536495  75.5776072  18.5772204 108.4976101  75.6073427  18.6136830
 109.7371864  76.3058090  19.1299999 102.3956776  98.0593109  27.6307416
 103.0976772  97.5358009  27.2442698 102.8494549  98.7131977  28.1624770
   8.3464562  87.0577812  13.6090910   8.8379990  87.8277588  13.3231926
   7.4990021  87.4045849  13.8879716  34.7137795   6.5837110  12.0862424
  34.9485455   6.8593706  12.9723155  35.2124844   5.7788480  11.9457698
 102.1004391  78.6485624  44.0265322 102.1083164  78.7977934  43.0810690
 102.4966431  79.4373226  44.3968153  79.3192552   2.8646673  46.9189787
  79.3977283   3.8069643  46.7701292  78.4068369   2.6643671  46.7101765
 101.5032959 101.8410873   3.2212558 101.9857025 101.0393429   3.0194661
 101.0135651 101.6321659   4.0167114  14.1558300  67.6208591  24.3718648
  14.0317284  68.0794382  25.2028489  13.7047612  68.1664085  23.7275481
   0.5021907  91.3772594  28.4615922   0.8022000  90.8723318  27.7057672
  -0.1323174  91.9959044  28.0997777  63.6682463   2.9347986  16.3582230
  64.3000317   3.1756625  15.6806779  62.8144264   3.1113988  15.9632158
  87.9100100  74.0210637  78.9224987  88.6780516  74.4773015  79.2662881
  88.2698551  73.2794889  78.4358661  85.0524727  68.7246677  83.5747664
  84.4812838  69.4917616  83.5355382  84.5278040  68.0577739  84.0177189
   1.5002444  85.7206186  75.8494239   0.7221272  86.2614664  75.7143502
   1.8602993  85.5954536  74.9713998  39.0716386  12.8251231  22.2195864
  38.6276078  12.4914014  22.9991341  38.4144211  13.3672261  21.7832112
  52.8440809  19.1495609  29.3030667  52.4456549  19.6623814  28.5998559
  53.5392904  18.6521041  28.8724232  57.6345921  30.9669828  21.6515064
  57.5098896  31.7028832  21.0522318  58.2961464  30.4212904  21.2263036
  59.6112061  14.4772649  40.1197958  59.0515280  13.7092507  40.2344418
  60.4185104  14.2568254  40.5844498  85.0223986  52.5079970  83.1772761
  84.6945349  51.7220089  83.6142658  85.9390036  52.5671085  83.4466677
  27.2842480  93.9404052  14.9445140  28.0774857  94.1473286  15.4386687
  26.6085602  93.8265466  15.6128836  60.2484035  40.1049757  15.1514423
  59.3191004  40.1266479  15.3798258  60.4186201  40.9612513  14.7589529
  58.7123203   8.5941428  16.2548292  59.3720579   8.3583361  16.9070363
  57.9244089   8.1260496  16.5310836  81.9958607  67.6508173  76.0299008
  81.2360779  67.4131580  76.5613859  81.8600432  68.5741659  75.8172660
  59.9855614  32.1858168  18.7195861  59.4815111  32.6813579  18.0741358
  60.7101727  32.7656341  18.9540637  63.6003637  31.0214686   1.1019799
  64.0208626  30.7149863   1.9053979  63.3908701  31.9390488   1.2763026
 105.3339005  50.3516817   5.2542335 104.8276329  50.2094126   6.0540342
 105.6656551  49.4840336   5.0232476  -0.0553987  58.6573400  75.3781431
  -0.3229234  59.5178362  75.7009547   0.8459618  58.7825038  75.0812964
  20.2868512  26.5973314  85.6938224  20.3897717  26.8208274  84.7687881
  20.0021603  25.6834563  85.6891878  95.1887289  41.5853348  89.1785702
  95.7667986  40.8229812  89.2083148  95.6890026  42.2467550  88.7005731
  91.7309189  86.0755444  16.4839089  91.7907143  86.9404125  16.8896854
  90.8337402  85.7908630  16.6578853  97.1554152  65.1098188  85.0356315
  97.1037403  64.1570588  84.9594121  96.2535778  65.3863486  85.1982780
  62.8653193  65.6498146  29.3819714  62.6664829  64.7140455  29.4140100
  63.6249876  65.7135773  28.8031197   3.7413504  75.4011282  81.7988722
   2.7853205  75.4476961  81.7904519   3.9627793  74.8838457  81.0245203
  95.8719031  83.4669336  65.0243108  95.0964180  83.7718280  64.5532553
  95.5494658  83.2440790  65.8975808  63.9840412  46.6746473  23.9436603
  63.6012220  46.4810467  23.0879712  64.9148130  46.4768076  23.8399386
   0.3678929  31.1159539  12.9465771   0.0061737  31.9451070  12.6336992
   0.9516369  30.8291101  12.2442937  44.8292065  52.5885963  27.3661184
  45.6332779  52.1370840  27.1095324  44.3477917  52.7045536  26.5469551
  72.3108912  46.7935038  24.8251176  72.9062080  47.3384047  24.3104196
  72.3412657  47.1702480  25.7045341  74.3667459  50.2808285  19.6082556
  74.9107409  50.1205826  18.8371408  74.5335340  51.1961937  19.8330092
  65.1331949   4.5113501  29.6337748  65.1511812   4.2886350  28.7030196
  64.2381907   4.3141091  29.9099946  59.5700216   9.1329402   6.5417236
  59.9648333   9.0589482   5.6728846  60.1076746   9.7826165   6.9945824
  50.7709455  43.5941982  27.2322559  50.2281523  42.8344250  27.0216680
  50.1938677  44.1687870  27.7353096  40.7212877  39.7330356  37.5063205
  40.5764818  39.0408921  36.8611860  41.5651035  40.1141071  37.2634459
  90.7480717  42.3589563   8.2275313  89.9510574  42.0061541   7.8318822
  90.4401779  43.0595922   8.8024563  42.4185921  21.1722586  67.1666376
  41.7779804  21.8597910  66.9845550  43.1296374  21.6221735  67.6229493
  66.9867849  25.7723999  21.6829348  67.1563768  26.7139339  21.6515183
  67.6678848  25.4254436  22.2590899  40.8287764  14.8971760  21.3643479
  40.0450563  15.3151476  21.7211628  40.9623814  14.1272581  21.9171667
  32.7606417 101.6678952  23.8315701  33.6119200 101.9410191  23.4895849
  32.3220230 101.2604140  23.0847049  89.8580471  67.8976103  74.8064296
  90.2924982  67.0468529  74.7455995  90.1668898  68.3796521  74.0393023
  30.6095195  31.2325096  37.5851774  31.5061498  31.5603328  37.5157619
  30.1864576  31.8223977  38.2091022  73.5081879  65.8151647  83.9041434
  73.5552612  66.5000208  84.5712169  73.6417381  65.0000568  84.3878748
  12.2413113  49.1599638  65.8376210  12.7474358  48.3862602  66.0855048
  12.1952107  49.6826225  66.6382043  66.7269278  18.6495316   8.8890404
  66.9649696  18.0761385   8.1604874  67.5511265  19.0609014   9.1492492
  20.9421589  76.6616949  82.2891502  20.9607937  76.6721424  83.2461117
  21.5484478  77.3556646  82.0301990  68.5753059  10.6655669  15.5730295
  67.6984358  10.3575575  15.8020830  69.1275930   9.8865455  15.6388545
 108.7306324  59.3816432  68.9597194 108.6018196  58.5767951  68.4578650
 109.5117489  59.2129334  69.4866245  77.9908625  67.1606430  73.4610920
  78.6333624  67.7574929  73.0774336  77.2435824  67.7189597  73.6757796
  66.0997057  11.8925989  13.4183049  66.5538120  12.1633840  12.6203740
  65.2278376  12.2800159  13.3409131  14.0390946  92.1834432  10.3511214
  14.5634104  92.9692887  10.1969457  13.1385494  92.4589371  10.1797855
  42.6819063   4.8977015  69.9913411  42.0118738   5.2127621  70.5979948
  42.2226216   4.7991869  69.1573255   4.6207335  69.6042892  56.0928171
   5.3894999  70.1730546  56.1344569   4.5716383  69.3347093  55.1756756
  23.4584690  99.3381687  -0.0049872  23.3210303  99.5614149   0.9156122
  24.1879631  98.7185182   0.0051535 108.6989847  76.9908627  67.9416578
 107.8492085  76.5568431  67.8658669 109.0958420  76.8932184  67.0760934
  54.2618847  31.5137768   5.9769863  54.2515326  32.4681973   5.9048593
  53.4859085  31.2286878   5.4944754 104.5533529  73.1852897  88.0752468
 104.8793427  72.2857722  88.1040238 105.2888409  73.6958750  87.7367322
 103.2767979  79.6730002  78.2521372 103.0896536  78.8450297  78.6944871
 104.1592184  79.9050292  78.5414832  53.3907032  31.3462806  41.8728399
  53.9410019  30.9333372  41.2073421  53.9838409  31.5103626  42.6059818
  78.6571932  21.0454369  60.5505276  78.7301302  21.3255405  59.6381378
  79.4728088  20.5748940  60.7225513  95.3905216  88.5688194  78.7547378
  95.4748980  88.2551797  77.8543250  95.6409947  89.4916495  78.7113802
  78.7533728  56.5360304  72.2818177  79.4514910  56.5983423  72.9337220
  79.2117897  56.4059963  71.4516513 105.0348965  87.7741941  57.5823204
 104.2848412  88.2890376  57.2846930 105.4707733  88.3348998  58.2240789
  75.6567844  98.1083216  22.2213459  75.6410941  98.9658724  22.6463079
  75.6563615  97.4821871  22.9453540   3.2649853 102.1831759  76.4694660
   2.5944426 102.5973662  77.0126526   3.6306670 102.9005107  75.9518378
  51.5866804  50.1142645   7.3713034  52.4264193  49.7970581   7.0389575
  51.0056734  49.3554831   7.3173118  65.6606102  73.9901543  19.9953699
  66.2242317  73.5974932  19.3287528  65.5159092  74.8855591  19.6895158
  74.3975019  10.3435791  49.1024685  74.0449524   9.9225199  49.8864651
  74.8929882  11.0920763  49.4348526  45.1213551  50.5920410  15.2262354
  44.2340708  50.7055807  14.8855448  45.6901264  50.8988619  14.5201230
  34.4753313  35.1962233   4.0528864  34.5458150  36.0666633   3.6609706
  33.6065078  34.8874736   3.7958840  57.5250196  40.4172707   3.7820899
  58.1251431  39.6952724   3.5955411  57.2043943  40.6903934   2.9225349
  74.5301723  39.6764684  12.1711349  73.5763073  39.7561860  12.1761811
  74.6969080  38.8206506  11.7761576  88.8843504  48.3248191  53.5750406
  88.0324713  48.0148079  53.8823311  88.9087549  48.0802815  52.6499240
  86.8050480  15.3412068   9.8523021  87.3639870  14.8524880  10.4564297
  86.6512012  14.7367835   9.1261929  36.1749220  18.6079288  24.1892600
  36.4698291  19.4869542  23.9514017  36.7372751  18.3567202  24.9219847
  53.0801773  11.3107753  22.9574776  53.6238337  11.8921125  22.4257636
  52.8076220  11.8502033  23.6997461  10.1997235  69.5020505  85.5073093
   9.7875550  69.6128615  84.6505334   9.7771122  68.7273165  85.8780052
   1.3022267  28.3341336   4.9002191   1.5822064  27.5507450   5.3736556
   0.9202229  28.8971543   5.5735046  48.1020927  27.5339794  22.6960945
  47.3076773  28.0330682  22.8859544  48.6461782  27.6440144  23.4758973
 101.8461338 100.3620490  78.3081679 102.5092856 100.9398421  78.6858146
 101.8957916 100.5240210  77.3660796  83.2727242  10.8515978   6.0693717
  83.2620144  10.2684224   6.8283337  83.0766487  11.7166400   6.4292198
  73.7258101  44.5959139  25.0525713  73.2589054  45.2143669  24.4906569
  74.2394447  45.1483631  25.6418180  53.2758045  20.8383822   9.2678714
  53.4388828  21.3393378   8.4686965  52.8771639  21.4683318   9.8682743
  54.1267395  48.5160398  20.4868078  54.5326471  49.3210459  20.8084321
  54.3707752  48.4776735  19.5620334  37.1735263  21.1186624  25.2104259
  36.8797612  21.0607886  26.1195922  37.9797220  21.6330481  25.2514958
  87.0898262  39.4598111  85.9677439  87.0990006  40.3734084  86.2532039
  87.0344130  38.9557584  86.7795889  18.9676167   2.7335188  83.2470362
  19.2302824   3.6472342  83.1358455  19.1061379   2.5560019  84.1773753
  13.1666876   4.5699904  70.3490035  12.2708155   4.8453400  70.1545088
  13.5855747   4.4946453  69.4916301  30.1351502  88.1873950  84.2603602
  29.2992070  88.4923133  83.9075808  30.6677105  88.9794501  84.3328782
  84.0404764  91.0564836  74.9921076  83.0979220  91.0731419  75.1580827
  84.1262499  91.3083275  74.0726249  64.2604733  34.1782022  17.3258173
  64.2572260  33.2346511  17.1647811  64.4619846  34.5658422  16.4741361
  64.5368814  16.0826957   8.1832707  65.1839352  16.5294373   7.6373976
  65.0435400  15.7288766   8.9142597 106.2191214   0.9643051  74.1817026
 106.9511905   0.4694674  74.5497267 106.5539446   1.8565867  74.0924756
  91.0671583  63.2376476  70.7618301  90.3090683  63.1680115  71.3420741
  91.7129532  62.6400491  71.1387329  17.0539429  46.5380567  68.8867371
  17.4336770  47.4143031  68.8217203  17.8002980  45.9663131  69.0664737
 103.7909428  43.2099815  49.9407594 103.2028023  42.6805612  50.4793088
 103.4715525  43.0883195  49.0466587 101.6595211  92.9655086   2.6903564
 101.5951123  93.3679294   3.5564628 102.2270336  93.5551523   2.1938893
  55.3171015  10.2167988  60.7959509  56.2583542  10.0464296  60.8312988
  54.9131727   9.3626386  60.9491920  81.6188589  30.6949504  55.4490774
  81.6213957  30.2886232  56.3157503  81.4869753  31.6271242  55.6219690
  61.3894415  49.9903488  27.9538846  62.1249437  49.3837643  28.0394530
  61.6704178  50.7753277  28.4240890  50.1444603  13.3075640  78.1071071
  49.5625473  12.5640270  77.9497509  50.4212166  13.5841820  77.2335379
  87.5970284  55.6819247  55.4807465  86.8874518  56.3240578  55.4608052
  88.3648029  56.1819115  55.7578175  83.1077543 101.1240920  72.6359336
  82.2515646 101.4163455  72.9485993  83.6441151 101.9168814  72.6303880
  39.4899440  33.0672479   5.9443349  39.2602849  32.4432731   6.6329151
  38.6566114  33.2749677   5.5216777 105.4140186  32.5071383  36.7592740
 104.4634438  32.5881219  36.6812706 105.5877686  32.6161551  37.6942372
  71.6595173  21.1406159  24.1844034  71.9551706  21.5454507  23.3689713
  70.7043600  21.1865258  24.1420317  56.0391022  92.9006170   8.8323694
  55.3131748  92.7647399   8.2234317  56.1581875  93.8501089   8.8550252
  26.5971234  41.0920497  79.5774363  27.1057465  41.7673995  80.0262539
  25.9151509  40.8498474  80.2039217  92.0066738  19.0086854  19.8465419
  92.4693775  19.2620695  19.0478373  91.1249352  18.7820685  19.5508766
 103.2512013  79.9064168  82.6770197 103.9125220  80.4778250  83.0673759
 103.7456814  79.3328293  82.0916020  34.9022174  49.6949530  20.3262901
  34.4770098  49.3076611  21.0914278  34.2801571  49.5582104  19.6117449
  81.5856647   5.5345112  66.0089064  81.7069435   6.3992900  65.6168842
  80.8371735   5.1628000  65.5422020  41.1944771  41.0279989  14.4806230
  41.1132193  40.8667374  13.5406113  41.2807941  40.1563311  14.8665917
  41.5206982  94.2959421  12.3919940  41.7117048  94.7349023  11.5631020
  40.6161953  93.9961236  12.3013735  33.3360341  73.6876758  71.1425989
  33.0682709  72.9885563  71.7390625  34.1897347  73.4072503  70.8127789
  81.1979834  64.2487773  88.0194096  80.5774418  64.1663130  88.7435384
  81.9941488  63.8224062  88.3365227  76.2067604  12.7900577   5.5264014
  75.5965996  12.5814092   6.2337905  76.1184168  13.7354016   5.4049385
  79.4313542  72.5231036  66.8710058  79.4389692  72.1366509  65.9953182
  78.5152546  72.4779376  67.1447770  67.9472017  16.5952837  22.1534896
  68.8965797  16.6524231  22.0455670  67.6014757  17.3050857  21.6122985
   8.5793091  99.0040903  58.3217812   8.2958866  99.5767390  59.0345049
   8.5815455  99.5677360  57.5481319  44.9478102  47.9419518  16.8263721
  44.8608732  48.5498762  16.0921371  45.1775646  48.4973955  17.5713050
  72.4466801  30.5443668  13.0781555  71.8256283  30.9095597  13.7083650
  71.9657564  30.5265880  12.2507358  32.9597044  45.5708265  11.3977635
  33.5359645  46.1428213  11.9046879  32.1180558  45.6158638  11.8514514
   3.8225415  78.3147987  82.0898061   3.7433674  77.3981651  82.3538964
   3.0318406  78.4857997  81.5781580  52.1553208 100.9923126  31.4342141
  52.3425747 100.1168661  31.0954523  51.5946556 101.3916503  30.7690692
  85.1483074  71.0560247  65.9456293  85.7777802  70.6531044  65.3475897
  84.2947785  70.7571169  65.6319826 105.6962792  68.4012552  81.8213152
 105.9386793  69.0508851  81.1614250 104.7567478  68.5305651  81.9509153
  51.2080908  18.4722376  22.8904605  50.4007292  18.6055243  22.3938370
  50.9137201  18.1685591  23.7491560  72.6249734  87.0112761  44.9618237
  72.9087249  86.1568221  45.2868264  71.8049399  87.1832999  45.4246228
  64.2728519  19.5162523  53.3159399  63.5946083  18.8408160  53.3169079
  63.8813543  20.2481222  52.8391504  57.1520758   3.4625638  56.4683914
  57.7082205   3.0274001  55.8222008  57.4530983   3.1227511  57.3110914
  58.5087267  89.9954208  68.3246105  58.3002678  89.2606648  68.9015953
  59.2792455  89.7054013  67.8363268  71.4199806  98.8944339  48.7386703
  70.9169842  98.6427175  49.5131779  72.1829487  99.3550568  49.0878677
   2.6632454  72.1105703  71.6720514   1.8486836  72.4535450  71.3045041
   3.0910685  71.6708263  70.9373240  73.8410091  63.4022570  19.1786361
  73.6791277  62.7954102  18.4563065  74.7581625  63.2580900  19.4116020
 106.3161722  95.0260218  73.0989449 106.5693060  94.6023425  73.9190965
 106.4456621  94.3523224  72.4314182  62.2295189  21.9940066   3.5530132
  62.5492811  22.3647356   2.7304903  62.7868557  22.3861885   4.2251757
   3.1873229 101.5166434  66.6504733   2.9627278 102.4376210  66.7831175
   3.8826802 101.3457974  67.2857063  57.6324129  54.3925238  21.5729427
  57.5941992  55.2384663  22.0192099  58.3419657  53.9225006  22.0109391
   1.9996598  92.9615983  72.7018051   1.3263323  92.9100331  73.3801918
   1.8994048  93.8383444  72.3309927  31.4501549  42.3091147  83.2186119
  31.3167597  42.6582071  82.3373781  30.6068445  41.9215986  83.4529142
  85.6673495  77.1680125  78.9127831  86.4792601  77.2547587  78.4132771
  85.4810492  76.2291416  78.9058916  93.0082607  58.2964897  13.0928195
  92.5823212  58.5047102  13.9243519  92.6352024  58.9201593  12.4698448
  81.0486794  67.4526024  11.0125661  80.1005077  67.3305035  11.0603464
  81.1626911  68.2322359  10.4690576 107.6872698  62.1190544  79.7350077
 107.6067415  62.9085680  79.1998302 106.9592396  61.5644082  79.4547026
  36.1021830   1.3565847  88.0039847  35.1928927   1.2770674  87.7157162
  36.2118222   2.2877762  88.1965771  29.0954043  18.1063006  80.3692703
  28.3487488  17.7064392  80.8151899  28.7048651  18.6226151  79.6641945
  36.8628527  17.8419087  82.8517895  36.5377070  18.2492897  82.0489477
  37.8113581  17.9655573  82.8159510  15.3069737  76.0305103  78.0479269
  15.4755070  75.1936945  78.4810190  16.0470917  76.5833076  78.2986669
  20.3827311  95.9643923   1.9898504  19.9060131  95.4040276   1.3775060
  21.3056017  95.8008014   1.7954881  80.5073738  52.0853472  21.0700631
  80.8109093  52.8848124  20.6400084  79.9275208  51.6739702  20.4291511
  72.2687101  77.3789263   4.7564173  73.1443024  77.7291393   4.9204946
  72.2181606  76.5946627   5.3028619  21.9635727  72.1572837  87.2137763
  21.5165951  71.6308888  87.8766093  21.9863369  73.0396875  87.5840169
  83.3525959  27.4707135  78.4037297  83.7445227  28.0014356  79.0972416
  83.5759464  27.9309686  77.5947111  43.7513424   1.3485262  80.1010780
  43.0130936   1.8806097  79.8042493  43.9742638   0.8052561  79.3451707
  85.3946877  60.9936810  14.4825935  85.4690361  61.9435596  14.3907499
  84.9511242  60.7097530  13.6833024  84.0612411  32.2401404  31.0078406
  83.4997463  33.0011535  30.8601475  83.5554790  31.6799927  31.5966320
  32.2216847  90.8915480  79.6200966  32.9314282  91.1380204  80.2131860
  31.4651253  90.7631858  80.1922535 104.4356632  44.7091341   8.8079304
 104.0022278  44.5082140   9.6373862 105.3687191  44.6032476   8.9934564
  31.2139275 100.1427230  62.8829901  31.1944344  99.7970637  61.9905941
  30.7111886 100.9559067  62.8359001  74.0888453  27.5338197  26.8149281
  74.5885229  26.9836569  26.2117076  74.2566109  28.4282660  26.5181899
  77.3346901  14.1871560  11.1599708  78.0093527  13.5160220  11.2631202
  76.6359138  13.7513268  10.6721270  27.0126584  89.2699298  77.3926835
  26.4494660  88.5947784  77.7711158  27.5521805  89.5695599  78.1243698
 101.3104359  95.9597453  86.3481225 101.5750662  96.6833600  85.7801567
 100.3538672  95.9944543  86.3503064  38.3400872  80.5571874  84.0136485
  39.0733197  80.8969148  84.5266651  38.7170937  80.3652581  83.1550114
  84.9529266  36.8752313  19.0287328  84.1300392  36.4175367  19.2007756
  85.2704430  37.1308184  19.8948097 103.3646456  95.7528123  78.2336955
 102.7482239  96.4844187  78.2019739 104.1247049  96.0583790  77.7385478
  43.7100674  41.5291330  67.2849457  44.2206932  42.3384497  67.3071854
  43.4785391  41.4172670  66.3629286  66.3389015  17.2122335   1.8290418
  66.8808317  16.8705285   1.1178568  65.5746603  17.5853479   1.3897784
  88.0394936  16.2553561   6.4479738  87.1298885  16.4039779   6.7063552
  88.2853603  15.4442239   6.8927747  61.1271286  46.3619947  22.8966284
  61.1098289  45.7415009  23.6252689  60.5771875  47.0891762  23.1881833
  53.9678001  76.7568636  26.9753695  54.4431639  76.3919067  26.2290001
  54.2619705  77.6663828  27.0251560 100.0203386  85.1515158  89.0348442
  99.2601219  84.6513232  88.7380120 100.0060621  85.9472045  88.5029518
  97.9710118  91.2538417  87.7410880  97.2396008  90.8742365  87.2540875
  98.5624376  91.5851887  87.0653252  71.9182444  40.2869701  12.5371504
  71.3176346  39.6554565  12.9329932  71.4512587  40.6115198  11.7672014
   0.8736073  28.6883569  10.4059911   1.2517678  27.9270577  10.8460462
   1.5383755  28.9519215   9.7697091  76.2558413  73.7518358  20.5706286
  77.0647478  73.7622023  21.0822821  76.5200043  73.4224606  19.7115839
  49.4659424  51.5745258  13.5662591  50.3056145  52.0310831  13.5139012
  49.6906471  50.6933784  13.8651097  98.9969803   5.4674551  64.9580853
  98.8725258   6.3761875  64.6843188  98.8153340   5.4734108  65.8978717
  33.3537127  13.3698198  72.0211654  34.2839838  13.1525251  72.0812194
  33.2799746  13.8876507  71.2195151  58.2188511  19.7144330  15.9348202
  57.3720026  19.7858465  16.3752520  58.1411505  20.2873755  15.1719773
  55.5268812  40.6076050  13.0227900  56.4406013  40.8248854  12.8380287
  55.5412769  40.2451944  13.9086127  72.9177713  60.3293800  14.2561173
  72.4768591  61.1729717  14.1552317  72.6615715  59.8309088  13.4801543
  71.5927601  45.3695154   5.8621418  72.1779871  46.0852814   5.6143105
  70.7658911  45.5740881   5.4254860  57.8550291  24.0148139  20.5594993
  57.4038696  23.3442783  21.0724092  57.6066017  23.8309050  19.6535778
   5.8404877 100.9030636  78.8031988   4.9050047 100.7004651  78.8108544
   6.2650397 100.0670632  78.6106233 103.6327267  41.2476158   2.9999903
 102.8733730  41.6312551   2.5613111 103.7767124  40.4168606   2.5468400
  13.2466462  81.9534763  88.7942306  12.3003342  81.8334421  88.7147227
  13.3508828  82.8682860  89.0559390  31.9468285   3.6607811  78.4734075
  32.2946955   3.3896277  79.3229346  32.3420454   3.0535338  77.8478806
  79.3409458  83.9862951  54.3990128  80.0669542  84.4817861  54.7780006
  79.3257109  84.2496999  53.4788935  64.5719528  22.8643560  11.6325450
  64.6218109  23.6773443  12.1353304  63.6594105  22.5873828  11.7149150
  18.8077881 102.6543196  83.2409869  18.6617329 102.6677378  82.2950904
  18.1503251 103.2541474  83.5933875  22.2523358  56.7151668  68.3251994
  23.1745007  56.9651558  68.3830564  22.0949414  56.1961453  69.1139166
  56.9684006  16.7056772  75.9975152  56.6207863  17.5302717  75.6577556
  57.4080826  16.3041899  75.2480333  60.5487204  55.0580788   4.0969664
  60.3842831  55.0179005   3.1548527  61.3814068  55.5236483   4.1751209
   2.5878384  36.2713953  66.3046687   2.2838547  35.4955264  66.7756812
   3.3826640  36.5364584  66.7675178  24.5517209  85.7426103  72.5132124
  24.3663933  85.7661303  73.4520058  25.4312947  86.1116847  72.4333958
  11.6314366  86.1460193  89.0953398  11.5244343  87.0442518  89.4083338
  10.7393506  85.8441957  88.9240932   3.7837174  69.9439105  88.1028208
   4.5333340  69.6831246  87.5677467   3.9892914  70.8352109  88.3848757
  49.3780209  35.0441668  67.4429695  50.2650906  35.3702471  67.5946967
  49.4582344  34.4811174  66.6730516  90.3080177  32.2973371  13.6148334
  91.1159134  32.7768803  13.7980568  90.5814648  31.3820934  13.5532856
  87.4778938  32.2113681  13.7379658  87.0834827  31.7625046  14.4857585
  88.3696175  32.4120736  14.0221810  70.6707859  27.8824282   6.2268174
  70.5863905  27.9716849   7.1761024  70.3503323  27.0000672   6.0397840
  68.1693029  62.4162817  14.4031858  68.4346247  61.8897152  13.6491537
  67.8216600  61.7806673  15.0287783  94.1191196  54.7902203  20.7939219
  94.7226429  55.3945589  21.2260866  93.9885426  55.1643562  19.9225986
   5.0423911  85.5300006  79.6433978   5.8244040  85.1615485  80.0544141
   4.7446158  84.8482832  79.0410488  76.4526367  22.6484704  29.5913267
  75.5292892  22.8995824  29.6159983  76.8287468  23.0410600  30.3791380
  81.8271542   3.0162194  14.0249228  81.2746048   3.5156220  13.4236550
  82.2450256   2.3550941  13.4730840  90.5428123  55.9125900  20.5400300
  90.7693863  56.6600609  21.0933638  91.3710690  55.6540251  20.1358366
  80.1866817  64.9959469   0.8288803  79.8073006  65.0107574  -0.0498006
  81.0897827  65.2879143   0.7047910  93.2566166  67.9933548   0.5305036
  92.6698399  68.7153912   0.3055944  93.7568188  68.3158493   1.2801895
  92.4214077  55.4683733  12.8958011  93.1764889  56.0522175  12.9680037
  91.6908360  56.0474110  12.6785111  71.3058186  26.7715621   2.8052312
  70.7899904  25.9667945   2.7552375  72.2127199  26.4811802   2.7080590
  13.0556347  90.3841408  54.7796957  12.2556355  89.8840555  54.9414222
  13.7221196  89.7197755  54.6046321  42.5986506  11.5714142  68.3787649
  42.3032452  12.4022028  68.0062621  41.7921520  11.1218187  68.6310737
  65.6517696  67.9664898  42.5370121  66.1131287  68.7067556  42.1428204
  66.0037899  67.9104471  43.4253645 100.0167910  75.3326043  76.3345020
  99.8898235  76.2170347  76.6778617 100.3610102  74.8348793  77.0761316
  66.3931576  78.7873682  28.5968821  65.6122032  78.5710868  28.0874054
  67.1230737  78.4858163  28.0560295  54.4848301  83.0766305  64.6498768
  54.1385605  82.5083121  63.9618771  55.1476719  83.6088499  64.2098610
  72.3655796  14.9490702   3.4504667  71.8257189  15.7305861   3.5688508
  73.2647514  15.2772593   3.4477821  21.7500260  67.5271567  79.7432749
  21.8900921  66.6174313  79.4805764  21.7152455  68.0119380  78.9186470
  99.6857945  92.0598181  78.0150990  99.7734610  92.8545483  78.5413616
 100.5228916  91.9820603  77.5574427  72.7515411  33.6860037  10.5032861
  72.7427149  34.1222358   9.6513158  73.6004591  33.2451200  10.5378437
  95.7908154  27.4697614   9.3226326  95.6688786  28.4189296   9.3016011
  96.5966702  27.3428440   9.8233557  16.8606999  75.3433283  85.1920618
  16.0437443  75.7581385  85.4691108  16.6087391  74.4495877  84.9597345
  48.5855153  99.3426903  77.4759488  48.8354638  98.4894522  77.8305535
  49.3185761  99.9175509  77.6959174  19.7065197  29.4998169  32.4678445
  19.4598805  30.3564310  32.8165746  18.9650666  29.2416024  31.9203043
   0.1731350  75.0494512  85.9193720  -0.5771730  75.0409921  86.5136780
   0.7046654  75.7885035  86.2151857  56.9625044  22.3078632  26.6392112
  56.2269068  22.5562763  27.1990466  56.9296360  22.9284191  25.9111547
  29.5594002  11.9299957  65.1395695  29.3174721  11.3949892  65.8955257
  29.7394968  12.7955362  65.5064957  54.6259356  12.6868320  16.1870551
  54.9449348  11.9724131  15.6356239  53.7716866  12.3866630  16.4975286
  76.2700033  34.2490578  30.5188823  75.4029512  33.9427948  30.7846928
  76.8719053  33.8236785  31.1296225  70.6734610  52.7864265  11.9397902
  71.2762690  53.2027340  11.3237202  70.8193445  53.2471848  12.7660191
  63.6923122  15.5540168  19.8685658  64.6485996  15.5487776  19.9100864
  63.4904099  15.3072739  18.9660227  11.4852288  77.3867782  75.1906233
  11.4782670  76.4659055  74.9295120  12.0508816  77.8138765  74.5473091
 108.3213869 100.7699021  77.7079980 108.1591860 100.7254609  78.6503069
 107.5809113 101.2672003  77.3606937  99.7830890  11.4154352  28.3894706
 100.1275276  10.7895578  29.0265441 100.2932285  12.2119535  28.5363197
 105.8361149  15.4404843   6.7082727 106.5164661  14.8900545   7.0960629
 105.6455135  16.0948884   7.3803288  73.4148359  91.9187450   1.4068404
  73.6118937  91.2113285   2.0208201  72.6930857  91.5813255   0.8763215
  93.5768795  78.2857227  48.9598656  93.1437588  78.8989162  49.5536947
  92.8818321  77.9905319  48.3716536  79.9453045   0.6310627  77.3932521
  78.9947678   0.7356808  77.3510759  80.0829674  -0.0400904  78.0617099
  86.7076111  39.0586209  13.6385250  87.4633408  39.4289923  14.0945125
  86.7916393  38.1134343  13.7642002   1.2214138  56.4515015  88.5483949
   0.5565598  56.4402019  87.8598671   1.2019160  55.5673816  88.9147061
  30.2419236  90.3194483  81.4893358  30.6898358  90.2663883  82.3336046
  29.9791768  89.4185814  81.3005667  87.5752846  87.0635065  72.3063104
  87.5591484  87.3927458  73.2049601  86.7197291  87.3010834  71.9487910
   4.2689549  40.4766846  31.0853434   5.1173245  40.5421686  31.5237641
   3.8911187  41.3527489  31.1627078  92.9782867  45.1963949   9.6446365
  93.3048248  45.3154612  10.5365050  92.1488667  44.7311306   9.7533655
  71.2896061  47.6572943  18.2287157  70.8835459  48.4261322  18.6290109
  71.9227886  48.0169678  17.6074719  76.9502544  43.7045383  22.1274948
  76.3442278  43.1033850  22.5605941  77.8192425  43.3806944  22.3646092
  88.2315254  21.0529017  21.0360575  88.7467861  20.8239245  20.2625537
  88.8629150  21.4512968  21.6351056  26.5367295  24.5991585  66.3032167
  26.3676192  23.9257786  65.6442802  27.4841381  24.5709488  66.4368288
  72.8779984  56.8195295  30.3920865  73.5330582  56.4627123  30.9919286
  72.3012257  56.0801744  30.1999450 104.9384228  81.1563023  87.8273942
 105.2293936  81.2472328  88.7347527 103.9842907  81.1066731  87.8856702
  94.4549656  61.4492369   1.9653991  95.4058266  61.3460732   1.9272372
  94.1443634  61.1207867   1.1216708  41.5072705 102.4230115  13.7054765
  42.2258784 102.9182467  13.3123159  41.7643906 101.5065723  13.6041892
  65.3464174  41.3039160  28.5758877  65.6753302  41.1127138  27.6975441
  65.1423979  40.4456377  28.9473343  72.6201773  39.7434282   3.1769270
  72.7100849  40.6953001   3.2226562  73.4916878  39.4319963   2.9325730
  56.1562347  20.3032398   9.7084671  55.2448893  20.5747533   9.5991123
  56.6575289  21.1162734   9.6459156  75.0298882   8.5229576   8.4253258
  74.8167229   7.6904374   8.0037796  74.2477274   8.7422276   8.9316636
  62.8510761  64.1790581  26.6758251  62.8263712  63.7466192  27.5294161
  63.7475395  64.0481615  26.3668728  68.6564541  76.1367226   5.3893852
  69.1988468  76.8931723   5.6126052  68.6835861  76.0962868   4.4334245
  52.6329851  11.1761916  13.1564391  52.6832390  12.1195030  13.0019391
  51.9419003  10.8734894  12.5673676  91.5697972  14.6108612  63.5949724
  91.2778393  13.8769468  63.0542676  92.2776047  14.2488965  64.1280954
  48.2219648  54.1928673  28.3663464  48.6895037  53.3974361  28.6211634
  48.2354116  54.7404623  29.1513228 108.7500778  85.4830106  70.3785448
 108.5152689  85.6471547  71.2918656 108.1567351  84.7853001  70.1003783
  65.0270462  65.2789593  21.5136266  65.8536577  65.6478834  21.2024355
  64.8726892  64.5241880  20.9455395 108.3008019  84.4492754  86.6627143
 108.9990631  83.8370212  86.8946773 108.6194006  85.3006610  86.9624932
  94.6459547  91.4754399  68.2592075  94.4573466  91.3862737  69.1933958
  95.1692978  90.7029351  68.0457203   9.1656720  63.6572933  14.1409695
   9.2015683  62.7378893  14.4048631   9.9554669  64.0455437  14.5174313
  91.6491604  44.0812969  26.5075660  91.7872715  44.5590019  25.6896687
  91.8781471  44.7088766  27.1930861   7.0306590  91.9356354  76.0084717
   7.9809906  91.9083079  75.8973186   6.7058041  92.3267468  75.1974635
  94.5249859  53.4645302  63.7137358  95.1371590  53.7483183  64.3926613
  94.8250548  53.9078104  62.9202025  26.2305475  93.8149034  33.4789252
  26.0073639  92.8956162  33.3328772  27.1350647  93.7950378  33.7914801
  51.9034363   1.3420603  65.1158302  51.7066933   0.5919287  65.6769221
  51.9074036   0.9829733  64.2285483  64.8832798  90.4925060   9.8343664
  64.5814276  91.3528633  10.1257384  64.9658680  90.5767059   8.8844603
  97.4131489   7.2181559  18.6634779  97.3211002   8.1052381  18.3158481
  98.0251598   7.3094034  19.3937790  96.6244475  49.5797075  83.1584357
  97.3262564  49.1933762  82.6345574  96.8166033  49.3060064  84.0553163
  42.4089886   9.4031546  80.6323485  43.0162503   9.2755959  81.3611786
  41.6375185   8.8890478  80.8705966  38.3005764 102.6788958  81.4900743
  38.4942772 103.0717000  82.3412030  37.9340985 101.8200310  81.7004888
  62.3332024  41.8242407   6.7709041  63.0562067  41.4595318   6.2605268
  61.6679716  41.1359787   6.7695552  73.1233931  57.3856783  26.0377240
  72.4373674  56.9622517  25.5216765  72.8156519  57.3236609  26.9419813
  45.5672241  11.2654850  77.3957913  44.6683480  10.9728500  77.5462179
  45.7789017  10.9475395  76.5181069  94.4183937 101.9212445  83.2664316
  95.0134150 101.9490632  84.0157043  94.6087853 102.7230319  82.7794884
  99.5697403  44.8373508   8.0633831 100.5102634  44.9696827   8.1822526
  99.3143654  45.4981375   7.4196625  36.2215163  17.2619745  52.7886646
  35.9158303  17.4318955  51.8976467  36.2813927  16.3082287  52.8435414
 106.2861633  22.5820541  10.4389513 105.6313419  21.8877721  10.3653288
 106.0845661  23.1788254   9.7182155  76.4614868  98.4974670  15.2381706
  76.4834118  98.9489746  16.0819077  75.5828619  98.1206131  15.1909482
  38.1159283   8.2664558  84.8114197  38.3012272   8.8581011  84.0821396
  38.9765192   8.0564425  85.1740696 102.0669937  47.6056433   0.2421189
 102.8850555  48.0487728   0.4671809 102.2747612  47.1056271  -0.5472155
  80.6686592  38.5961962   6.2139928  80.8165073  37.6782298   5.9865922
  81.5151596  39.0184808   6.0678732  52.0826769  40.3625298   5.7048762
  51.8485403  40.8746147   6.4789438  52.9820728  40.6241226   5.5076838
  91.9486618   6.7225718   5.4525119  92.7395058   6.9065672   5.9594017
  92.1794319   5.9647238   4.9152583  73.7231016  35.7467413  18.8691866
  73.2499886  36.4684606  18.4550357  74.3861675  35.4949021  18.2264209
  74.0890312  19.4293189  15.8102965  73.6911249  19.0868771  15.0099003
  74.9632168  19.0398479  15.8287728  56.1221409  17.6945102  40.6982756
  55.5586815  17.1574807  41.2553596  56.0052681  18.5856485  41.0275888
  86.6441441  37.1247721   0.1397318  85.7311249  37.0629978   0.4204677
  87.1477127  36.8156505   0.8927891 107.7560249  73.5653409  69.0586560
 106.8421475  73.8162788  69.1931610 107.7594629  73.1177696  68.2125466
  37.2846152  98.5217701   6.5633017  38.1314875  98.2095467   6.2446201
  36.9339539  99.0424692   5.8407080  78.9797894  79.1031679  88.4410820
  79.5769612  79.4604643  89.0983170  79.2806593  78.2043537  88.3075068
  57.7702976   7.3208067  77.1138911  57.9099060   7.7624247  77.9515760
  57.3659302   7.9860041  76.5569119  83.6317635  15.5375075   1.7136884
  83.4879875  15.0344753   2.5152615  82.8487110  15.3776443   1.1868969
  48.5518910  12.8911612  74.0814988  47.6306511  13.1507322  74.0939216
  48.5393215  11.9768736  73.7983851  51.0997200  46.2736511   2.2933362
  51.2301397  45.6812620   1.5528661  50.8977938  47.1185923   1.8914190
  12.2476056  83.7872895  81.1950039  12.6058152  84.5606717  80.7593469
  12.8849270  83.0955704  81.0173278  61.3343048  59.4460154  18.5820007
  60.6118345  59.5985603  19.1910982  61.7748594  58.6676836  18.9230907
  28.3154442  77.2173151  88.9481118  27.9771187  76.6086801  88.2913523
  28.0948021  78.0842146  88.6074737  70.5180168  39.8557138  31.7914271
  70.2884865  40.6547499  32.2658682  70.0739574  39.9421096  30.9478736
  26.0815121   0.7214853  67.8188460  25.4826094   1.4658377  67.8778856
  25.8348395   0.1569054  68.5513990  38.3980274  18.9241576   4.3026215
  38.1019354  19.8087895   4.0881717  39.3354607  19.0195775   4.4709831
  85.8431816  38.6370230  22.4418759  85.3113556  39.0022063  23.1490088
  85.7225800  37.6903391  22.5158596  64.9138927  34.0282965  26.0368633
  65.6537294  33.5948682  26.4623237  64.7988415  33.5530782  25.2139640
  63.0298328  26.6911674  24.1875505  62.4450827  27.4469972  24.2425275
  63.7956095  26.9427371  24.7038150  79.6995974  27.4070549  22.7481842
  79.5644379  26.8880963  23.5410571  80.5653954  27.7987766  22.8630185
  24.3257954  97.0700129  40.7570927  24.5019581  96.3039025  40.2109473
  23.5532620  96.8276461  41.2676661  16.6674855  98.9794644  71.9494777
  16.3581994  99.8617324  72.1548526  15.9013798  98.4206542  72.0800238
  17.2810700  87.9333886  81.2370597  16.6600850  88.5198291  80.8049683
  16.9689991  87.0541986  81.0228782  80.1646591  10.4200432  70.5764274
  80.7063271  10.1103804  69.8505263  80.6248642  11.1917421  70.9064655
 106.3072491  70.6238556  15.6863713 106.7605495  70.9967089  14.9302375
 106.5439796  69.6964693  15.6741869  73.3738342  81.6631516  69.6396499
  72.5776545  81.7644271  70.1612549  73.2289568  82.2158273  68.8716714
   0.1780735  31.4791465  20.0376701   0.2921521  32.3070407  20.5043697
   0.9967648  31.3609362  19.5559978   3.1584027  65.4091974  62.5642578
   4.0448716  65.0592407  62.4751584   3.1001952  66.0880407  61.8919389
  89.9483563   5.7864163  76.5946572  89.1515137   6.2498161  76.8525975
  90.0081612   5.0534603  77.2073822  34.9995472 100.7453402  73.2314806
  35.6432869 100.8476170  73.9324550  34.7722771  99.8156699  73.2487731
  79.6686808  46.0440823  84.0613072  79.5285908  46.9810285  84.1981991
  79.6213213  45.6641366  84.9385928  84.5581245  53.9396048   1.1798355
  84.8720932  54.8197603   0.9725187  83.7393284  53.8560867   0.6911217
  86.2097994  91.3518818  86.5710665  86.1927286  90.4091223  86.7358218
  86.8292252  91.4576610  85.8490156   0.8925186  15.3166223  36.7860770
   1.0372196  16.2349331  36.5580392   0.7644116  14.8782587  35.9448528
  56.4395046  36.6271734  36.5880990  57.0789242  37.3082805  36.3796210
  56.1202240  36.8573809  37.4606228 102.8033892  85.3754862  50.5156987
 102.4185864  84.9758919  51.2957518 102.7356878  84.6990236  49.8418681
  78.2239294  52.8931332   7.9086983  78.8805819  52.3119354   8.2924342
  78.4159470  53.7524319   8.2841516  75.0280262   3.8830254  80.7475601
  74.6397854   3.7928555  79.8772894  74.5559670   3.2489178  81.2872873
  77.4609470  89.0241623  44.4897223  77.8960323  89.8658657  44.3537998
  76.7120361  89.0426922  43.8938808  72.5578737  66.2941551  26.4305854
  73.4539557  65.9936237  26.5820765  72.5916672  66.7280054  25.5780244
 103.9972687  99.6292210  49.3744516 104.7077942  99.4503784  48.7585020
 103.7891197  98.7756634  49.7543812  21.4228299  85.9647473  61.9348805
  21.8184617  86.6769084  61.4323537  20.6116726  86.3373169  62.2804825
  75.1376390  52.7330732   9.3046409  75.8866358  52.3417902   9.7542411
  75.1679230  52.3631477   8.4223306 108.2288647  29.7121263  29.0347505
 108.7288094  29.5040393  28.2454586 108.4765244  29.0322113  29.6613359
  87.1907425  72.9356146  12.9889250  88.1140137  72.7854633  13.1920326
  86.7155457  72.4012756  13.6252463  66.2208271  30.3479385  24.4275308
  66.2471962  30.5772018  25.3564954  65.5617046  30.9335613  24.0549207
  67.8652668  44.7737503   9.5417887  67.5638962  44.0331268   9.0155935
  68.6655569  45.0671005   9.1062307  15.9863713  93.8882264  81.3666885
  15.4863026  93.7992247  80.5553661  15.3344395  94.1299208  82.0245718
  36.2569618  75.1239586  20.7509565  35.7086253  74.6182156  20.1511335
  36.8421769  74.4764996  21.1440897  92.4744892  45.9441233  28.6034131
  92.4622154  46.6087770  29.2921162  93.3417225  46.0262680  28.2067013
 109.4546436   6.7954267  45.7807684 108.8115476   6.4572061  45.1576519
 109.1736244   6.4480318  46.6272783  10.9676888  99.2946395  72.7719776
  10.3829052 100.0511893  72.7285294  11.8025353  99.6174296  72.4327581
  62.4028397   0.1150620   6.9866568  62.6892614  -0.0470045   7.8855050
  61.6509199   0.7004952   7.0767558  34.1620280  20.2421400  82.3842202
  33.3761002  20.5287001  81.9190000  33.8304735  19.7284958  83.1207507
  99.3845177  44.8525000   1.3663866 100.2902603  45.1348877   1.4933568
  99.4424915  43.9031601   1.2585704 103.4068012  59.9441576  30.7350373
 103.6081886  60.8337831  31.0252881 103.7910175  59.8848581  29.8603415
  65.4244089  57.5504971  29.8233843  64.6288538  57.0319271  29.7033501
  65.8912563  57.4688959  28.9917421  80.4588127  54.0633869   9.2841369
  80.8436775  53.3342695   9.7704488  80.8681393  54.0175676   8.4200829
  86.8559265  78.2333612  24.6498966  86.4831066  78.2608747  23.7687135
  87.2675037  77.3711872  24.7090173  55.6164528  33.4520552  74.3748884
  55.4866387  32.8628847  75.1180320  56.3120152  34.0454313  74.6583145
  32.7866579   8.8291332  67.7458565  32.2304608   9.4522736  68.2133763
  33.1862379   8.2999537  68.4361760   0.1278212  51.2768395  71.6546278
   0.6218340  51.6473299  70.9232454   0.7970669  50.9282443  72.2435467
  44.3401194  42.6437759  16.7312109  44.4622993  42.5093842  17.6710212
  44.7253561  41.8667984  16.3260770  76.6091490  36.7641354   4.7892311
  76.3020468  37.6678133   4.7165245  77.0746326  36.7358804   5.6251508
  84.7063923  40.0697565  20.0850368  83.8593960  40.3805542  20.4047918
  85.0533867  39.5395947  20.8025002  82.4494362  64.6635675  11.0734975
  82.4171925  64.4218349  11.9991088  82.3745537  65.6178331  11.0724187
  82.3857403  78.7205029   5.9406173  82.9283619  78.8712502   5.1666176
  82.9844856  78.3380651   6.5820843  47.5636555   3.6256096  71.0806875
  47.8095032   4.5334074  70.9026747  46.7741181   3.6921951  71.6177540
  78.7924242  53.1368303  26.7860436  79.0250349  53.8048649  26.1411738
  79.6252441  52.7237034  27.0140028  55.5744530  30.9900591  72.7878492
  55.5275894  31.9010756  73.0778389  56.2891461  30.9778235  72.1512155
 102.0521164  32.7481294  17.1881485 102.1400738  31.7982817  17.1088982
 101.4853287  32.9978967  16.4583588   1.5108778  92.4677523  87.7773568
   0.8834364  91.7452820  87.8015447   2.1551611  92.2480734  88.4503152
  89.2007557  83.6217936  85.2953254  89.4059769  82.6893505  85.2270214
  89.4022289  83.8454469  86.2039612 104.7263336  49.0875864  57.0042944
 104.7457600  48.1329632  56.9368219 105.3876305  49.2945290  57.6646662
  87.8528881  59.5619392  17.7366686  87.8577423  60.5086422  17.8779387
  88.3373737  59.2061234  18.4815812  23.7492898  85.1845368  75.0719361
  24.0348103  84.3167695  75.3577475  23.8595726  85.7393464  75.8441143
 107.5843874  61.6107973  68.1715076 108.1655232  60.9267374  68.5040371
 107.3139874  62.0953652  68.9514510  95.3947712   9.1313336  83.3098535
  95.1914860   9.7455570  84.0152900  95.3925492   9.6678040  82.5171195
  92.8439999  61.2541485  30.8977103  93.2959270  60.4959297  30.5274296
  92.9662895  61.1677027  31.8431234  64.8327827  53.2524157  13.5825229
  65.1914215  52.7512980  14.3149781  65.0371552  52.7262497  12.8094685
  37.0675042  96.2853869  87.2953737  37.1252587  97.2163066  87.0802348
  37.3838856  95.8380898  86.5104757  86.0336781  54.0433788   6.7862004
  86.0357094  54.2743301   5.8572823  86.9023037  53.6729717   6.9428122
  83.3577744  99.3118914  76.1697988  84.1510597  99.6868952  76.5522878
  83.6018768  99.1040810  75.2678780 101.9531345  59.2181969   0.8150748
 101.2324905  58.6870480   0.4762639 101.8002701  60.0898838   0.4503452
  51.1017586  14.9984381  67.4989812  51.8692185  15.0098917  68.0709140
  50.7393242  15.8817694  67.5667732  53.6631085   1.1744663  88.2827836
  53.7488629   1.9594404  87.7417673  52.7932621   0.8337042  88.0742516
  46.1061550  15.4070541  61.8452732  46.1520649  16.3019440  62.1818774
  46.1809422  15.5041096  60.8959477  99.2761898  61.4061975   8.3869815
  99.1643333  60.5360317   8.7697840  99.1093254  61.2801933   7.4528980
  89.0876102  99.8135090  13.3759379  88.2508469 100.1724339  13.0805731
  88.8470078  99.1077137  13.9760995   0.7332360  61.0535765  26.9400501
   1.0104595  61.9290924  27.2099662  -0.1726021  60.9855127  27.2418118
  74.3283319  69.3984556   9.9088097  73.7860346  69.8274899   9.2469376
  75.2266216  69.6175051   9.6611756  88.8031101  90.2856731   9.7553933
  88.2061291  90.7425785  10.3479195  88.4245586  89.4115829   9.6610969
  62.3072220  17.9422400  71.2782507  61.8255211  18.7111303  70.9732859
  62.0669533  17.8595755  72.2011106  24.2107155  86.1561998  88.9821549
  23.6363080  86.8145760  88.5912278  24.2738392  85.4691108  88.3187112
  68.6729479  69.2501068  39.3309450  68.3010244  69.0534353  38.4711623
  67.9373407  69.5953560  39.8368263  71.8378115  87.4236298   9.5146662
  71.7819405  86.5087891   9.7906804  72.4433565  87.8252411  10.1377678
  54.1715981   8.2561419  77.9067092  53.5308148   8.8900492  78.2288687
  55.0173641   8.6874935  78.0285590  40.2877451  30.1779101  82.0033853
  41.0107018  30.1013109  81.3807325  39.7842480  29.3723318  81.8860929
  47.1733665  81.1977100  35.6759596  46.8486309  80.8267975  36.4964461
  46.3979435  81.5743351  35.2599001  56.8751026  29.2577478  82.0590197
  57.2600628  29.3959257  81.1936067  56.1834694  29.9165175  82.1214567
 102.7267933  38.6190820  10.0422812 102.5427818  39.0732741   9.2200410
 101.9368839  38.7457466  10.5678558  43.7015511  56.7169878  87.8487796
  42.8366638  56.3608954  88.0522344  43.6294438  57.0185301  86.9431822
  10.0835072  48.8118505   9.5562929  10.8177792  49.3729687   9.8057389
  10.1881729  48.6855412   8.6132526  66.9761635   9.4355270  61.1001699
  66.4872814   8.9043591  60.4716031  66.6100479   9.1964695  61.9516675
  33.6332585   6.1706278  75.3609197  33.0729033   6.3666031  76.1118059
  34.5244719   6.2311003  75.7048910  84.4128704  94.2797470  44.1184998
  84.7331238  95.1224709  43.7968063  83.8020039  94.5073986  44.8193932
  64.9173403  42.1494722   8.8140416  64.5253181  42.9990053   9.0161437
  64.5871782  41.9348001   7.9416090  61.9581223  57.6531792  23.7617874
  62.5035000  58.3830690  23.4684205  61.0798454  58.0260372  23.8381886
  45.1187754  68.8048458  21.3595295  45.8647633  68.2390690  21.5586042
  45.2859783  69.6054840  21.8567753  61.4932966  51.6360188  25.6946635
  61.6162443  50.9315157  26.3309002  60.6099653  51.9623327  25.8663464
  75.9535694  34.3497825   3.6115152  76.2754488  34.2390227   2.7168876
  76.3389874  35.1756263   3.9042041  88.0061913  50.0843573  14.5346189
  88.8330173  50.0902796  15.0168657  88.2263851  50.4485321  13.6772251
 104.9773861  12.1834204  67.9154794 104.3548084  12.5996611  68.5116117
 105.8228470  12.5695011  68.1442993  24.0189316  78.3179649  85.2399685
  24.3900540  78.4033688  86.1181538  24.7265103  78.5862430  84.6537979
  80.9538555  60.7080603  31.2822866  80.6830883  60.0296783  31.9009280
  80.3207302  61.4146185  31.4093828  99.0345955  39.5774841  13.3226633
  99.4876099  40.1831579  12.7359998  98.7693787  38.8510060  12.7586401
  61.1553478  42.7438831  13.8885415  61.7060709  42.6140213  13.1164861
  61.1732197  43.6889744  14.0392745  21.5040375   8.1466601  77.0051782
  20.8587481   7.8496477  77.6467519  20.9951807   8.3077547  76.2106078
 107.0385424  88.7024959  85.6590517 106.9863192  88.9339431  86.5863790
 106.1771790  88.9272126  85.3072272  88.4605694  48.3062315  21.4732075
  87.5612926  48.3833981  21.7919064  88.4605217  47.5063992  20.9473753
   0.7415139  57.3898411  15.6371891   1.5020119  57.7042675  16.1260664
   1.1134659  56.9467735  14.8745799  43.2350159  44.2683554  20.9330893
  44.0854263  44.5455647  21.2739563  43.4471798  43.7121344  20.1835346
 102.6457024  45.5619001  27.1713495 102.2187805  44.7678900  26.8496037
 102.6259899  46.1629868  26.4266777  69.3135071  14.5363891   9.3086791
  69.5422173  13.8368869   8.6966169  70.1561308  14.8847353   9.6000046
  18.9860203  97.1651610  83.7603049  18.3341744  97.7246245  83.3380066
  19.4304135  97.7420624  84.3815340  64.3313217  76.3106966  27.6892924
  63.5466003  76.1462116  27.1664262  65.0331497  76.4039564  27.0451140
  29.6123078 102.2214421  73.8320868  29.2690423 102.6883706  74.5939116
  30.5573609 102.3695572  73.8661961  91.6872406  36.7512417  45.9765625
  92.1039867  37.3331690  46.6121006  90.9210014  37.2378540  45.6727076
 107.4028587  20.3933930  54.6895361 106.5584564  19.9656045  54.5473480
 107.9214287  19.7466445  55.1680994 104.0334034  53.0159807  11.5190530
 103.7882710  53.8182497  11.0580707 103.3390141  52.8895664  12.1656382
  72.1735144  58.8759089  28.5142803  72.3896122  58.1974268  29.1539621
  72.6601553  59.6459675  28.8082552  80.3689766  30.8792377  24.4745684
  81.1769199  31.3732100  24.6140051  80.6483078  29.9639249  24.4544339
  86.1467743  71.1924887  14.7590494  86.1304855  71.4434290  15.6826258
  85.4143238  70.5837393  14.6632993  97.6865101  69.4514513  24.1775870
  97.9553509  69.3112135  25.0854921  96.9644356  68.8374376  24.0440440
  69.9660469   4.8280594  25.1655905  70.7466389   4.3337509  25.4157297
  69.7545220   5.3496239  25.9398358  80.6883240  29.3459105  -0.1485460
  81.4498329  28.7793732  -0.0245247  80.9183407  30.1584148   0.3021919
  81.4201355  28.3568954   6.9024342  81.7450809  28.5218263   7.7875537
  80.5092144  28.0907679   7.0274305  79.2615795  45.4352331   9.6441412
  79.3444300  45.1429272  10.5518448  78.9673996  44.6585274   9.1683024
 105.4966640  52.5956583  24.0656686 105.5153084  53.5479641  24.1605282
 106.1917782  52.4040174  23.4361267 103.3718395  74.7361660  20.0982404
 103.9656353  75.2711105  20.6249952 103.6474609  73.8352203  20.2672577
 103.8822937  67.9905415   2.1902606 103.8198376  67.4943018   1.3741249
 104.4241714  68.7479782   1.9691533  19.8276093  88.9546593  81.6398309
  19.8346379  89.8144659  81.2192141  18.9497616  88.6125167  81.4708208
 100.5511189  63.0367565  76.5522146  99.6175766  62.9228783  76.3740110
 100.8648109  62.1561718  76.7581272   1.3380290   6.4567825  86.5932913
   0.9594370   6.5375349  85.7178609   2.2328902   6.7830155  86.4982723
  21.3314869  77.5767907  63.3614724  21.4316323  76.7441615  63.8229148
  22.2225907  77.9184350  63.2877056  85.5045223  83.3097363  14.9663258
  85.9089661  83.4222889  14.1060984  85.6429672  82.3863506  15.1771080
  68.1415939  46.2212706  23.0999780  68.8788319  45.6208086  23.2102680
  67.4312878  45.6705141  22.7707958  85.7388401  69.4572496  30.9054351
  86.3198853  68.7450171  30.6383324  85.2147961  69.6437597  30.1264429
  54.7817017   6.8915865  72.4298482  54.2781330   6.8567631  73.2431357
  55.0362469   5.9833929  72.2666769  82.7957916  69.1998863  17.2825110
  82.4030209  69.9709511  16.8733335  83.4533310  69.5549345  17.8806901
  67.5691986  76.6902018  52.0419312  66.9186163  76.1238813  52.4569702
  68.3181143  76.1163568  51.8804836  28.2115650  72.9680061  33.7125874
  28.6180520  72.3028135  34.2680311  28.4663296  73.8005161  34.1103959
  45.0997353  62.4858141  20.8138371  44.8960352  62.0568943  19.9827147
  46.0416508  62.3569822  20.9253120  79.3247986  37.3728275  17.2139370
  78.4951162  37.5335217  17.6634264  79.8551321  38.1461024  17.4063504
 103.6588875  74.9064168  84.6992813 104.1367546  75.7209619  84.5431136
 102.7363793  75.1591977  84.6629678  59.1525745  70.6637716   0.4226775
  58.9086485  71.1388779   1.2170370  59.9995518  70.2690744   0.6302204
  64.5546700  17.1555063  69.4996374  64.8793770  16.2882111  69.7416930
  64.0007282  17.4176714  70.2349250  53.1165457  57.2997713  14.2887115
  52.3688841  56.7062616  14.3592620  53.7679577  56.9367886  14.8888278
  84.1810703  51.0869694  15.7431471  84.9496174  51.6267061  15.5580807
  84.4215393  50.2136850  15.4336596  47.9676510  27.5329039  50.1411097
  48.3909012  26.6750977  50.1056712  48.5953785  28.1268904  49.7295587
  29.1016995  72.2669744  11.7408001  29.3164574  71.3419008  11.8605912
  29.9488865  72.7124453  11.7482412  62.9747391  59.9496269   6.1037034
  63.6685419  60.3042221   5.5477029  62.7974892  60.6443167   6.7379075
  51.6684723  65.2081823  16.2563562  50.8947611  64.6453762  16.2855148
  52.1395540  65.0098515  17.0656657 105.6942310  11.0862276  54.0475910
 106.5568795  10.9003708  53.6767452 105.0817361  10.8931706  53.3377950
  91.2780190  65.9665585  34.3999815  91.3947296  65.7779264  33.4688377
  91.4512348  65.1326609  34.8368382  70.2495266   0.8717606  69.3570976
  70.7568623   0.5310366  70.0938098  69.3389584   0.8150694  69.6467464
   3.5175930  68.1864738  22.9926801   2.7422463  67.9138279  22.5020409
   4.0952622  68.5710049  22.3333859  74.1373993  27.1117231  73.6621325
  74.2013050  27.5884649  72.8345673  75.0217606  27.1453640  74.0268307
 107.3331085  96.5951880  53.4906905 107.1239344  95.6641921  53.4150665
 106.8732659  97.0043048  52.7576153   4.2924604  55.0728941  79.4948864
   4.7654614  54.8103046  78.7052393   3.7743390  55.8304119  79.2229605
  15.7525762  29.3577854  55.6111105  16.0162195  28.8386241  54.8513754
  16.5759262  29.6770851  55.9803922  83.0560253  31.6549865   8.0970342
  83.4723113  31.8208782   8.9428575  83.7804947  31.4286510   7.5138147
  99.9877174  87.1436882  72.2374725  99.6717830  86.8621826  73.0960608
 100.8949913  87.4074650  72.3907852 103.0525911   6.0502542  64.6905661
 103.6448801   5.3142370  64.8445606 102.3891866   5.7031167  64.0942287
  82.5470699  84.6525764  63.6256456  82.5929059  85.1250267  64.4568634
  82.8685416  83.7746906  63.8310766  18.2945073  78.5531473  55.6984282
  18.7883174  78.4562635  56.5126753  17.6723993  79.2580986  55.8780289
  92.4551929  63.2783318  85.0929832  92.1122588  64.1712713  85.0570679
  91.7233027  62.7291918  84.8118877  77.4122418  98.7514019  62.9714537
  77.7978028  98.5195065  62.1265888  77.5393571  99.6975613  63.0411291
  11.6215849  97.9456997  38.3288527  10.9088683  97.6404476  37.7675247
  11.4264846  97.5720024  39.1882205  15.4500592  88.9846706  54.5147610
  16.3007057  89.3812370  54.7028065  15.5138636  88.0995560  54.8735619
  41.4508663   6.7983736  63.3172703  41.7765253   7.3264516  64.0461779
  40.5006741   6.7909444  63.4326458  85.8584870  93.6753559  54.8863459
  86.3888611  93.2876682  55.5824995  85.0537552  93.1570816  54.8814869
 103.2505138  62.1042538  53.9013481 103.2991100  61.9686651  54.8476505
 103.9331318  62.7492905  53.7164450  61.5100526   2.5419153  88.8449383
  61.3975738   3.1469263  88.1117630  60.7766079   2.7344907  89.4290638
  97.2695578  79.6193075  59.0732908  97.6234592  79.0026712  58.4323978
  96.4138211  79.2586803  59.3054485  22.6415277  80.8475780  75.9106398
  22.3977494  80.1892662  76.5613604  22.5101256  81.6846466  76.3559198
  70.8497943  64.5606995  61.1584473  70.9804667  64.8257875  62.0688772
  70.0600709  65.0269318  60.8842278   6.8745720  70.9124184  37.4899316
   7.2608823  70.9162378  36.6141558   7.6258308  70.9113598  38.0830932
  85.5090771  16.2202588   7.1780450  84.6997533  15.7801477   7.4379022
  85.2517734  17.1314947   7.0377500   7.1637654  93.5247421  44.8670006
   7.3624825  93.0638790  45.6820726   7.8683871  94.1662884  44.7766876
  14.6544576  62.7926016  68.0943251  14.1020560  63.3348417  68.6574078
  15.4892826  63.2593775  68.0566645  34.3209151  24.7072805  63.6099291
  33.8145407  24.0873159  64.1347694  33.6641889  25.2875818  63.2249641
 104.9793600  12.8159631  15.8732224 104.3983434  12.1278203  16.1974382
 104.4874738  13.2304586  15.1643693   6.7128891  86.0592175  72.8303862
   6.2095338  86.8732929  72.8184700   7.5818676  86.3193703  73.1360483
   1.0076350  97.5628662  82.3818302   0.0931228  97.3156548  82.2447777
   1.1350659  98.3290100  81.8223572  99.8581834  77.7821636  82.8351402
 100.6798751  77.5218153  82.4188805  99.8879124  78.7388372  82.8462505
  35.9503555  85.1811695  77.6217890  35.7874751  84.7823143  76.7670250
  35.4227972  84.6650791  78.2313490  11.1212599  91.6916180  71.9302225
  11.0986197  92.5365162  71.4809275  11.7269874  91.8242741  72.6594210
   2.4548782  82.2875023  64.5281172   1.9008358  81.6250801  64.1152430
   1.8816294  83.0466175  64.6347094  22.4171734  98.1210613  31.9455981
  22.2195506  98.5733128  31.1254454  21.6914058  97.5079060  32.0619082
   6.2611181  90.7992554  80.4640293   5.3396595  90.6326485  80.6624889
   6.3174796  90.7284641  79.5111132 106.1632694  77.6827145  58.4456825
 105.5643113  78.3256006  58.0659723 106.9101874  78.1999588  58.7470150
  90.0044225  25.7397474  29.9115944  89.5394968  24.9822248  30.2668905
  90.1541590  26.3056959  30.6689024  42.4697714  28.3803667  50.0534391
  42.5208937  27.5938428  49.5102930  42.4698226  29.1043008  49.4272184
  14.3594849  76.6839647  39.6301246  15.1650846  76.6560411  40.1463223
  13.8869822  77.4462461  39.9646330  96.1205054  65.0670481  36.4090133
  96.5532674  65.6735659  35.8081102  96.2290479  64.2077875  36.0014272
 103.1019117  96.9091797  50.0082493 103.2867546  96.0590935  49.6089745
 102.1658487  97.0445251  49.8609352  22.1808958  72.1246910  34.2540550
  23.0551457  71.9073486  33.9305091  22.3343420  72.5177336  35.1132417
  64.5766494  44.9341575   0.4106863  65.4230151  45.1575939   0.0234277
  64.1086910  45.7676593   0.4608686  67.3411525  97.5217438  73.7474632
  68.1061615  98.0856705  73.8613844  67.5804104  96.7029285  74.1816616
  80.9405984  75.1374006  63.1534958  81.4108266  74.4276428  63.5909367
  81.3518346  75.9362698  63.4835291  58.3049129   3.2839597  85.7821465
  57.7978109   2.4797643  85.6709957  59.0398740   3.1893457  85.1762486
  50.2813339  89.3247795  57.5080538  49.3952179  89.1851330  57.1741009
  50.3908539  88.6557007  58.1837463  28.6086154  64.3954659  44.5878887
  29.4961524  64.2736721  44.2507267  28.6795473  64.2052221  45.5233049
  52.3773836  27.2958101  74.9809837  51.8953155  26.4699186  74.9391556
  52.0463501  27.8041280  74.2405319   8.8783860  89.6323013  50.1828623
   8.5304576  90.3807545  50.6676245   8.1021374  89.1678333  49.8699188
  27.1779119   9.5593084  73.3267832  27.3009651  10.5074895  73.3719540
  26.8009024   9.3260301  74.1751194  22.2616291  99.0786934  65.7588768
  21.7428970  98.6459541  66.4370298  23.1636715  98.8174629  65.9441090
  18.3688997   9.0256132  37.4021077  17.9793106   9.5027841  38.1347513
  18.0918311   9.5115579  36.6253662   8.8518256  77.6762295  61.9014215
   9.5246899  78.3376789  62.0625687   9.2235547  77.1178341  61.2186003
  94.1084064  94.6802139  72.2589350  94.2229677  94.9784088  73.1612587
  93.1689407  94.7647667  72.0961905  12.5704241  93.6805820  21.5430737
  12.5591493  94.3706417  22.2063375  13.4361935  93.7493038  21.1406422
  41.4363806   6.8922246  58.3064985  40.9195032   7.3338712  58.9803076
  40.7858722   6.5239633  57.7086210  62.7107691   4.5453275  80.4830170
  63.6450623   4.7223390  80.5925369  62.5801896   3.6882986  80.8888340
  36.8866253  97.3164463  71.1802340  37.7022552  97.1876717  70.6960917
  37.1337104  97.8662777  71.9237852  78.4235562  86.4471817  59.6790218
  79.0085877  87.1572208  59.9432516  77.9910053  86.7742157  58.8902426
  11.2853229  71.6762781  53.4563732  11.5387297  70.7619667  53.5830784
  10.6858885  71.8610811  54.1793966  61.5799174  44.7491828   7.0983560
  61.8219254  45.1314918   6.2548502  61.9254134  43.8571350   7.0649679
  45.7569896   1.8745340  63.2916260  46.4186631   2.2676481  63.8607311
  45.8758866   0.9312070  63.4021521  42.3996191  19.4607652  76.5744019
  41.7880039  19.6457971  75.8617163  42.8475230  20.2927030  76.7276955
  22.8762317 101.3257027  78.6765528  22.0792317 101.7305946  79.0187311
  23.0969524 101.8465233  77.9043722  53.5054909  21.2648023  85.1832771
  53.9095949  21.6746725  84.4184685  54.2269861  20.8154214  85.6234360
  41.1049032  87.6896191  85.3352356  41.8847227  88.2296181  85.2067375
  41.0288477  87.6009655  86.2852859  15.1164317  78.4570837  45.7510376
  14.5173466  78.6525011  45.0305223  15.7866514  79.1383219  45.6967258
  27.2021461  75.6372929  83.9785671  26.8469596  76.5246868  83.9274406
  27.0852709  75.2814102  83.0977058  54.0921245  18.1338111   3.3837278
  54.9766204  17.7705852   3.4280737  53.5354958  17.3839084   3.1738527
   8.7781501  90.5324173  44.2692995   9.6732217  90.6815338  43.9646006
   8.7274808  91.0012054  45.1023054 108.7035893  93.5484409  70.6305313
 108.6893135  92.7034664  70.1810408 109.6091240  93.8477802  70.5490923
  57.6987790  34.0047468  79.4653845  56.8966936  34.1140378  79.9762106
  58.3206462  33.6109079  80.0772762  85.3604807  68.4316301  58.1532812
  85.4342426  68.0901146  57.2621250  86.1986102  68.8652515  58.3137369
  97.3334777   9.3201459  79.0691328  96.9531429   9.2823804  78.1915522
  97.1755445  10.2182497  79.3601751 105.2450297  47.9934502  80.0841904
 106.0188444  48.3072519  79.6162510 105.1043717  48.6404848  80.7754230
  17.0484114 102.3184586  77.5524378  16.3750517 102.4339390  76.8820000
  16.7193413 101.6075134  78.1024361  87.5333856  33.8828672  58.1065893
  86.6583704  33.8798822  58.4946203  88.1237386  34.0169729  58.8480282
  92.3945273  96.1230755  43.0305243  92.1458389  96.8395138  42.4464750
  92.9242886  96.5406227  43.7096739  34.9904370  77.0884848  81.4506435
  34.6757436  76.8027973  82.3083019  35.2087784  76.2766123  80.9930134
  33.6994696  55.1104450  67.5691700  33.8729382  54.2324162  67.2297382
  33.0380750  55.4695368  66.9776964  46.7994486  20.9776033  58.8616991
  46.3180076  21.7684949  58.6189413  46.2516778  20.2580083  58.5480547
  79.0165151  77.0179415  21.3403821  78.5765732  77.6366043  20.7573390
  79.9449171  77.1031857  21.1235118   4.9802285  74.4078064  74.2320251
   4.6748632  74.5062351  73.3301973   5.8087647  73.9348507  74.1540766
  74.2456903  53.4078876   3.9858205  74.7387244  53.3879463   4.8060377
  74.8818452  53.1526176   3.3177049  52.7232395  30.8053697  49.6972513
  52.7443074  31.4323820  48.9743090  52.7804207  31.3460935  50.4850149
  91.6687311  81.3939190  57.4573278  92.4046255  81.9065762  57.7917910
  91.5565611  81.6958046  56.5559292  39.8890509  10.2432168  42.5879097
  39.2892351   9.5566095  42.8794956  40.0683360  10.7553686  43.3764505
  89.8298810  44.9273006  16.3788183  90.1118312  45.7678882  16.0180624
  89.8988614  44.3165103  15.6450517  17.7808440  57.1076632  67.0165443
  18.6041069  56.6513205  66.8426991  17.5408983  57.4974394  66.1758709
   4.8814338  98.4509659  32.5766182   4.5459807  99.1238499  33.1690049
   5.7446766  98.2318211  32.9273629  23.6144696   1.7867864  88.4800243
  23.9380823   1.0050882  88.0323029  22.6682078   1.6548551  88.5384655
  24.6975422  66.6234970  36.9334197  23.9283252  66.8055201  37.4732375
  25.3144622  66.2002707  37.5305128   2.3731664  85.7385349  80.9192371
   2.3507816  85.2892494  81.7641449   3.2932752  85.7097054  80.6569386
  60.9474705  10.6959928  48.8984585  61.4685963  11.4051641  49.2749357
  61.0367130  10.8094705  47.9522038   6.6092795 101.4325237  20.9868193
   6.9963807 100.7802868  20.4028916   6.2495911 100.9214497  21.7118454
  41.6355829  21.0433496  70.0445938  41.4035659  21.6555036  70.7429218
  41.3818492  21.4924730  69.2382860  95.2577970  28.7228290   0.2320249
  94.4312570  28.2448045   0.1645048  95.0494335  29.6058170  -0.0731795
  98.5507907  14.1812098  10.2653980  98.7481750  15.0437498  10.6304932
  98.3237959  13.6456013  11.0255492  13.9701223  36.7242861  21.9196296
  14.4662845  36.5465546  21.1205888  13.2904291  37.3408222  21.6473603
  90.8718396  49.6252489  22.7023959  91.0325004  50.5462456  22.9077959
  89.9511946  49.5949602  22.4421525  97.3672284  65.5629349  65.2538300
  96.7616929  64.8469210  65.4458761  97.4178041  65.5840397  64.2982006
  11.0274637  87.0231247  78.1180429  11.5986431  87.7789974  77.9815054
  10.1513469  87.3429775  77.9027557   2.0927480  42.7171135  52.0889902
   1.4681885  43.4064913  51.8633413   1.5825462  42.0901203  52.6016331
  15.3012133  34.0432763  70.2154589  16.0001636  34.3618989  69.6443367
  14.6148336  33.7528229  69.6148300  29.7988009  54.0002012  77.3501730
  29.5377398  54.2261553  76.4574099  29.3763256  53.1576920  77.5172758
 102.5523568  76.4976501  54.8986959 102.5952907  77.4538612  54.9053288
 102.6939453  76.2578821  53.9828920  26.8721986  81.1882973  22.5297856
  26.5543699  81.7485523  23.2378316  27.7242064  81.5570354  22.2966695
  88.5344781  92.4853516  71.3377523  88.0984272  92.7243328  70.5198431
  88.4934438  93.2787037  71.8717384  83.1596912  57.8594446  24.9389577
  82.2947801  58.2118559  25.1486421  83.7209762  58.1615591  25.6530428
  73.6234440  88.6320210  68.2687616  73.5232319  87.7012157  68.4682465
  74.1470970  88.9769459  68.9919853  16.1894369  71.8471670  36.8651223
  15.6529546  71.2171984  36.3839197  16.9845772  71.3633347  37.0884848
  84.2210330  57.6027679  12.8912175  84.5891560  56.8115854  12.4978352
  83.4604133  57.2938967  13.3834445  41.6095524   2.4496377  58.2679653
  41.1493357   1.6281999  58.0956841  42.1263062   2.6050294  57.4773645
 108.5885375  43.2806301  72.8538465 107.8777381  42.6469278  72.7568102
 108.4461558  43.9103270  72.1471405  23.0042171  64.1892052  42.4827576
  22.7744627  63.3231354  42.8194571  23.8492966  64.3867207  42.8865671
   6.0820526  50.4354000  67.8722858   6.0345787  50.6171846  66.9337082
   6.5638977  49.6105099  67.9324102 100.0517650  27.5349593  21.7179322
 100.9625323  27.8148508  21.6263008 100.0916649  26.5788436  21.6960192
   4.1992992  54.9053288  54.9415112   4.5173821  54.2245913  55.5345106
   3.9730784  55.6368113  55.5159521  15.5378568  46.7253733  73.9465570
  14.6547723  46.5423393  74.2673254  15.5797362  46.2867117  73.0968237
 102.7509184  48.4419394  43.9742994 102.1274806  48.5799170  44.6874046
 102.3954405  48.9484549  43.2440186  36.8488693  97.9881668  46.5869331
  36.9209814  98.9370251  46.4834499  37.7105761  97.7154255  46.9020557
 109.1413734  90.9284687  55.8912516 109.2652801  90.8535862  54.9450636
 108.7825220  91.8068981  56.0170364  13.1832194  56.2737370  73.1694460
  12.3139369  55.8759022  73.1214142  13.2561672  56.7877054  72.3652411
   9.7913235  42.6209879  44.2248726   9.4950187  42.4026012  43.3412790
  10.7387292  42.4867296  44.1998196 105.8989177  67.9978466  40.2833366
 106.3822238  68.6516094  40.7885504 106.1051084  67.1657133  40.7090998
  15.6026638  51.0188675  32.5465870  14.8098183  51.2703896  33.0202579
  16.0235369  50.3706169  33.1112719  96.1931647  51.2605810  60.1281261
  96.1378206  50.6325245  60.8483410  95.4383041  51.0583067  59.5754051
  28.4809446  25.5121303  68.5967684  27.8501940  25.9293079  69.1835833
  28.5636520  24.6186829  68.9301491 109.0029091  61.4250994  38.9704657
 108.4130147  61.6235065  39.6977139 109.7494189  62.0097828  39.1012263
  68.8784582  44.1015808   0.5590017  69.2263795  44.9932758   0.5668218
  68.0666248  44.1656486   0.0559576  90.3067908  48.6635105   4.8238714
  91.1191235  49.0430061   4.4887025  89.9059079  49.3676273   5.3335245
 108.6371584  72.7855730  43.1649017 108.4468073  73.7163687  43.2815981
 108.5100004  72.4043417  44.0336514  41.3604450  91.7794037  62.3136950
  40.6086826  92.3704433  62.2718430  40.9954739  90.9489250  62.6191854
   3.7023768  40.6873417  15.0792015   4.5980543  40.4943180  14.8021913
   3.5208786  41.5541506  14.7159743   3.0377477 101.1586189  86.4646435
   2.2077535 101.6298676  86.3920879   2.7838004 100.2458000  86.6006374
  97.9965843  99.9622917  83.1919575  98.1415833 100.8388996  82.8359032
  98.7019981  99.8423195  83.8277435  26.6990829  69.8175335  76.5299749
  26.1332059  70.4508638  76.9714594  26.1697912  69.0219879  76.4734983
   1.6537344  36.2919998  81.7170525   1.4800151  35.7938814  80.9183502
   1.0752101  35.9026408  82.3727512   2.5615981  59.8567581  31.6369247
   2.3767720  60.7765388  31.8268585   2.4889937  59.4178963  32.4844837
  88.7003649  77.2041035  55.3458118  89.1473426  77.4238682  56.1632109
  89.0704955  77.8068542  54.7008848  76.0520567  91.3940430  29.8404217
  76.4442195  90.8374214  29.1676569  75.1494373  91.0835648  29.9119282
   0.9231872  70.5984068  34.3573523   0.4543845  71.0986757  35.0253272
   0.9680669  69.7100449  34.7109556  12.3379099  32.7498698  59.9498224
  13.2452583  32.4456406  59.9697351  12.3620868  33.5402489  59.4104290
  25.7219434  40.1079130  68.1785154  25.1865363  39.4571662  68.6324978
  25.1803422  40.3921700  67.4422407  27.0515227  85.2319336  33.0371952
  27.6439118  84.6154976  32.6066995  27.5713181  86.0285187  33.1443715
   9.3433821  96.0996819  39.0066409   9.3458813  95.3204918  38.4506750
   8.6368358  96.6419029  38.6559033 105.5795021  64.4508839  31.7119670
 105.0639157  63.6515141  31.6051412 104.9287809  65.1514769  31.7562413
  18.5686553  94.9763012  74.2088366  18.7589598  94.3559742  73.5051250
  18.8892555  94.5454121  75.0011587  26.8947220  61.6008282  66.4935970
  27.0764184  61.6439295  67.4324083  27.2350621  62.4250555  66.1456823
  95.7042481  80.8144283  37.0891714  95.2675165  79.9998236  36.8403578
  96.0752512  81.1466408  36.2717199 105.1741592  68.6363220  49.6236420
 104.8654990  67.9973936  50.2660799 105.7890074  68.1478024  49.0763378
  98.0538477  75.0373220  57.2292519  97.7757801  74.1696739  56.9358158
  98.9356602  75.1399899  56.8713427   9.1043711  63.3398008   7.8996593
   8.7929511  64.0359688   8.4781027   9.9630344  63.1032276   8.2503211
  92.5478400  59.7546196  71.1459970  91.6959919  59.3570423  71.3263226
  93.1609822  59.0195894  71.1504984  19.1137362  50.1100111  75.5817652
  18.3418083  50.4772234  75.1510572  18.8275492  49.2522049  75.8956146
   2.0574626  53.4639502  53.3848476   2.1614808  53.9478874  52.5655699
   2.5359768  53.9824438  54.0317011  86.9921530  88.9743423  75.0580454
  86.0937871  88.8101387  75.3447628  86.9397153  89.7912979  74.5619917
  77.8459905  16.8555177  29.5896626  78.0501674  17.3622526  30.3756452
  76.9831871  16.4796747  29.7644210  92.2358824  80.7249165  53.6679459
  91.9146253  81.4083672  53.0797863  92.8007508  81.1876202  54.2868662
  90.8169557  96.5917778  56.2254190  90.0244225  97.1285248  56.2311125
  91.2620391  96.8304729  55.4122972  62.4143193   9.0657798  10.0254400
  62.2182605   9.9430601  10.3543337  61.5565631   8.6603967   9.8983534
  28.0998921  27.4436498  77.8455353  28.8559389  26.8705273  77.7184248
  28.1087065  27.6479030  78.7806463 106.8302165  70.2118206  64.9674273
 106.4347525  70.1205349  64.1005325 107.6425564  69.7083139  64.9143362
  11.5195143  60.8956099  53.2407808  11.9442105  60.2228880  52.7085114
  10.6303620  60.5680037  53.3761072 106.2931247  52.9347134  55.1469898
 105.4694791  52.5300312  54.8748255 106.9302810  52.6429510  54.4949627
  87.4865053  41.4313976   3.4990366  87.6149604  42.1393577   2.8677519
  88.2572386  41.4725391   4.0651662 107.7812086  96.3556862  27.8816390
 107.0909650  96.3270569  28.5441923 108.5003693  96.8244457  28.3050871
   8.8318884  64.3476200  63.9308596   9.7741461  64.4751167  63.8207388
   8.6609310  63.4854746  63.5517645 105.7812534  47.2643089  45.0790167
 105.1495625  47.1099567  44.3766117 106.2123547  46.4188004  45.2035093
   1.8494762  92.7354908  80.0099754   1.8151920  92.4723721  79.0902853
   2.0668030  93.6673450  79.9845505  13.4548795  57.8897190  43.3249378
  12.5014412  57.8645134  43.4058809  13.7748146  57.5074530  44.1420937
   8.4464139  81.7593384  48.9537287   9.3508893  81.6054916  49.2266512
   8.3529079  81.2602901  48.1422806  32.3993659  93.4917355  44.6237993
  33.0053377  92.8446007  44.2629099  32.7628636  94.3357563  44.3559504
   7.3248446  74.0594482  59.3612671   7.3926502  73.1248426  59.5565748
   6.5404201  74.3456364  59.8292494 100.4765637  61.4029026  46.9596004
 101.2401045  61.2069607  46.4166021 100.8170046  61.4209080  47.8540277
  81.6062297  49.3353844  54.7322655  80.6950749  49.2912912  55.0222349
  82.0197738  49.9533367  55.3350449  25.5099773  65.3178644  39.4581532
  25.7576394  65.5995893  40.3387928  26.0379624  64.5353413  39.2996716
 109.3290295  80.1650047  40.5627584 109.2597740  81.0165024  40.9944868
 108.7012978  79.6100473  41.0255766  22.4757290  71.1102962  72.2815228
  21.7000580  71.0657215  71.7224360  22.2422242  70.5990124  73.0563116
 103.1477286  64.7841454  49.1849089 102.6897861  64.9147463  50.0152493
 102.6444353  65.2949667  48.5508823  34.1078234  77.9998684  47.6772547
  34.4236898  78.6945772  48.2550383  33.4841490  78.4361649  47.0968199
   3.8691694  92.6060677  22.4185038   3.0480784  92.6283550  22.9099774
   4.1412383  91.6888237  22.4481678  90.3598441  71.2336731  51.9850445
  90.9548534  71.8611097  51.5745401  89.6836818  71.7755651  52.3917246
  21.8477774  92.6429844  52.8844261  21.4565802  91.9323540  52.3762894
  21.8926811  93.3780766  52.2729969  81.8613743  21.5590204  32.5993967
  81.0747837  21.3439287  33.1006384  81.5326952  21.9959177  31.8136978
  93.9621020 102.4891663  57.3141384  93.4204150 102.5617886  56.5283060
  93.4823049 102.9791832  57.9819012  97.3253490  74.7109270  50.4098082
  97.6143206  75.5210018  49.9896812  96.9920744  74.9892235  51.2628698
  11.5922165  58.8655853  59.6759272  11.8375432  59.2202997  60.5304575
  10.8430791  58.2983065  59.8581839  99.0260876  67.4430943  54.1489410
  98.7011040  67.6419544  53.2708311  98.2392086  67.4051046  54.6926403
   6.3304150  40.6301785  69.7548819   6.8753666  41.2299204  70.2643585
   6.7900187  40.5393839  68.9201641  23.5306406  81.2945652  54.7768974
  22.9840946  80.5088425  54.7897768  22.9529285  81.9827938  54.4470263
  20.5540490  83.9419079  60.2615213  20.6889749  84.6086311  60.9349442
  20.8934069  84.3393612  59.4595861  17.9449284  92.6927185  29.0627360
  17.4438405  93.5073662  29.1013217  17.7785063  92.3505306  28.1844187
  16.3931990  40.6265116  45.0019455  15.8819163  39.8837972  45.3231859
  16.2043500  40.6595707  44.0641403 103.2839210  69.1349697  30.3926468
 103.9326508  69.7778797  30.6790876 103.6388279  68.2930708  30.6780982
 108.7844580  82.1552181  71.8013048 109.1675150  82.5157928  71.0016251
 109.0454194  81.2342834  71.7977524  18.6025596  63.5412502  26.2331295
  19.2676151  62.8651524  26.1034417  18.0126083  63.4433985  25.4857254
  89.0972842  58.4910488  87.1566200  88.8370551  59.4070625  87.2537518
  89.5555998  58.2845974  87.9712105  21.9415450  88.9663410  38.4496188
  21.3571167  88.2164288  38.5606146  21.3556933  89.7219658  38.4046030
  34.5126923   2.8805269  65.2748251  34.6469122   2.6183141  66.1855745
  33.9887521   3.6796678  65.3303957   1.3344093  72.9341412  74.7525597
   0.6640122  73.6041737  74.8861980   1.8230452  73.2337809  73.9859533
  95.8197452  56.7054605  63.9182758  96.1717941  56.1660290  64.6263027
  96.5719761  57.2053814  63.6013222  27.0590329  89.9281597  51.5798950
  26.1402464  90.1942062  51.5440130  27.5054216  90.5273533  50.9816170
 105.3956173  83.8792896  20.2097797 106.2960688  83.7059593  20.4843187
 104.8561032  83.4817982  20.8932662 106.0346846  91.0310173  82.4423695
 106.1143304  90.5717564  81.6063213 105.2863116  91.6159534  82.3239708
   9.2713380  35.6447291  71.8805218  10.0692022  35.1160645  71.8930960
   8.9680135  35.6422067  72.7883863  13.9549947  65.1098013  74.1325140
  13.5114574  65.9367609  73.9437103  13.2508159  64.5124149  74.3844891
  26.4236121  12.3877920  43.2445049  26.3295292  11.8341459  44.0196466
  25.5747269  12.3318685  42.8057575  65.1603674  99.7159079   4.0742643
  64.8533653  99.3593052   3.2407148  64.3708967 100.0580004   4.4937189
  27.1123385  23.7741828  76.9376326  27.9879141  23.4161186  77.0838881
  26.7711282  23.2765722  76.1945391   6.3760811  92.3169994  52.4354172
   6.6780865  92.7113342  53.2536650   6.8632764  91.4955616  52.3712826
  76.5054517  53.0827639  88.7803936  76.8280914  52.5085947  88.0857994
  77.2880157  53.5269281  89.1067955 107.6214054  39.2967582  73.8185883
 108.2628367  38.9595866  73.1931973 107.1480886  38.5205865  74.1181850
 107.4846781  66.9963598  67.9784870 106.7681102  66.4722776  67.6205778
 107.0501305  67.7229261  68.4251451  11.3265240  82.3869610  78.3190203
  12.0291615  83.0362129  78.2872868  11.3974679  81.9164753  77.4884558
   8.6538190  96.3725090  14.9507773   8.6434758  95.5749035  15.4798722
   9.5740563  96.6352367  14.9315166  98.0311860  73.8146162  34.6105766
  98.1241549  74.6913338  34.9833417  98.5567678  73.2545137  35.1817870
  96.2937952  86.0416698  72.8903437  97.0090855  86.2299347  73.4979248
  95.7287587  86.8127537  72.9392958  39.7461793  38.8848106  10.5374296
  39.8143051  38.2818691   9.7971304  39.5618556  39.7348586  10.1378305
 105.1907353  49.0424299  54.2303896 104.8311896  49.9062872  54.0286207
 105.0955595  48.9590311  55.1791859  22.9428005  61.0707569  68.4332275
  22.5131440  60.7987499  69.2441797  22.2933030  61.6160154  67.9892969
   0.4195455  59.6690798  42.5673056   0.3619818  59.7527266  43.5191011
   0.9796847  60.3964615  42.2963858  10.7115614  42.0470142  50.2680969
  10.4186296  42.4334764  49.4428253  10.1322031  42.4260950  50.9290600
  98.2629038  70.5502939  81.7544079  98.7573625  70.4517412  82.5680637
  98.8804771  70.9569931  81.1466026   3.7274799  48.0254841  59.3140030
   3.9479357  48.8109970  59.8146009   4.5583385  47.5592232  59.2217636
 105.2025522  63.1135321  66.2955093 105.9819205  62.5583553  66.2711334
 104.6885739  62.8382778  65.5363703  18.2093740  62.9128313  29.1048956
  17.4282920  63.3963919  29.3738103  18.3553195  63.1792593  28.1971788
  11.3414347  80.6225586  23.3302641  12.1918499  80.1923656  23.4195137
  10.9412634  80.5440712  24.1962528  95.4156483  55.3847551  61.4482546
  95.9932984  55.8152390  60.8179855  95.2707423  56.0424757  62.1284294
  91.4301432  51.6315842  18.8600624  91.1261071  50.8774042  19.3650413
  91.6885627  52.2739410  19.5209968   1.8552215  71.5760708  23.4448314
   2.7563775  71.8690109  23.5802412   1.3629869  72.3813772  23.2854056
  31.8978930  72.9323435  47.2499180  32.3075509  72.6576185  46.4295864
  32.6289034  73.2130051  47.8004503  19.9423683  48.6702347  59.3200493
  19.6965837  48.3929253  60.2026176  20.0298977  49.6213102  59.3834972
 104.8382751  13.3391643  54.8358870 105.2290569  12.4980259  54.5992327
 104.6361352  13.2556272  55.7677650  28.3758354  87.1550560  57.8340721
  27.7514815  87.8804016  57.8171253  28.1175733  86.6344452  58.5946655
  24.4658566  95.8290100  12.8439867  24.2190194  96.2698555  13.6569810
  25.0508738  96.4463806  12.4048460  78.2537912  35.3217710  27.9655886
  77.9118513  34.5619691  27.4944139  77.7382969  35.3557981  28.7714028
 108.0709538  57.9097033  63.0447865 108.7547834  57.3604441  62.6614809
 107.4181191  57.2887611  63.3680058 108.4891361  85.6751060  35.4536867
 108.1970117  86.5737820  35.3011036 108.6140503  85.6214714  36.4011860
   9.0890419  91.1034012  67.7119589   8.5741580  91.1536312  66.9066000
   8.4437460  91.1847019  68.4142494   1.4231522  48.9937305  15.3728580
   0.6866370  49.3517017  14.8772418   2.1992537  49.3067980  14.9082220
  80.2687801  77.9281616  70.8207130  79.7565211  78.0811310  70.0267220
  79.8746241  77.1494389  71.2137270  28.9640920   9.4287027  61.6133738
  29.1789835  10.2309240  61.1374569  28.0971705   9.1833795  61.2901211
   1.1201832  46.6511345  32.5894380   0.9225938  45.9583426  33.2197022
   0.4859651  47.3408747  32.7850270  28.7181044  84.6143532  76.0534906
  28.3009958  84.2602634  76.8389034  29.1387725  83.8582516  75.6441212
  27.2365928  60.6461000  50.5084562  27.1962762  61.0961533  49.6646214
  27.9754019  60.0434685  50.4234362  89.0839089  77.8808832  46.5936899
  88.6106576  77.1477127  46.2003422  88.4304227  78.5765409  46.6661119
   2.6044595  88.3631897  17.6027000   2.0302895  88.8419628  17.0049250
   3.3631197  88.1274891  17.0687413   1.8434849  92.5323105  42.3970652
   2.6878265  92.7115345  42.8108263   1.3152415  93.3081436  42.5848866
  30.0941300  83.8744640  85.5016613  31.0238004  83.7686443  85.7035255
  29.6452999  83.3272266  86.1461067  11.9417167  58.9665890  36.9485855
  11.9326532  59.6275902  36.2563229  11.4623451  58.2254124  36.5783310
  88.1702611  38.2588569   5.2762849  88.3454273  37.3264591   5.1490934
  88.8912711  38.5651580   5.8263357   6.3250142  49.4726515  29.3961620
   7.0623749  49.7032261  29.9612880   6.6812950  49.5140982  28.5087061
  38.3880877  91.3728619  76.3462162  38.1160712  92.2901440  76.3750553
  39.3423939  91.4079857  76.2806368  21.8787861  72.0586824  51.2676477
  21.1503077  71.4591122  51.1061859  22.6007962  71.7034054  50.7492733
   0.3322028  77.7111816  16.1230612   1.1349928  77.3278141  16.4763212
   0.1160446  77.1620798  15.3694057  65.5728306  78.2449055  60.1727533
  66.1702455  78.5136604  59.4748259  65.9826053  77.4677849  60.5527544
  98.2456793  66.3409805  78.3577585  97.5279380  66.3324404  78.9910126
  98.9035977  65.7560253  78.7335348  81.7052292   1.2635625  28.0735636
  81.1625408   2.0421709  28.1980157  81.6129516   0.7741369  28.8909888
  37.0353031  40.1563978  52.2484112  37.6109195  40.3450775  51.5072632
  37.3565388  40.7214594  52.9510832  16.6553664  85.2554512  80.3494358
  15.7046163  85.2007771  80.4459572  16.9832087  84.4485092  80.7464218
  61.2766527   2.0577444  81.2417221  61.9026660   1.6783155  81.8584633
  60.4376005   1.6626085  81.4785671   7.4167055  80.8508396  75.0349855
   7.9321420  80.2007389  74.5575714   7.6191097  80.6874752  75.9561682
  71.1985062   9.4058431  35.1814270  71.8801998   8.8201726  34.8520041
  70.5158042   8.8193620  35.5072975  24.7634315  85.0529671  41.2593460
  25.6983614  85.2144623  41.3860607  24.3368602  85.5619621  41.9486809
  33.1457376  61.0226822  66.8026209  33.4312987  61.8801880  67.1178484
  32.8930044  60.5483246  67.5946760  52.6284181  12.7348054  79.2960405
  51.8934046  13.0256761  78.7562418  52.6543413  11.7857660  79.1740704
   6.6856390  92.8682709  40.8597898   7.5798160  93.1283474  41.0812378
   6.2393373  92.8023720  41.7040110  12.7930391  83.3259392  47.4974728
  12.6512492  83.9983177  48.1638288  12.4878204  83.7270546  46.6837311
 103.3747227  51.3310051  56.2256908 103.7531246  50.5108070  56.5424156
 102.9006590  51.0850668  55.4313278  23.9013600  35.9646463  61.1052704
  23.6471534  35.1423144  61.5240526  23.4098434  36.6362166  61.5781736
  42.0784645  33.5849966  87.7948952  41.6043930  34.2168249  87.2542667
  42.7153926  33.1903566  87.1992397  45.3575681   3.5239900  58.2265663
  45.3663270   2.5677694  58.2689857  44.6299087   3.7310613  57.6401711
  68.9063332  30.4532043   1.6097028  68.6450133  30.2916614   2.5162656
  69.6907664  29.9184219   1.4876325 107.9039059  52.6907015  34.4026518
 107.7972941  52.8048468  33.4582806 108.8512414  52.6989651  34.5394683
  37.3702597   6.3065542  37.7955294  37.3629978   6.6076768  38.7040997
  37.3074644   5.3534997  37.8585625  35.9023748   2.5349439  31.1749673
  36.4471945   2.4948896  31.9609690  35.4867274   3.3962453  31.2152839
  23.0477142  91.2967014  61.8230534  23.4730315  91.6862679  62.5869751
  23.5355282  90.4887581  61.6633654  14.7304833  85.9636307   4.2025840
  14.7863030  85.5741310   3.3299983  14.3242288  86.8181705   4.0578854
  88.3564160  35.4729167   5.4211671  88.3369336  35.4791156   6.3781507
  89.2706416  35.2937118   5.2013738  31.9260015  17.0400060  39.5658970
  32.6752548  17.0792020  38.9714956  32.2719787  16.6345609  40.3609753
 102.1063991  72.9957914  86.5988159 102.7904434  73.0465412  87.2664547
 102.5716085  73.1099987  85.7701015  97.0394541  86.1901283  55.8001089
  96.1085881  86.3277817  55.6246948  97.4763120  86.4420605  54.9865294
  86.7227281  73.3934689  63.5523224  85.7717336  73.4774494  63.4831333
  87.0611752  74.2272282  63.2259321 105.0825558  92.4017620  66.3233042
 105.7692004  91.8843842  66.7441034 105.2457086  93.2986927  66.6150475
  93.4318436  97.1595287  77.6991463  93.8141490  96.9802856  78.5581827
  92.7517165  96.4939213  77.5960636   5.3324383  91.2773895  77.8927469
   5.9417647  91.6157818  77.2366619   4.8531631  90.5838680  77.4393654
 102.7236099  88.3061981  72.3524809 103.1246371  89.1523170  72.5512075
 102.9057885  88.1671810  71.4231205  51.2983751  78.2262850  59.8216438
  52.1672821  78.2009125  60.2223825  51.4686394  78.2166004  58.8797569
  18.5133958  87.3408413  40.9470034  18.5247326  87.1330833  40.0126934
  17.6899707  86.9703960  41.2647676  99.4084461  70.2902269  86.3125229
  98.9631559  69.5067549  86.6351986  99.0171398  71.0094547  86.8083286
  89.8857106  72.4247217  72.7176952  90.7793952  72.1026945  72.8354168
  89.6644391  72.8292322  73.5565281 109.1612834  52.6797771  56.4926195
 109.9436220  53.1900358  56.2833023 108.4515554  53.3220005  56.5008068
  78.5803055  88.5379055   4.7880705  79.3716120  88.6925128   5.3039892
  78.5823940  87.5950411   4.6230371  26.5748978  60.3901529  20.8590889
  25.7755566  60.0583601  21.2679911  26.4440632  60.2420855  19.9225044
  35.6943798  69.7073793  55.7797813  36.1002612  69.0655565  55.1970673
  36.1875844  69.6346092  56.5968990  15.5783260  80.4449558  62.0759010
  16.4614928  80.3613186  62.4354172  15.1568341  79.6099854  62.2793674
  22.5859594  55.0091076  49.6086550  22.9074812  55.0201654  50.5101728
  22.3450541  55.9179354  49.4291210  11.8931091  68.7863207  54.4473743
  11.4394391  68.7781906  53.6045551  12.2717738  67.9105520  54.5240116
  16.4787412  76.1231232  31.4809847  17.4057448  75.8861017  31.4541793
  16.4664435  76.9985199  31.8679786  11.4688754  61.7747641  34.7819877
  10.9764481  61.3342476  34.0893912  12.3280585  61.3529778  34.7704077
  80.1630224  65.1406097  74.2497921  80.0909890  65.2887058  75.1927185
  80.9051074  65.6809139  73.9784813   8.0635983  92.4686813  59.0296793
   8.1327075  91.9832134  58.2076263   7.6647216  93.3029270  58.7823677
  32.7255893  88.3662415  32.6465297  31.8320823  88.5271740  32.3432541
  33.1276703  89.2343044  32.6785088  15.3353715  56.7198944  82.7935696
  16.2779474  56.5828943  82.8885174  15.1499987  57.4901915  83.3307076
  72.9020957  19.7217027  18.0371339  73.4825934  20.0766698  18.7103803
  73.4311245  19.7236673  17.2394140  79.6234392  13.7583459  85.1097202
  80.1495432  14.4515909  85.5082893  79.5100473  13.1126798  85.8072090
  15.9364486  67.0089436  72.8268051  16.3831198  66.2698698  72.4139166
  15.2506626  66.6068363  73.3599472 105.1340772  80.0479698  57.9378414
 105.4049705  80.6520462  57.2465086 105.2313961  80.5504894  58.7466860
 108.9972645  95.6488705  73.6233807 108.0594550  95.4683018  73.5590410
 109.0662396  96.5977669  73.5181952  21.1163855  32.4683738  31.6892076
  20.4219460  32.3840928  31.0358453  21.6447186  31.6776204  31.5805531
  99.4729901  94.8016930  37.9699254  99.6523614  93.9004326  38.2378817
 100.1168228  95.3258514  38.4463334  33.2508326  59.3131447  56.6762495
  32.7428603  59.8259926  56.0476112  34.1587520  59.4156790  56.3909388
  39.6291280  69.4811010  26.3540268  39.8632216  69.6434975  25.4402113
  39.9539995  68.5983324  26.5312552  88.0685891  97.6532650  35.7523966
  88.0699505  98.2596874  36.4929843  87.8497924  98.1985378  34.9967289
  78.4595582  30.7355396  10.1404627  78.5109613  31.3898364   9.4436987
  79.3643889  30.4509536  10.2690084  28.6884236  75.3898287  71.1936998
  29.1964388  76.0793781  70.7663012  29.2520976  75.0819874  71.9034433
  26.4113210   5.2154363  49.5776939  26.9966887   5.6987012  48.9945745
  26.9934200   4.6546472  50.0904369 106.4721310   3.1709112  35.9620595
 106.6477120   4.0111841  36.3855553 106.9606698   3.2103742  35.1398635
  54.5910597  95.2144337  52.5957108  54.5078516  96.0092640  52.0688725
  55.4107094  95.3303623  53.0763102  12.1928728  84.8488426  49.9700832
  12.7163136  85.4235458  50.5286217  11.6563725  84.3443203  50.5815220
   7.3913556  39.3493891  53.0642414   7.6561105  38.9404678  53.8882065
   8.1173891  39.1739368  52.4656391  30.3600907  94.1910076  61.3986301
  29.6205139  94.6249104  61.8240547  29.9709105  93.4422016  60.9468937
  94.7242285  88.3664989  56.4998579  94.8464073  88.5366440  57.4338579
  94.1506625  87.6007938  56.4689207  19.9536955  91.9002819  77.8075552
  19.7975731  92.5836563  77.1557474  20.8512020  91.6117668  77.6418209
  43.9629698  90.8983707  76.3155890  44.3378735  91.4079762  75.5972719
  44.1664219  91.4060783  77.1011305   1.2942553  94.4273090  53.1266785
   1.1887913  94.6728516  54.0458202   2.0881911  94.8828220  52.8466606
  23.8425875 101.5958500  82.0293522  23.8146925 102.0546436  81.1897373
  22.9345703 101.5952396  82.3322392  74.0327824  69.4885492  18.9942896
  74.9138249  69.7254658  19.2838860  73.6040677  70.3266954  18.8212383
 102.0090808  91.6931438  54.3261147 102.7623404  92.0220375  54.8166895
 101.4528323  91.2825966  54.9881315  63.4043812   1.0354150  65.3827333
  63.0143784   0.3012193  64.9082994  62.6596497   1.5837110  65.6296682
  94.7728146  97.5828266  56.8473387  95.1265622  97.1332073  57.6147604
  94.9365867  98.5105896  57.0166683  40.5222230  10.6179155  74.9060965
  40.7570617   9.8222459  75.3835773  39.7392030  10.9420217  75.3511429
  18.3932137 102.0904922  63.7167454  17.8596270 101.4954185  63.1900454
  19.2478549 101.6626644  63.7695599  26.2879014  83.7341022  50.9191990
  25.7199287  83.1103706  51.3715267  26.1568451  84.5594692  51.3859224
  31.1049771  78.7295198  84.5314693  31.0087037  77.9646969  85.0989246
  31.5300012  79.3856144  85.0838470  10.7395411  82.1917629  36.5727949
  10.5104649  81.3312149  36.9238138   9.9094057  82.5517941  36.2605786
  15.1756358  98.1188107  68.4146023  15.1805520  98.0314350  67.4614096
  16.0988021  98.2066822  68.6518288   9.2823315  85.9698963  10.0895214
   8.6058974  85.3972626   9.7279084  10.0539804  85.7999039   9.5492476
 105.7290737  79.1203833  69.5828485 105.2104462  78.8996744  70.3565025
 105.1977814  79.7638702  69.1139317  73.5363926  90.0529289  46.0957670
  73.5512818  89.1263771  45.8559275  73.2371963  90.0602055  47.0049763
  11.9362354  89.5307636  77.1057081  11.8942308  90.0213623  77.9265499
  12.7807438  89.7722626  76.7252874 107.2640551  62.1619558  49.3856382
 107.2286723  63.0024862  48.9290333 108.0803834  62.1945190  49.8844194
  97.3099817  68.6383438  41.9949007  96.9689990  69.0676212  41.2102413
  97.5513436  69.3592024  42.5765657  95.5273412   0.5847944  74.0630484
  94.5865225   0.6933511  74.2019939  95.9127973   0.7021726  74.9313068
  43.1891775 101.0720348  33.4617424  43.3883047 100.2223301  33.0685735
  43.9529181 101.2700558  34.0037012  46.3679600  69.2164946  56.1947346
  46.0127068  70.0750494  55.9647226  46.5923691  69.2908144  57.1222830
 106.2551476  89.2363930  59.2785168 105.9594319  89.7777748  60.0104237
 106.6872023  88.4892654  59.6924829  31.4320445  91.8475628  74.2412186
  32.1980953  91.7260838  74.8021460  30.9480691  92.5657082  74.6489811
  49.0634489  80.9416866  54.7805023  48.2513523  81.3942337  54.5526171
  48.8278389  80.3866100  55.5238771  30.4688811  69.2626381  52.5133324
  30.7211852  70.0792599  52.0823956  31.2795329  68.7557316  52.5593758
 104.1603155 101.5552425  84.4819832 103.5013581 100.9858513  84.8792267
 104.9751986 101.3268471  84.9292374  85.8340143  22.0303358  78.1988525
  85.3527139  21.2655748  78.5146523  85.4239582  22.2418703  77.3602009
  43.7808363  10.8208669  45.2521801  44.1586446  10.1559556  45.8278418
  44.4955115  11.0612501  44.6625280  80.9225868  13.9539731  75.3025866
  81.1375450  13.0791868  74.9789143  80.0404571  13.8657297  75.6635427
  85.0847496  64.6384621  48.3271790  85.6978477  65.3624153  48.1997585
  85.0782813  64.1794252  47.4872541  50.2033185  13.1923784  71.8497276
  49.6666216  12.9186071  71.1059284  49.5773255  13.3208097  72.5623798
  90.5219314  52.8588191   1.8913992  91.3771186  53.1814567   2.1756418
  90.5385742  52.9439346   0.9381349  98.7799431  92.1795559  15.1680899
  98.6879696  92.2371387  14.2170596  99.6485658  92.5397396  15.3469598
  38.2410860  54.5582056  52.8338861  38.3633208  55.3341198  52.2868490
  39.1107249  54.3771648  53.1905174   7.1983433  63.4979200  76.9262314
   6.6206521  64.2489147  77.0622969   6.6099381  62.7850962  76.6774559
  95.2769436  84.6238613  69.2437077  94.7190953  85.2456379  69.7110748
  95.4642810  83.9399338  69.8866558  18.7598562  83.1269360  77.2377634
  18.0149436  83.7212658  77.1476889  18.4631526  82.3088837  76.8390417
  61.8317984  17.5098909  45.1786661  62.4646591  18.2179273  45.2986479
  61.2561702  17.5714315  45.9409666  87.6263403  34.9165929  74.9620056
  87.5271391  35.6498445  74.3547726  88.2112240  35.2475370  75.6436348
  12.2817349  74.8556519  47.3811388  12.6328981  74.0331554  47.0399380
  13.0262482  75.4571438  47.3693609  21.3228917  95.9925556  39.3109655
  21.9534945  95.8844948  40.0229311  20.4966021  95.6715202  39.6720910
   7.0532399  85.0619984  76.4410639   6.9461179  84.5898724  75.6153202
   6.7422479  84.4505596  77.1086454  23.0937505  42.5041723  34.2291403
  23.8758254  43.0000448  34.4714189  22.7039075  43.0063248  33.5135293
  39.4720449  25.4050172  66.7570066  39.4729148  25.1248563  65.8417225
  38.5551696  25.3444494  67.0251560  90.1032163  78.4351397  89.2948151
  89.7259785  78.7431240  88.4707546  90.6706668  79.1509914  89.5807934
  18.7263060  64.9067593  36.7390037  18.5489655  64.0222025  37.0589185
  17.9827750  65.4258537  37.0454931  90.6214453  92.0621967  33.5021663
  90.2695943  92.4733162  32.7126002  91.5441145  91.9066620  33.3003783
  12.8726482  86.9075871  52.7017164  12.3752153  87.7185440  52.5961733
  12.2458291  86.2892723  53.0772400   7.5501806  86.1055851  61.6110325
   8.3648151  86.5416050  61.8610191   7.7789348  85.5992889  60.8315706
   2.5970124   2.7700342  59.8225164   2.6247524   3.3506025  60.5830431
   3.4344481   2.3069204  59.8440456  75.0191439  84.6059608  21.9362640
  74.3072332  85.2440739  21.8890786  75.1080812  84.2796803  21.0407948
  29.3463676  10.0789560  39.4694901  28.6869680  10.5193437  40.0056601
  30.1558809  10.5594552  39.6427941  24.0232515  82.2959232  79.1442728
  23.1922984  81.8774700  79.3693113  24.6132755  82.0565033  79.8589611
  19.0932870  85.8456421  56.3699532  19.6329188  85.0554466  56.3448238
  19.3271792  86.2692356  57.1958399  57.0705746  10.1331247  48.4823895
  57.5148224   9.9242605  47.6606560  57.4715637  10.9534372  48.7696648
  29.9987102  57.6540613  56.9140625  29.6731067  57.1795225  56.1491919
  30.7916141  57.1822929  57.1689558  63.6085510  89.4165993  74.6833801
  63.9390850  90.2731037  74.9542713  64.3933535  88.8779163  74.5826817
  80.6754578  51.1323929  64.0576220  81.0525979  51.2549019  64.9288225
  80.4166878  52.0120144  63.7827921  49.1717720 102.3653603  73.7435818
  48.3108044 101.9937515  73.5515642  49.0634632 103.3059502  73.6028671
  98.8090802  59.6812487  68.6498547  98.2800783  59.1758347  68.0326462
  99.4365151  59.0493679  69.0009642  36.2636087  18.2057203  58.1131268
  37.1291745  17.8675378  58.3425999  36.4427139  18.9826406  57.5834513
  14.5683968  77.5646591  59.1328955  14.4135606  77.3373795  60.0497389
  14.8609030  76.7473173  58.7296247  61.5410898  12.3252574  -0.0187342
  60.9559057  11.5678254  -0.0095217  61.6599522  12.5473443   0.9047277
  19.1408348  54.6909332  69.3877840  19.5801449  53.8778782  69.6371412
  18.4487629  54.7990417  70.0401497   7.7219318  91.9037846   4.0353544
   7.8515600  92.2084501   3.1372411   7.4258255  90.9984615   3.9407690
  45.8370178   7.3352540  67.5147581  45.9510272   8.2229246  67.8542852
  45.5688559   6.8203271  68.2757950  98.0768703  12.2036088  30.3852797
  97.8578495  11.2851919  30.5426311  98.0767940  12.2899259  29.4319773
  98.5021616  74.6943045  70.7578516  97.7658476  74.5443821  70.1648951
  99.2757143  74.6459341  70.1961470  12.3552656  99.8551369  32.3400116
  11.6078448  99.3399906  32.6436973  12.0709622 100.7648468  32.4285054
  17.1585369  87.4540043  24.7201347  17.4066567  86.5296364  24.7347593
  16.3767207  87.5008774  25.2704072  62.8007458   7.9200567  45.0072718
  62.8590344   7.8581823  45.9606886  63.7103533   7.9785074  44.7149944
  21.3924813  69.8519993  85.9611130  20.7758379  69.5607090  86.6327763
  21.7380619  70.6794739  86.2959099  31.2067270  87.2814560  65.1316929
  31.8073750  87.1127892  65.8576441  31.6332340  87.9712582  64.6232653
 101.6609968  98.1334591  41.3940144 102.5549389  98.1027031  41.7348242
 101.1218156  97.7853107  42.1041632 108.3340666  25.9736720   1.9683607
 108.2877538  25.1074354   2.3729856 107.5852678  26.0001222   1.3726766
  19.7789252  83.3285332  52.6111937  20.1349211  84.2141247  52.6835060
  19.4032073  83.1502914  53.4733391 103.6609114  86.2075043  69.7572088
 104.0990306  85.5203438  69.2551136 102.7883722  86.2688923  69.3684435
  31.4908338  96.9969845  30.8910847  31.9796538  96.4046764  31.4624453
  31.2166953  97.7119064  31.4655066   2.3092003  64.2997646  49.2074776
   2.7004558  65.1317263  49.4739199   2.7315560  64.0925455  48.3738661
  94.1810824  65.1573420  82.2742367  93.3374013  65.0803232  82.7197742
  94.4960095  66.0307646  82.5070095  35.6080604  98.3621597  13.3429682
  36.5426779  98.1781101  13.4370196  35.2616882  97.6064587  12.8684521
   4.1087461  46.1196327  36.8045545   3.9853185  45.1825714  36.9559193
   3.3050352  46.3993740  36.3663459  14.9799573  99.7390461  61.9087744
  14.2900205 100.0910473  61.3463593  14.5164180  99.4089603  62.6784563
  66.8952702   9.0367616  22.5348806  67.1594023   8.3681215  21.9029069
  66.2183427   9.5399583  22.0823407  29.2824769  67.5337696  64.8829269
  29.0478373  66.6350937  65.1143599  29.4721818  67.9552126  65.7211590
  76.3893557  12.6477901  39.7448213  75.4416207  12.5139943  39.7334726
  76.6380224  12.5222293  40.6605871  74.6926330  25.4593671  66.1971569
  74.4903444  26.3881982  66.3093662  73.8834904  25.0773920  65.8571339
  10.0163460  75.1950312  70.8590412  10.4814553  75.7249212  70.2116442
   9.9753457  74.3218565  70.4690266  25.6041265  93.8651180  79.7768784
  26.3927650  94.2647171  80.1437569  25.3492403  94.4497490  79.0631104
   5.6915200  90.2924156  45.2002001   6.4750433  90.3960419  45.7401848
   6.0194290  90.2866840  44.3009377  22.9557157  69.6895933  65.7478333
  22.1558499  70.2086878  65.8314323  23.5279369  70.2191019  65.1924849
  51.9977163   7.6371301  39.8675275  52.3233210   7.9634012  39.0286207
  51.7249845   8.4232343  40.3406906   3.4822056  62.7329683  18.6861646
   3.7880924  61.9158173  18.2925534   3.7610850  62.6776600  19.6001661
  17.3524272  62.7821589  37.8339672  18.1876147  62.5339556  38.2303143
  16.6907990  62.4336290  38.4314656   7.9334545  87.7483559  44.7938156
   7.1021736  87.6225662  44.3362331   8.1567180  88.6658573  44.6370173
  49.1240250  15.1341547  52.3632860  49.3836604  15.8372606  52.9586601
  49.9143111  14.6041501  52.2594881 100.4654427  52.4988985  51.2085629
 100.2338285  52.7931452  50.3276539  99.8426623  51.7971659  51.3981628
  51.2396669  81.7464066  67.4995089  51.5129852  80.9626865  67.0227385
  50.4161644  81.4967251  67.9187155  25.8903074  33.2444596  37.3898029
  26.5343142  33.9180708  37.6082826  25.3347087  33.6509919  36.7247677
 106.0427378  42.1007109  18.3801305 106.9152416  41.7325020  18.2408857
 106.0423742  42.3757744  19.2969584  60.4319404  91.9071033   0.5339201
  60.6012033  92.8170994   0.7778413  60.7857107  91.3945320   1.2608011
  97.4851654  26.1376420  11.6655786  98.1717727  25.4901973  11.8256433
  96.9242809  26.0883037  12.4396665  59.7097729  18.6620439  60.2043533
  58.8243340  18.9008249  59.9300957  60.0879883  19.4787229  60.5302525
   6.1631900  51.0263729  36.0883498   6.7362076  51.3959122  35.4165435
   5.6361425  51.7672539  36.3875985   6.6616791 102.9894638  53.5451746
   5.9009916 102.6383877  54.0081263   7.3997515 102.4757004  53.8730812
  10.8856738  66.5163231  43.9799070  10.2003145  65.8790731  43.7788534
  11.6778421  66.1473513  43.5893154   8.3643073  85.1461792  51.4328384
   8.7820637  85.8501816  50.9367657   8.9904249  84.4230938  51.3960886
  89.0864505  82.1180725  32.9333806  88.3419312  82.6296806  33.2498908
  89.6331288  82.7523899  32.4696732  18.7735581  87.4961185  51.2914562
  18.7252021  87.6876450  52.2280550  18.2118154  86.7299843  51.1743450
  99.3953646  60.1199865  37.7584338  99.7705127  59.3917131  37.2633433
  98.6061646  59.7557259  38.1593204  62.2281193  13.9967264  76.3832617
  62.5501822  14.7310079  76.9060802  62.8601455  13.9158834  75.6689501
   8.8339943  98.3633614  61.6961479   7.9886812  98.6726379  62.0217562
   9.0533972  97.6243591  62.2635841  94.2182780  73.8546705  65.4325533
  95.0224174  73.5427237  65.0174856  93.5154177  73.5140038  64.8792267
   0.1840272  84.7871685  30.1816702   0.5534488  84.5040798  31.0181046
   0.3868886  84.0737915  29.5765471  57.5970315  12.9844774  60.6693697
  57.7090620  12.0583452  60.8837509  58.2886361  13.4291376  61.1594677
 103.2005657  57.1514082  67.1320057 103.5451121  57.5987196  66.3590670
 102.5587900  57.7614594  67.4955845  19.2622292  69.6194172  65.1450157
  19.5991075  70.4636717  65.4449892  18.9386690  69.7911835  64.2606878
  31.8946648  90.2826786  56.6741085  31.7322326  90.0466442  55.7607985
  31.4591718  89.5965576  57.1798944 107.5225812  81.4621639  61.1296797
 108.2014556  81.9367218  60.6499338 106.7133964  81.9315052  60.9267712
  14.8426878  97.8400993  29.7967863  15.0212038  98.4980488  30.4686975
  14.9129295  97.0033455  30.2562881 100.5808408  88.4883118  49.6538353
 101.5271343  88.6171532  49.5893383 100.2206458  89.3742752  49.6935081
  51.5607570  13.7679494  52.5346661  52.1681165  14.4913114  52.3794556
  51.6404699  13.5849489  53.4708214  46.1240768  89.1722393  15.3818595
  46.2481833  89.9244308  15.9606850  46.2842989  88.4113979  15.9401464
  63.0410384   4.8343671  72.8071928  63.3858298   4.3699468  73.5698652
  63.1017565   4.2000783  72.0928955  18.6936617  81.5616608  73.4393454
  18.7240374  81.4396858  74.3882561  19.4888592  81.1368942  73.1176853
  38.7036371  58.3572292  43.5623074  39.3169045  57.9871416  44.1972637
  38.8856220  59.2969084  43.5731697  29.9116635  83.9586353  41.5403748
  30.3299809  83.1104565  41.3925838  29.9054074  84.0600014  42.4921703
  73.0815696   7.3822607  37.5843835  72.3384713   7.9492773  37.7906299
  73.3528637   7.6525701  36.7071342  25.2009439  73.1990528  87.1406269
  24.3948650  72.9619789  86.6820812  25.2155709  72.6291466  87.9095364
  30.1673102 101.8175507  59.8328638  30.6269932 101.3126755  59.1620255
  30.7753348 102.5203133  60.0623655  21.5169883  94.0777016  29.6143341
  22.3196793  94.5956230  29.6749330  21.5610623  93.6678219  28.7504554
  66.1420773  23.0113233  56.6249847  66.3976573  23.6271776  57.3117447
  66.0283397  22.1775449  57.0811701  24.1187572 100.1863098  61.2062979
  23.2758689 100.6057835  61.3789749  24.0901089  99.3740559  61.7119169
  87.9491911  66.9410316  20.6835611  87.6947138  67.7621642  20.2625902
  88.7979934  67.1299926  21.0836370  41.6115236  79.5266104  52.1959782
  42.4707127  79.9483252  52.1825123  41.1697149  79.8581266  51.4142275
  44.7012501  11.6676916  70.1456451  43.9831172  11.6761030  69.5128393
  44.2851411  11.4402784  70.9771299  48.6139082   4.9711908  50.3861761
  48.9862930   5.8503450  50.3179979  48.1137906   4.8595632  49.5776892
   3.8464710  91.6848564  61.1057520   4.5565572  91.0643864  60.9413624
   3.0588168  91.2332439  60.8026361  84.8384594   7.8195775  15.7608020
  85.0347065   7.0926202  15.1698279  84.0723537   7.5268663  16.2543964
  18.1869090  80.6854057  62.9064894  18.5787594  80.1103306  63.5637426
  18.7480736  80.5873013  62.1372700  48.1992245  81.1040306  63.4743214
  48.1420422  80.4422379  64.1635180  48.5074711  80.6236172  62.7059364
  75.8671640  33.6237253  34.1287518  76.7634844  33.7664426  33.8246536
  75.7533597  34.2518438  34.8420143  11.9685411  55.3878975  62.0714808
  12.7644980  55.9195805  62.0714140  11.5585840  55.5703211  61.2259674
  15.6806076  75.3194952  58.1215620  15.7678294  74.9248886  57.2538567
  15.6954384  74.5766735  58.7250805 107.3759402  96.7339897  45.7120562
 107.5369711  96.9248772  46.6360998 108.2105843  96.3949680  45.3885317
   0.2147055 100.2141380  53.4880686   0.2942645  99.3465137  53.8844633
   1.0661477 100.3697109  53.0793190  20.4001594  78.4681320  58.7643480
  20.9382772  78.0596781  59.4424582  19.5580184  78.0168867  58.8227463
  71.5562819  17.1114839  16.9341111  71.5639209  17.9177202  16.4182031
  72.0007156  17.3445047  17.7492261   3.5862246  86.8872547  77.1142101
   3.1877971  87.1945858  77.9284763   2.8950363  86.3832760  76.6846704
 105.7570724  80.3669453  39.1711330 106.0283558  79.6714401  38.5720396
 105.8182595  79.9714470  40.0406599  36.7480125   6.3563360  43.2009983
  37.2624146   6.1190523  43.9725637  35.8546760   6.4558614  43.5300541
 106.1546875  91.5234280  36.6764402 106.4369563  90.6572533  36.3826919
 106.9200290  92.0826721  36.5432858 109.1903645  91.8484592  68.3504629
 108.3775272  91.4844608  67.9997015 109.4689608  92.4878883  67.6949120
  45.6906366  81.1138248  53.1491852  45.0210381  81.2676716  53.8156700
  46.1778212  81.9365692  53.1047440  40.6895049   2.5637163  65.2292824
  41.5820234   2.4862398  64.8921824  40.4268651   3.4573377  65.0086117
  32.6233636   7.4406064  80.0048733  32.6659598   8.2243360  80.5527592
  33.3361395   6.8867315  80.3233147   4.3532893  96.1509609  37.5163770
   4.2112580  96.3099957  38.4495258   4.4047940  97.0250034  37.1295691
  73.5126756  27.1060575  63.3398724  73.0121516  27.7927793  63.7804651
  72.8484749  26.5085996  62.9961967  82.1152281  27.2369302  74.3864584
  82.5524114  27.4205507  73.5549641  82.2916912  28.0081380  74.9252748
  25.4917537  22.6454938  71.1635685  25.2102374  22.3921884  70.2844715
  24.9137782  23.3707918  71.4004564  58.0311369   0.3077520  27.9991579
  58.9038275   0.5511774  28.3080077  58.0376695   0.5251993  27.0670080
  93.9812661  67.4684429  51.3829136  94.4071294  67.5149727  50.5269289
  94.6360089  67.0677042  51.9547081  42.3826008   3.4716619  55.6499910
  42.7872335   3.3067335  54.7983408  41.5775292   3.9469732  55.4446363
  32.0444608 102.8921318  56.5303278  31.9605064 102.4272537  57.3628378
  32.0879626 102.1985722  55.8720541  10.1340771 100.6218147  60.9839487
   9.6281832 100.6578159  61.7957449   9.9700344  99.7444439  60.6382179
  14.0250134  63.4531355  62.3881674  13.3459806  63.4496784  61.7135286
  14.2866707  62.5359774  62.4693346  25.5848002  81.2049580  49.0506315
  25.5001807  81.7372513  49.8416662  25.3667569  81.8025303  48.3353710
   8.3022273  88.5807896  10.2450478   8.5450369  87.6552677  10.2186704
   7.7905172  88.7169743   9.4476533  19.5030189  54.6044970  55.5313730
  19.6644413  55.2478313  54.8412323  19.6774757  53.7595749  55.1167536
  94.3729566  14.4828237  50.6382036  94.1275953  14.5605958  51.5601492
  95.3057455  14.2687620  50.6558371  95.5703355  54.9483824  45.7972574
  96.0974802  54.8229694  45.0081968  94.9713696  55.6609869  45.5743980
  72.3166178   5.4525770  80.1857567  71.6195701   5.2020277  80.7920456
  72.4187611   4.6936620  79.6114397   1.7807970  -0.1993739  25.8961439
   1.0132608   0.2006353  25.4873538   2.4956617   0.4095281  25.7105827
  25.7141113  72.3094082  80.5970287  24.7988009  72.2763538  80.8751392
  26.1618137  71.6891479  81.1724091  24.9159312  84.9018097  34.7919321
  25.4936790  85.2539062  34.1148281  25.3530979  85.1175022  35.6156993
  88.2441128  73.4595966  66.0038805  87.6806606  72.9201889  65.4490900
  88.4569205  74.2195082  65.4621410  83.7451854  37.7130434  69.5330315
  83.1221642  38.2643149  69.0595500  84.5810213  38.1725046  69.4523518
   7.2767299  47.4197340  38.2881021   7.6123387  46.8160582  37.6253986
   6.4374018  47.0429230  38.5522437  27.7951646 100.7518101  60.9661961
  27.6916766 100.0021076  60.3801394  28.5370970 101.2372112  60.6054306
  14.4169092  97.6095009  65.7674265  13.6857772  98.1650257  65.4971313
  14.7396123  97.2249699  64.9524164  55.8784199  83.4603310  58.4028101
  55.1206112  83.3214951  57.8347588  55.7079792  84.3005943  58.8284159
 107.9995359  90.7110500  61.8805075 107.7174747  90.6703949  62.7943039
 107.7759727  89.8519897  61.5223837  22.2162509  99.0353680  52.4364233
  22.0531440  99.9784851  52.4492645  21.4068413  98.6477661  52.7693605
 102.1668572  93.8306808  49.3508959 102.1749867  93.3171272  50.1586294
 103.0903108  94.0036488  49.1677427  26.2167454  88.6561966  65.5293608
  25.5035877  88.8637733  66.1331415  26.8561292  88.1876850  66.0659409
  29.9954748  84.7269726  53.0509329  29.5127368  84.7587395  53.8768768
  29.5993423  84.0004730  52.5697803  51.9633590  35.7634462  51.3693380
  51.0610293  36.0347475  51.5379477  52.4789249  36.2199510  52.0341873
  39.6083117  71.9704914  68.0617762  40.0467730  71.4771986  67.3684883
  39.4834423  71.3344145  68.7660789 101.4143242  93.0006695  46.5025663
 101.7165680  92.7788258  47.3832846 100.5480803  92.5985336  46.4382410
   4.2272389  54.7743082  67.2089577   4.4094688  54.0605021  66.5978050
   4.8307833  55.4708481  66.9505119   4.3177029  66.4002800  38.5550857
   4.0146366  67.2968006  38.4114170   3.5460988  65.8576679  38.3925176
  36.3999319  68.2780266  42.3579597  36.1811447  68.1040621  43.2734394
  37.3499560  68.3950186  42.3568106  79.3739151  33.4012140  63.3324289
  78.5160326  33.1329454  63.6615229  79.4582580  32.9534353  62.4906349
  66.9039415   3.5900033  39.4375205  66.2395405   3.4246171  38.7686014
  66.8077873   4.5192541  39.6460056  17.1120286  87.8196526  58.6662102
  17.3021543  87.1992683  59.3699217  16.2548971  88.1815815  58.8910675
  16.6799581  62.0635986  79.4116688  16.4627504  61.3599157  80.0231266
  16.1099863  62.7884626  79.6684504  48.4595929  28.1217588  52.6310921
  48.1012033  27.4427045  53.2026482  48.2008814  27.8537572  51.7493486
  23.8872790  97.4839401  74.9207115  23.7105608  97.2477341  74.0101004
  24.7280335  97.0704174  75.1165771  55.2572356  23.6870779  52.1942806
  55.0331460  22.7616800  52.0960712  55.7997643  23.7198270  52.9822063
  11.2157547  91.5242958  14.0964675  11.5297663  90.8233833  14.6677303
  12.0043564  91.8527412  13.6646485  22.2176313  95.0645542  66.6806316
  22.6431489  95.0670242  65.8232212  22.9368258  94.9666882  67.3046637
  29.5923829  61.5529680  44.4149351  30.4573298  61.8644667  44.1483545
  29.0031838  61.8653917  43.7283039  40.7323694  80.1693916  49.8228073
  40.2052450  80.9478188  49.6427441  40.4280949  79.5217657  49.1870260
  12.3400557  78.1951141   8.6828530  12.9329109  78.7747335   9.1611755
  11.8697631  78.7749529   8.0838180  44.8563242 101.4164257  43.0701876
  44.8877430 101.5348434  44.0195179  43.9261007 101.4747143  42.8522062
  97.0361446  18.8746656  62.8649521  97.5013374  19.6257032  63.2334137
  97.5869535  18.5850538  62.1376514  77.5425791  11.7940153  35.0713062
  78.3012556  12.1593393  34.6161318  77.8750967  11.5532983  35.9360147
  14.1766155  66.9719648  53.6559391  14.3121636  67.8179121  53.2290554
  14.9015129  66.8980312  54.2766571  16.8538737 100.2577877  35.1009774
  16.8213809 101.2129974  35.1533580  16.4109588 100.0477886  34.2788076
  16.1935937  56.5996075  69.3272352  15.9218013  55.6836081  69.2697906
  16.7505181  56.7327499  68.5601997  20.4155564  80.4894924  66.2815809
  21.0716891  80.1964188  66.9139004  20.4966950  81.4432335  66.2768602
  47.5332546  94.9855614  41.2053394  47.9488039  94.8590660  40.3523779
  46.9750404  95.7542610  41.0881710  44.8256493  94.1771889  62.5382471
  44.4625950  93.4432697  63.0340052  44.5238686  94.9553776  63.0068445
  44.4613791  97.3841190  69.9649477  43.8993549  97.2284889  69.2059040
  45.3503275  97.3779392  69.6100426  37.7019713   8.3181394   5.1115930
  38.2842720   9.0232862   5.3943080  36.8279352   8.7080301   5.1284558
  74.0075206   1.8186677  32.0572186  73.2748793   1.8894590  32.6691461
  74.7283434   2.2733797  32.4929786   9.3257004  58.9132500  50.0043440
  10.0808656  59.0029335  49.4230366   9.6019351  58.2714510  50.6585741
  84.2703952  73.6641645  75.8027554  84.6822632  72.8560305  75.4969501
  83.6362327  73.8830233  75.1199913  14.7404909  62.4473715  52.9576254
  15.5445433  62.6474094  53.4369135  14.0814781  63.0240107  53.3441782
  42.5934553  74.7492170  42.5885439  42.9346514  73.8703537  42.7541208
  43.2571268  75.1638842  42.0373392   1.7730787  98.3396912  76.0589314
   1.3588776  98.3662701  76.9214678   2.2229734  97.4951458  76.0352039
  51.9889210  21.6032804  58.5643673  52.7559279  22.1721567  58.4987068
  51.2730669  22.1232904  58.1991720  66.3052152  29.0028108  47.7668190
  65.4548477  29.4216550  47.8997850  66.6644715  29.4314588  46.9900084
  15.6956409   6.1661542  25.5537176  15.5247854   6.6062749  26.3863826
  15.0466822   5.4635156  25.5166197  62.1953057  32.0549692  12.0950270
  62.2132157  31.9749082  13.0487049  62.6372312  31.2664331  11.7801368
  45.9334229   2.2260488  50.6181622  45.7314311   2.7245058  49.8263502
  46.2108319   2.8867067  51.2528324  14.0253949  84.6279049  43.1272125
  13.3927929  84.5053864  43.8350534  14.7241712  84.0026569  43.3196115
  49.5216762  33.5754026  59.2480850  49.6247684  33.9425767  60.1260328
  48.8091038  34.0821947  58.8586807  13.8811207  79.5993662  24.8706651
  14.1016436  79.1236067  25.6714463  14.4265985  79.1967535  24.1949511
  36.9230676  86.4052486  66.4479828  36.1676836  86.8505764  66.0641718
  36.6096306  86.0890770  67.2953463  60.3733181   3.6345685  55.6578541
  59.6754073   3.4268774  55.0365496  59.9863218   4.2846311  56.2442684
  17.5010252  71.7608166  58.0302048  17.2070229  70.8782959  58.2559252
  16.7448163  72.3189163  58.2116127   7.0656568  83.3022785  45.7030106
   6.6401172  84.0849304  45.3528738   7.9425859  83.5963917  45.9494352
  70.3257989  28.5016454  53.2466793  69.7400593  29.0423788  53.7765360
  69.8644995  27.6679815  53.1548214  35.1764688  14.9017824  87.3638153
  35.7224916  14.2418016  86.9365883  35.5576655  15.7379354  87.0959473
   1.1142725  92.8131008  25.5463576   1.2677808  91.8771458  25.6753612
   0.2945577  92.9873562  26.0088897  24.0424633 101.6861057  26.3989973
  23.5148001 102.4489212  26.1625409  23.6085534 101.3250351  27.1720338
  40.9295511  56.5128994  58.7906075  41.1292219  56.5004444  57.8545475
  39.9848223  56.3657045  58.8359642  68.9527153   4.6294607  50.5482960
  68.3747886   4.7019113  51.3078880  68.3785104   4.7725786  49.7959423
  58.1311415   0.1810850  38.0367088  59.0467356   0.4014982  38.2079864
  58.1221150  -0.1140105  37.1261764  47.8243494  88.0168343  50.3729820
  48.5720825  88.3836365  50.8447790  47.8893757  87.0728970  50.5178642
  71.2447547   3.3272756  28.0924678  71.8216347   3.2328905  28.8504481
  70.5848001   2.6435007  28.2071400  30.1289845  87.8598309  80.3616047
  29.6470547  87.0648289  80.5895424  30.5743074  87.6433754  79.5424175
  30.0879185   3.5890211  50.2129698  30.3981649   3.5261739  51.1163092
  30.2437757   4.5014299  49.9691248   6.2082857  66.2963772  58.1587601
   5.5961776  65.8944988  57.5422812   6.2380761  65.6883526  58.8974428
   3.2417259  95.7200718  44.7729969   4.0586719  95.7729626  45.2690125
   3.4895495  95.9517193  43.8779259  44.2095475   9.8268712  65.7495403
  44.8142658   9.9752153  66.4765501  43.7627952   9.0101922  65.9724283
 106.5205834  47.6459781  13.3505876 106.6178248  46.7111579  13.1692464
 105.8383272  47.9375640  12.7458246  47.0414495  94.5313168  59.1816092
  46.1250019  94.3990707  59.4242334  47.0668697  94.3612003  58.2399893
  57.4995947  97.3219776  46.9028187  58.2059240  96.6910648  47.0416737
  57.7291489  98.0651379  47.4607229  55.3792810  98.5551453  66.8406677
  55.5615044  98.3815670  65.9171438  54.4388962  98.4017467  66.9321966
  79.2462753  18.0578245  71.3764477  78.6021589  18.6492837  70.9871864
  78.7628196  17.2466291  71.5328264  41.3691521  94.5346260  58.1389761
  40.9993076  93.7909508  58.6147881  41.7045784  95.1138783  58.8232136
  27.4326687   6.1415208  40.6693220  26.6863130   6.0905755  40.0721741
  27.2241067   6.8720544  41.2516069 104.7698883  96.4360046  36.1662793
 104.8837556  97.3338604  35.8546376 104.5299710  96.5310192  37.0880389
  35.1859617  23.1189561  50.8542824  34.8904896  22.2584724  50.5568027
  36.1370730  23.0951405  50.7491589  84.5088758  89.8270248  54.7741032
  84.1039779  90.6731545  54.5834351  84.4094183  89.7216891  55.7202768
  94.1466249  49.2073822  35.8587098  95.0821472  49.3992567  35.9236145
  94.0381147  48.3818674  36.3309240 108.5580092  48.5642052  40.5141830
 108.5180252  48.2490683  39.6112299 108.7799614  47.7883816  41.0290241
  95.6458594  53.2246876  47.9332161  95.6482257  53.5104847  47.0196772
  94.8944355  53.6721992  48.3222294  20.7938623   4.6429333  39.3566895
  20.1051235   5.1932395  38.9838171  20.3901219   3.7793231  39.4427299
  96.4392770  37.3861027  29.2702985  96.2082578  36.6665649  28.6828232
  96.8039180  36.9560909  30.0438333 102.6385356  39.5242977   7.5500154
 101.9811596  38.9761090   7.1215570 103.3100845  39.6597123   6.8814975
  21.5073299  43.3017874  88.1918240  21.5750480  42.4780321  88.6746025
  20.8318782  43.7964916  88.6557865  85.1116909  54.0622330  78.3350754
  85.7881797  54.6614838  78.6505127  84.7306718  53.6909246  79.1308069
  76.8968023  10.1136529  28.3919358  77.0196332  10.3072155  27.4625945
  76.6412462   9.1914326  28.4127712   7.4388206  45.3839970  47.7216291
   7.8372312  46.2535286  47.7591991   7.5617689  45.1031780  46.8148470
  23.7091899  27.4546766  26.2876797  23.2345247  28.2541609  26.5151644
  24.6210241  27.6470947  26.5062380 103.1681467  63.0607748  60.6284475
 103.9318330  62.5058746  60.4700041 102.7808888  63.1882477  59.7624111
 105.1171533  37.2535586  26.2575459 105.1011319  37.2323108  25.3007150
 105.1549099  38.1847715  26.4758396  27.2701097  31.9401836  44.4865465
  27.2653890  32.3466897  45.3531265  26.7921305  32.5556350  43.9306784
  16.2949228  21.6929317   6.3652444  16.1295068  22.4066353   6.9812757
  16.3784611  20.9150457   6.9167399  75.8438672  48.4789562   9.5656121
  75.1747740  48.9444685   9.0637702  75.3637685  48.0767632  10.2894759
   1.7417783  45.8372784  38.9241886   2.1351781  46.2487078  39.6937323
   1.4624296  46.5711021  38.3767438   0.8869270  20.3527689  77.9604626
   0.0066135  20.7283616  77.9459953   0.7710718  19.4858098  78.3492994
   7.1173710  28.4739852  53.7097931   7.7666253  27.8542709  54.0424395
   6.4267606  27.9228139  53.3416939  47.5131845   9.5805079  36.0010815
  48.4272480   9.4248796  36.2387705  47.2575951  10.3437209  36.5191650
  95.8064140  36.8438148  58.9541864  95.7558716  37.3695612  58.1558943
  95.1560069  37.2329283  59.5388174   3.6704910  34.2340660  27.4077463
   2.7429062  34.4475389  27.5089741   4.0425029  34.3628383  28.2802463
  21.7179608  85.2444172  38.1884480  21.7705369  84.6968365  37.4051046
  22.5607157  85.1197147  38.6248493  14.1922510  14.9736297  58.0181599
  13.7470841  15.3475392  57.2577333  14.3611288  14.0637898  57.7734089
  97.4219276  26.6208863  22.8673887  97.1971584  25.7362032  23.1555676
  97.8644324  27.0128417  23.6202455  16.4375472  54.7086048   9.9545360
  16.6384995  54.9019432   9.0388566  15.7989478  55.3759527  10.2056718
  15.3928161  25.5390644  80.7169533  14.9523175  24.7213268  80.9482479
  15.1307023  26.1543202  81.4017773  98.9120222  72.2381020  39.0449691
  98.1752552  72.6324129  38.5781455  98.5960509  71.3723230  39.3034673
   9.3669820  40.0320005   8.5588628   9.3083197  39.0805936   8.4715778
  10.2451003  40.2476406   8.2447934  20.9996271  22.2689819   0.3775153
  20.3909183  22.9989576   0.2641951  21.3109803  22.3544335   1.2786192
  17.2511303  35.5317998  25.5203629  16.5257144  35.3928137  24.9115229
  18.0167985  35.6487417  24.9579501  93.2802201  74.3974447  43.0558491
  92.6441849  75.0157452  43.4155655  92.9293944  74.1661119  42.1958256
 102.7098854  85.2120113  14.3929374 103.6303217  85.1644897  14.6513367
 102.3359109  84.3806744  14.6849167  89.9761916  40.9468842  34.8011422
  89.5483853  40.5757236  35.5727983  90.9122242  40.8696890  34.9858475
  10.4242778  41.2830257  30.7538486  10.4257977  42.2400951  30.7381773
  10.4817069  41.0283089  29.8329496  85.2975429  30.4613876  49.7870541
  85.7552303  29.6353841  49.6306276  85.9915603  31.0807419  50.0128222
  76.1070169  80.1708317  38.5191655  75.9241451  80.9533691  37.9991436
  75.7402052  79.4510031  38.0058146  31.6695404  22.9192472  24.6858168
  31.3914967  22.2597957  25.3214645  30.8599854  23.3607602  24.4290781
  33.3775759  42.0619249  68.3851051  32.7915716  42.1093655  69.1404772
  33.8425040  41.2323856  68.4943819  40.4294443   9.0224552  27.9463720
  40.2632904   8.1833506  27.5168037  40.3055906   9.6736908  27.2558761
 108.5997172  43.5952854  80.0180531 108.3324546  42.7901363  79.5747280
 107.8188307  43.8767815  80.4947186  94.0396395  10.9012243  85.3440981
  94.6226921  11.2582943  86.0140090  93.5784807  11.6645405  84.9963786
  99.3470545  48.9301443   2.8908575 100.2930094  48.8541174   3.0158374
  99.2038120  48.6683083   1.9813767  95.2590276  39.5939016  30.3358102
  95.6158591  38.8358474  29.8729324  94.3809546  39.3207526  30.6015372
  94.4564463  56.4715433  41.3763666  93.9696456  57.2951174  41.3451147
  94.8648668  56.4018345  40.5134869  22.6842952  35.8426714  80.3404331
  22.8017163  35.5369496  81.2398624  23.5672998  35.8446312  79.9709272
  85.4058756  42.7323103   8.3157909  85.4562534  42.9601669   7.3874718
  86.3183368  42.6372337   8.5889351  82.7383698  34.6408653  30.7424545
  82.1737326  34.6449137  31.5153718  82.1615900  34.8980403  30.0231361
  25.1403213  39.0842175  48.1173086  24.7917390  39.9507713  47.9080057
  24.4137526  38.4855747  47.9442310  21.5702796  48.6733627  46.2133694
  22.5006866  48.4930801  46.0789299  21.2999845  49.1398811  45.4224634
  98.5519994  12.4291849  18.3888984  99.2091550  13.1236291  18.4350049
  98.9942969  11.7104959  17.9371357   3.0928984  73.8193989  33.9618301
   2.8324670  74.4237852  33.2667589   2.9071027  72.9505301  33.6057758
  31.8119335  18.3772123   3.0887446  32.3046613  18.4158373   2.2690138
  32.4804235  18.2681692   3.7651044 101.7726619  13.2798088  28.4337878
 101.7235936  14.2119431  28.2217741 102.5916697  13.1876922  28.9205861
  84.2213526  98.7016081  53.5676956  83.2787683  98.6383786  53.4135246
  84.3724217  98.1699275  54.3491840  18.1014156  43.1903887  23.8685632
  18.8276196  43.0194426  24.4682598  17.8375602  42.3239756  23.5588145
  12.1012771  39.6392751  46.9042349  12.5295007  39.2386484  47.6607752
  12.2030449  40.5809879  47.0422745 107.8565511  46.4361429  21.3020253
 108.3398182  45.8266973  21.8599319 108.3875829  47.2325325  21.3010669
  22.7628636  66.8375540  20.9750533  23.4845042  66.2598324  20.7266450
  22.0111632  66.5068769  20.4832911  17.7267587  55.7604885  52.2818279
  17.4526906  55.9997177  51.3964510  17.1265113  56.2369728  52.8553247
  12.7829599  50.2171946  63.3918571  12.6893699  50.0446892  64.3287182
  12.5731945  51.1463261  63.2972717  27.5102496  34.7435927  57.6616287
  27.9097271  35.6134295  57.6555967  26.7003560  34.8485112  57.1623325
   0.0626558  35.2212691  45.6973982   0.2504417  35.7292461  46.4866590
   0.0946101  35.8619595  44.9869585  31.6942096  36.6086960  21.5122652
  31.6905332  36.6430783  22.4688411  32.6069140  36.7659402  21.2704515
  12.5413334  66.1153269  60.1580238  13.4541082  65.9003735  59.9660110
  12.0988381  65.2674723  60.1976776  14.5343459  24.3593168  74.3884563
  14.4885826  25.1495910  74.9266100  14.1204178  24.6080375  73.5619974
 106.2039025  62.4506187  25.9811902 106.6362910  62.1614552  26.7847180
 106.8536187  63.0014086  25.5444646 104.1802735  12.1416318  49.4582176
 104.9860854  12.6400554  49.5941305 103.6614544  12.6827478  48.8630247
  24.3301749  51.1398172  40.5498743  24.9249196  51.4147091  39.8520565
  24.4394660  51.8019629  41.2324047   4.3578011  35.6543970  48.1349230
   5.0464153  35.3764367  48.7388945   3.7054846  34.9551678  48.1772661
  30.2874923  47.6452971  47.6385069  31.0642862  47.1738005  47.9393578
  30.4587340  48.5590696  47.8663969  95.1656820  53.8589287  55.1075792
  94.4149936  53.3362436  54.8256254  95.4165448  53.4822655  55.9510374
 107.6019664   2.4898596  28.3294797 106.8053949   3.0048451  28.4579158
 107.3139500   1.5801978  28.4055996  88.8491310  68.2025433  35.7632732
  88.6423744  69.1026068  35.5115294  89.0823353  67.7714348  34.9410868
   5.8416378  36.0557628  39.9390364   6.3168293  36.7414260  39.4696879
   5.1695991  36.5253401  40.4330969  34.6536803  32.4256039  32.4657059
  34.6922183  32.2834682  31.5199041  35.5700159  32.4611378  32.7401042
  21.6619468  37.0667481  16.5857255  22.0468473  37.8941131  16.8747747
  21.1497021  37.2985888  15.8110714   1.4395770  32.8144050  64.1133261
   1.3504288  33.3423996  64.9067402   1.7450204  31.9626546  64.4255114
  98.5967041  29.1088057  46.3646078  97.7047826  29.1888642  46.7026901
  98.6301149  29.7211146  45.6296301  14.5697355  34.0230131  56.8934822
  13.9887071  33.3652782  56.5113544  14.8211133  34.5782948  56.1554432
  98.0850519  60.2950811  58.6336374  98.1900765  60.7775927  59.4536257
  97.3435427  60.7177258  58.2003164 107.9275992  35.3676724  87.0300770
 107.8153999  35.5361390  87.9656315 107.2178451  35.8552933  86.6121006
 103.7116028  58.8517284  27.0435190 103.1834866  58.4579086  27.7379489
 104.5170600  59.1264200  27.4817109  17.6250792  95.5624104  87.4429989
  17.3715985  94.8477936  88.0272102  16.9695783  96.2424946  87.5980377
 101.1451836  37.1882224  55.4017496 102.0499421  37.4974990  55.4463720
 100.9654237  36.8464422  56.2775946  83.6123527  66.2149954  78.1864977
  84.4044698  66.6794682  77.9162264  82.9136265  66.6091919  77.6643658
  94.4931949  37.2456837  32.6201987  94.3360711  36.8751574  31.7517209
  94.7938551  36.5044928  33.1460047   3.3308995  74.7879076  72.1301460
   2.4054900  75.0055027  72.2419500   3.3264008  73.9043856  71.7619085
  21.3926053  40.3328657  39.7944856  21.9423985  40.5650759  40.5428410
  20.5500698  40.0943708  40.1811218   6.9504756  28.3080864  29.3833423
   7.0882189  29.2549729  29.3575263   7.4378073  28.0160761  30.1537132
  99.8627819  55.6666660  24.1926932  99.9948741  55.8304691  23.2589102
  99.0269316  55.2024603  24.2385387  92.1424832  85.8062696  24.2350435
  92.3410931  85.1056074  23.6138678  91.4301302  85.4568552  24.7704840
  94.6265377  42.1349764  27.1669316  94.5833911  43.0800819  27.0215178
  94.3314720  42.0178699  28.0699563  89.4726468  57.7607107  35.3899264
  90.0441016  57.4038506  36.0698676  89.9382962  58.5317612  35.0660729
  99.1372575  43.0719042  40.3170204  99.8916085  43.6330748  40.1373720
  98.6573888  43.5294342  41.0073996  33.2852077  15.8508980  41.5067720
  34.0867591  15.3581381  41.3308907  32.9484081  15.4775703  42.3212814
  76.9865597  88.0627155  32.9438925  76.9524468  87.5280666  32.1506619
  77.0305217  88.9637184  32.6237321  96.3639475  70.6542206   4.5963898
  96.8031574  70.3073740   5.3729355  95.5764736  70.1174784   4.5068103
  88.5810460  66.3956642  49.5157671  89.2194713  67.0799494  49.7167635
  88.2741011  66.6060448  48.6338615   2.0258935  38.8288474  59.2846584
   2.0258600  38.5963750  60.2131987   2.8782433  38.5340619  58.9639807
  23.9774466  23.2646608  36.5161586  23.3235455  23.3429337  37.2107935
  23.7255907  23.9285254  35.8742213  12.2167313  45.3784752  56.3003492
  12.7974510  46.0479450  56.6620255  11.4226627  45.4378557  56.8315363
 104.6329371  31.5739727  42.1129608 104.6675647  32.5302744  42.1357775
 105.4861588  31.2954044  42.4455976   4.6420583  36.3933706  30.3759933
   5.4311931  35.9057903  30.1398468   4.9339852  37.0115757  31.0459423
   6.6329759  11.4368379  30.2932692   7.5419062  11.5250516  30.0063968
   6.1470211  11.2404108  29.4923353   7.0621949  38.6475754  35.6601739
   7.1572304  39.5984864  35.6057143   6.2806571  38.4549212  35.1421833
  23.3696675  57.7101231  31.5938807  24.0258551  57.1304846  31.2070084
  23.2010698  57.3372412  32.4591947  96.4560975  28.7978768  21.0371447
  97.1440757  28.6503720  21.6861153  95.6641449  28.9398217  21.5556955
  14.7905612  18.7473643  31.2353039  15.3450048  17.9690397  31.2903976
  15.0808120  19.3000460  31.9609261  96.7036797  64.8031712  73.1172752
  97.2059621  65.5929708  72.9168606  97.3584176  64.1059113  73.1543446
  11.1740279  18.7787461  73.2089806  11.6534626  19.4580233  72.7346897
  10.3515613  18.6860168  72.7281666  86.9994725  33.4333086  25.3614426
  87.6635374  33.3983612  26.0499382  87.3159922  32.8263736  24.6923590
  19.6709418  18.1710863  56.5944767  19.2429769  18.8486254  56.0710096
  19.0792751  17.4203157  56.5444183  22.4241519  49.1163874  41.0184908
  21.6300440  49.6218395  41.1921072  23.0318451  49.7490788  40.6355524
 104.6827368  57.3199987  34.0097570 105.0811417  57.4248409  33.1457472
 104.0421755  56.6181135  33.8945627  38.6838531  31.2605047  35.1636434
  38.1426907  31.3883805  35.9427595  39.4465232  31.8208337  35.3071570
   6.6196281  16.0746443  14.9862874   6.5479505  16.9260859  15.4177296
   6.9510001  15.4885268  15.6666481  89.8011972  25.1672101  34.6310949
  89.0449775  25.2797103  35.2070332  89.9987699  26.0505843  34.3198943
  15.2925599  61.3658142  39.2810512  15.8111477  60.5789423  39.4487739
  14.5513988  61.2969875  39.8828602  19.1005504  40.0931597  68.6869240
  18.5698235  39.3497753  68.4006786  20.0005364  39.7680306  68.6635590
  17.7006054  36.3499045  31.3525581  18.4690011  36.3887477  31.9220233
  17.7037644  35.4574251  31.0065794 101.7971547  58.2105064  52.1543550
 101.6606022  58.1054354  51.2127876 102.6137454  57.7435780  52.3315191
   7.9417509  24.4915175  39.6544480   8.7428486  24.3917704  40.1687670
   8.1681502  25.1322412  38.9803195 105.8100687  35.9029508  38.5808659
 105.2911324  35.8104277  39.3798494 106.6806306  35.5869770  38.8227606
   1.8131083  56.9857216  78.5824013   1.3698941  56.5702915  77.8426647
   1.2024263  57.6603460  78.8793564 103.1609119  39.8785853  24.8168850
 103.1256480  39.9013972  25.7731628 103.4930332  39.0049601  24.6102309
  89.6371998  38.6194921  27.7300286  89.6689738  39.2468715  28.4522605
  88.7872280  38.7723470  27.3172116  27.1537209   8.8188285   8.7765092
  26.7950296   8.9742208   9.6502519  26.4343286   8.4157270   8.2904857
  81.5511359  15.7026911  50.6145954  81.5223159  16.6579843  50.5615187
  82.4544038  15.5036438  50.8610153   3.3080739  68.9155817  38.0930281
   2.4368173  69.3101597  38.0548882   3.8994002  69.6128464  37.8094983
  15.2757919  18.5504818  35.7850933  16.0575581  18.2237613  36.2304330
  14.8982573  17.7772641  35.3657675  28.0567050  47.7007151   9.2505521
  27.8979921  48.4716368   8.7058318  27.5380254  47.8544998  10.0402045
  13.3942950   6.2706763  50.1041794  12.4958611   6.1800480  49.7866392
  13.5786700   5.4395336  50.5417204 100.5458690  67.3319244  63.6487436
  99.8000760  66.7416954  63.5407829 101.3102783  66.7904663  63.4519243
  10.6771612  16.9753635  39.0250778  10.5397224  17.7981746  38.5556889
  10.2029586  17.0875239  39.8489618 100.7179089  81.4670658  52.7152634
 101.2655933  80.7405472  52.4178839 100.6227482  81.3253689  53.6571264
   9.4456565  33.8252854  30.6597185   8.7742424  34.1772056  31.2441730
   9.4891393  34.4537115  29.9390078 107.0428520  98.1364346  61.8429184
 107.3669538  98.8484001  61.2912798 106.7951497  98.5628414  62.6633167
  37.5064754  69.9391222  28.1439233  36.8181682  69.2975807  28.3196759
  37.9049516  69.6445990  27.3249578  15.2786183  61.7356062  21.3526797
  14.7532022  62.2971296  20.7827187  16.1521959  62.1264601  21.3346887
  19.1595507  45.2956867  22.4370337  18.8255000  44.6302509  23.0385637
  18.3759665  45.6676149  22.0321941  29.9120808  41.1817217  27.7764487
  29.9621582  41.6796875  28.5923886  30.3955650  40.3757286  27.9576945
 100.1729674  35.7678008  41.8223763 100.1527394  34.8121572  41.7716694
 100.9729184  35.9649134  42.3096752  98.4038938  69.3829632  39.5985556
  98.7217630  68.5008287  39.7909951  98.4632779  69.4564629  38.6460328
  83.5997714  58.2211304  76.5008783  83.1139649  57.6524734  77.0982552
  83.0907692  59.0313435  76.4744234  16.3421667  40.6243086  49.4922304
  16.8723893  41.2911224  49.9286413  16.1520731  40.9955215  48.6306620
  12.2407675  53.3628416  53.4965897  12.2968006  52.8403473  54.2966461
  11.8303216  54.1819620  53.7737226   0.7046024  73.1203651  15.0956213
   0.2307560  72.4151897  14.6546793   0.3945443  73.9198256  14.6702218
   8.9790559  23.8724875  42.4082756   8.9795840  24.5107889  43.1215811
   8.6963743  23.0551410  42.8184843  59.3087338  11.9916833  28.7441874
  59.9122547  12.0106138  29.4869089  59.3960379  12.8561319  28.3425283
 106.4587615  59.0259886  60.9730339 106.5233500  58.2796001  60.3772449
 106.8721653  58.7234879  61.7816257 108.2605207  55.5285358  34.6796799
 109.0191817  55.0294161  34.9822450 107.9686580  55.0674963  33.8932395
  97.5608088  45.1935244  49.8073483  98.4752597  45.1275396  49.5322895
  97.5232805  44.7093725  50.6322241 107.9236582  63.8603640   4.4780189
 108.3920326  64.5841026   4.0620139 107.2081862  64.2808151   4.9550468
  26.9510126  43.8155556  76.4669371  27.8821492  44.0024281  76.3473558
  26.5052009  44.5887327  76.1209822  11.7523372  14.4139314  62.2762012
  12.0757222  14.8129523  61.4684629  10.8078587  14.5684278  62.2582197
  13.0200446  46.8036604  29.4422770  13.2699883  45.8864307  29.3306684
  12.9708517  46.9248247  30.3905034   2.4130209  84.4700336  17.4409616
   1.5500584  84.1898727  17.1359479   2.7121198  85.0905895  16.7763686
  29.1992188  69.9669552  69.5551395  28.6678338  69.5334673  70.2229309
  29.5894670  70.7146788  70.0077391  29.4214582  53.3718061  45.8651257
  29.5366311  52.6434803  45.2547932  29.5683074  52.9860783  46.7287683
  11.2221587  82.5016785  32.1533847  12.1083784  82.5458431  32.5124025
  11.1685765  83.2471561  31.5553641  20.0099397  49.0145493  34.4423294
  20.0305367  49.8088121  33.9085197  20.7728982  48.5129929  34.1549826
  21.0725832  69.0598869  77.6206970  20.8522534  68.7913084  76.7287588
  20.2261066  69.2097044  78.0417204  28.3829999  24.1380072  73.2022047
  28.6476970  23.2370162  73.3876324  28.8860989  24.3802571  72.4247456
  35.8779025  50.5803442  39.5224833  35.6304240  51.5043592  39.5569396
  35.0738978  50.1087713  39.7402620 100.7589484  39.6235251  30.8019924
 100.4144896  39.3455195  29.9532914 100.8401556  40.5743742  30.7276964
  14.1125286  67.1585608  48.6396837  13.3421004  66.7446089  48.2506943
  14.7939551  66.4879513  48.5930824  39.8957777  59.5616484  34.6970439
  40.3162670  58.7091827  34.5842361  40.6200361  60.1666355  34.8572659
 107.2946873  28.7474561  13.3890986 108.2431747  28.6887980  13.2743680
 107.0080423  27.8389335  13.4821224  97.1361901  78.1453562  64.5449924
  96.7698480  77.3140812  64.2433167  97.0294155  78.7381744  63.8010836
 101.1510057  64.5555162  24.8251510 101.8886329  65.1493740  24.6855950
 100.8911605  64.2852497  23.9444327   8.5968375  60.6490755  15.7285178
   8.2255697  60.0583839  16.3838601   8.5964179  61.5074396  16.1521292
  94.3003870  72.1068954  29.3525767  94.8006130  72.2629833  28.5515523
  94.0301479  72.9790211  29.6399736   8.5858417  45.3392410  75.5740118
   8.2199413  44.6236181  75.0541687   9.2286587  44.9169874  76.1438513
  41.2157393  74.8330641  30.9899974  41.2950325  73.8901663  31.1345053
  42.0118237  75.0702620  30.5143666  67.2295536  62.6274633  53.5469294
  68.1708444  62.6453590  53.3740759  66.8706478  63.3185863  52.9903603
 101.8482835  55.3804350  56.7918158 101.2782116  56.0160589  56.3591099
 102.1562947  55.8312225  57.5780392  35.9644699  51.3330936  45.4632521
  35.8870673  52.2866821  45.4330015  35.6739545  51.0970402  46.3442230
  26.7499256  54.8536968  63.0903816  26.0239720  54.7245502  63.7007475
  26.9639230  55.7835960  63.1660461  21.5576148  98.8688469  29.1244435
  21.3208199  99.6632004  28.6457419  21.6830659  98.2075214  28.4439015
  79.8284997  61.8399954   8.9812547  80.0608410  61.4715719   9.8336124
  80.5698241  61.6224146   8.4161615  21.3433433  76.9178247  45.9373569
  20.4332280  76.8641996  46.2289810  21.3008189  77.3887157  45.1050806
   6.0442859  38.9263654  41.1669350   6.4422077  39.0877366  42.0224190
   6.7067647  39.2105699  40.5371904  68.3941997  74.0890598  53.8060427
  67.8385938  74.3539619  54.5390940  68.7853588  73.2623577  54.0885162
   2.8223002  88.6678982  57.3915577   2.3555975  88.1554413  56.7313957
   2.1331778  89.1374207  57.8615427  97.8041209  56.2232161  77.5937748
  97.0155252  56.1423302  78.1302500  97.5161220  56.6992044  76.8148518
   7.8196007  68.4411573  62.1958447   8.5937440  69.0037012  62.1739769
   7.5429302  68.3788157  61.2816238 104.7436757  91.7746544  58.1004858
 104.8985918  91.5497017  59.0178919 104.1645933  91.0836411  57.7789307
  79.8144354  75.8140087  76.7183065  80.5960001  75.5557728  77.2068834
  79.2570723  76.2431383  77.3674822   7.5853544  68.8798952  51.6461658
   7.2471499  68.7046194  50.7680273   7.5420702  69.8320913  51.7338514
   5.0751024  79.2566586  48.5538864   4.8097223  79.1509628  47.6403046
   6.0122311  79.0616703  48.5551739  31.3223696  64.9818087  44.0007687
  32.2106338  65.2707720  43.7916756  31.1381555  65.3727102  44.8548746
  15.7429421  48.3649778  30.2887535  15.2363002  48.3309889  31.1001682
  15.4809320  49.1884613  29.8771048  26.6226602  68.3127689  31.8675900
  27.1979928  69.0263891  32.1432209  26.5611434  67.7445364  32.6354170
  32.1169567  41.2715864  79.2065954  32.6969671  41.4588022  79.9446774
  32.6773620  41.3531876  78.4348965  10.3632379  56.1017656  24.0399861
  10.1570368  55.1702738  23.9623022  10.0077486  56.3555479  24.8917222
  25.7104301  60.8551407  34.2572212  25.6520128  61.8105602  34.2565918
  25.3644681  60.5934668  33.4039521   4.3167067  47.6215029  30.2938223
   4.8536590  46.8705320  30.0409317   4.8485231  48.3839226  30.0655246
  13.4775674  70.2645159  33.6155105  13.2058454  69.7373629  34.3668485
  12.6570725  70.5340242  33.2027316   0.1361347  54.9841785  16.5002728
   0.5547264  54.9512529  17.3604643   0.4883102  55.7754135  16.0926557
   7.1699238  68.5873604  49.1258383   7.7666080  69.2590094  48.7955570
   6.9207340  68.0857086  48.3496380  32.5596094  61.7080307  14.4924891
  33.4724212  61.8658257  14.2514300  32.6095176  61.1333990  15.2563858
  88.7919773  86.2298203  34.4513273  89.1101040  85.8371544  35.2642488
  89.3459214  85.8502579  33.7691879  11.8469775  96.4496613  52.3568344
  12.4404883  95.7737923  52.0294428  11.6245186  96.9680977  51.5835524
  94.6779241  13.9152310  78.3051531  93.8513246  13.5543367  77.9846554
  94.4532432  14.7942946  78.6100976   8.9158469  49.7702742  55.1743650
   8.8074148  49.9977016  56.0978079   8.3625078  48.9990139  55.0510693
  42.0638704  41.3536787  35.6444740  41.6754150  42.0110178  36.2217450
  42.9644585  41.6509581  35.5148387 100.4818947  72.6695442  25.0882220
 100.2284075  73.5593510  24.8428416 101.4131923  72.6178932  24.8731661
  36.7059302  59.5449352  26.1169839  36.6562152  58.6326075  26.4023209
  37.1881437  59.9882460  26.8149638  13.7964082  31.8641233  11.4714813
  14.2993689  32.1036029  10.6930780  13.1810486  32.5875115  11.5909505
 105.0980113  37.0397472  49.9505234 105.3948761  36.3407302  50.5331707
 105.7841308  37.7049184  50.0054789  82.7768053  39.6169877  13.4052312
  81.8524755  39.3789148  13.4771192  83.1990517  38.8339281  13.0520201
  19.9579990  33.4020925  38.4960246  19.4938684  33.1361842  39.2898178
  20.1731539  32.5790167  38.0572915  16.6020858  31.0376167  43.3666277
  16.8850279  30.2420044  43.8173771  16.8629193  30.9024119  42.4556303
  19.8579514  55.0377274  64.3349028  19.6742499  54.8266792  65.2502966
  19.4249487  54.3438816  63.8375902 107.1312019  42.3448086  29.3791962
 107.8087775  43.0153322  29.4659305 107.5112690  41.5662003  29.7860694
  25.4602289  97.5074768  20.5645299  26.2085748  98.0954456  20.6670070
  24.8062444  97.8430653  21.1776495  23.1932545  45.5062628  52.2622442
  22.5177717  44.8416185  52.3971510  23.2851267  45.9309483  53.1151438
   2.3050438  51.9633818  38.1840038   2.1926722  51.2973595  38.8622499
   1.4413935  52.0404100  37.7785301  44.9322319  61.2768078  65.3822041
  44.4999075  60.9138060  64.6091843  44.2375660  61.3397551  66.0377216
  23.0080080  62.9177570  20.2245116  22.0554161  62.8254032  20.2409267
  23.1884360  63.3951712  19.4147241  12.8349531  54.1217756  29.7748566
  12.3947942  54.5091486  30.5314517  13.1857729  54.8704958  29.2925954
  18.6662579  99.4878101  46.4238882  18.0829489  99.6550560  45.6836128
  18.7269986 100.3293991  46.8758535  16.4725256  62.9843140  10.5914879
  15.6703126  63.3652592  10.9486544  17.1651959  63.5865641  10.8630264
   0.9834574  66.9608021  86.5379429   1.5723248  66.2232018  86.3785267
   0.1945179  66.5623474  86.9054222  32.4327970  31.3537693  41.7875624
  32.4672818  30.6898046  41.0989475  31.7426729  31.0510945  42.3777723
   2.2718297 100.5373096  51.6130733   2.2308792 101.1382484  50.8691406
   2.9500440  99.9056816  51.3737011  26.6826248  37.3763108  71.6703796
  26.9723153  36.9504333  72.4771881  27.0914507  38.2414317  71.6960907
  18.1149960  67.9512024  39.8166776  17.5962985  67.1483374  39.8676062
  18.8488138  67.7263832  39.2446637  12.8540850  42.5293064  43.8772631
  12.9068756  41.7361307  43.3440495  13.2752514  42.2911596  44.7031784
  26.0370922  60.2336836  11.7501473  26.2883878  59.4650269  12.2622430
  26.8484998  60.7319307  11.6521490   1.9825888  77.4738359  12.5861442
   2.0413972  77.2819042  13.5220587   1.4055316  76.7940807  12.2380447
  10.5083752  75.9040403  66.7458916   9.8747277  75.3499222  67.2016048
  11.0736251  76.2424850  67.4402857  10.7299161  29.9624300  26.5470552
  11.5605187  29.5839715  26.8353271  10.6948638  29.7765541  25.6087303
 104.7396274  91.3593578   1.0097682 105.4071976  91.2969780   0.3266205
 103.9366264  91.5847969   0.5400885  16.8474710  84.7634411  53.2947588
  17.1418929  84.1845703  53.9979315  16.4451289  85.5046940  53.7474060
  88.5649003  55.6948233  76.2866735  88.4045376  55.0913191  75.5612087
  87.8055252  56.2775612  76.2857819 102.3347021  88.7661552  84.2179775
 102.4739439  87.8276634  84.3447781 102.2392375  88.8683319  83.2710457
 105.5921380  86.4778519  16.7342341 105.7879541  85.7475471  16.1472511
 104.8210124  86.1915588  17.2237575  38.6844516  75.0242186  31.9851351
  38.3034110  74.2711401  31.5335655  39.4342184  75.2733183  31.4447379
   9.7874165  32.2232437  36.1848855   9.2411208  31.8042803  35.5198574
   9.6883857  31.6698599  36.9596052  76.5429796  16.8266201  38.4261179
  75.7212056  16.4030635  38.1780863  77.1002902  16.1095428  38.7285018
   0.7114770  40.9720564  22.7462721   1.2338895  41.6305113  23.2042599
   1.3567625  40.4122972  22.3144054  96.1460270  78.8529158  54.5035791
  95.2499736  78.5235500  54.5731211  96.1940850  79.5551872  55.1522207
  85.6244649  48.8229561  17.7868545  85.6704916  48.5042000  16.8854618
  85.5023040  49.7684050  17.7006245  46.4208746  35.6471467  45.8404207
  46.1409569  36.1040211  46.6336060  46.1944675  36.2443781  45.1274776
  31.0687685  79.0516853  54.2520857  30.9272289  79.9844074  54.4140387
  31.2046075  78.6755037  55.1217222  19.0618062  58.6553764  41.4362955
  19.1299963  57.8236866  40.9673882  18.7409937  58.4147120  42.3054266
  25.3752971  48.6302567  36.6831207  25.9059858  47.8346252  36.6434884
  24.7540069  48.4686375  37.3931265  19.4396472  50.1635504  52.9213715
  20.0477695  49.5090532  52.5777817  20.0000453  50.8865547  53.2032394
 105.8828701  80.4851151  32.5045943 106.6504199  80.5798340  31.9405651
 106.2052981  80.6850243  33.3834052  94.9824394  75.3923273  35.3975511
  95.2782346  76.0393572  36.0379362  94.8111547  75.9008312  34.6048856
 106.7024116  40.2688885   8.7513846 106.5072740  39.3321395   8.7257040
 105.8684261  40.6811857   8.9765722   6.8891138  23.6724138  52.4361467
   6.8424928  23.0218816  53.1367683   6.9477463  23.1553674  51.6327429
  23.1697035  72.0680475  81.7567730  22.6573777  72.7300024  81.2924767
  22.5670815  71.3325548  81.8669033  90.7625283  55.4043245  36.1274123
  91.4120043  55.7860136  35.5368853  91.1518515  55.4879093  36.9978571
 105.0734593  72.8373957  32.8166771 105.5801214  73.5908270  32.5135779
 105.7236217  72.2523212  33.2055330 105.7751588  53.0795908  28.6538792
 106.0076131  52.7267790  27.7949739 104.8726494  52.7931976  28.7941885
  47.2218715   3.1369318  18.9961302  46.6128467   2.4075712  19.1117072
  47.7314566   3.1541265  19.8062289  40.4269981  45.6982660  55.1589012
  40.5159187  46.1783886  54.3356085  40.1024866  46.3487291  55.7816505
  16.0824549  48.8574839  37.1058607  15.7822037  49.5524454  36.5201068
  15.6829250  49.0666199  37.9501772  72.1545161  62.9371262  32.6809716
  72.1834530  63.4060907  33.5149169  71.3512791  62.4184275  32.7256203
  17.2021830  86.3958359  74.9781990  17.0855868  85.4477215  75.0391531
  17.8976405  86.5104866  74.3305635  28.6492562  75.1858234  79.1339874
  28.0625272  74.9827242  78.4054756  29.4072175  74.6176100  78.9966488
  72.8131207  13.9108727  77.8225045  71.8900762  14.1240427  77.6854675
  73.2603938  14.2837498  77.0628052  23.0727768  55.8155489  52.6510954
  23.4909678  54.9784088  52.8524446  23.7373972  56.4717913  52.8605270
  14.9034190  68.5414457  18.9923036  15.4608917  69.2982101  18.8112783
  14.9958146  67.9853773  18.2186866  99.8437596  16.6243052  10.3542507
 100.2808036  16.7499900   9.5119756 100.2715982  17.2475195  10.9414387
 104.7530785  34.0297911  81.0761075 104.5821752  33.2074854  80.6169371
 104.1798272  34.6662829  80.6489115  45.3618622  77.6525688  32.0034599
  46.3105679  77.5749397  31.9026518  45.2453375  78.0798483  32.8520393
   2.8317627  34.4408655  40.7732725   2.9948342  33.7328148  40.1501322
   2.5386614  35.1737261  40.2317572 108.7343051  43.9564323   5.3636003
 109.1622354  43.1240511   5.1629657 108.3588448  43.8288403   6.2347966
  30.9126377  56.2699938  46.2085962  30.1444936  56.3666248  46.7714930
  30.7708502  55.4418612  45.7499838  94.8760940  50.0316143  68.4905243
  95.1265157  49.2804718  69.0283966  93.9197673  50.0455379  68.5289812
   2.9755461  42.1893215  40.5514908   3.6922485  42.6983213  40.1726913
   2.9954883  42.4047422  41.4839220  18.2213354  97.7243423  17.7873027
  17.2956932  97.9441833  17.6819897  18.6627614  98.2045364  17.0867360
   3.8777933  71.8526220  17.7433085   4.3561301  71.9428873  16.9191253
   4.2798841  71.0971785  18.1721032  95.3083707  66.2864780  53.2841921
  94.6950198  65.7439566  53.7798738  95.9798993  66.5314913  53.9207840
  29.6002889  36.0493040  18.3504176  30.4859066  35.9762549  18.7061942
  29.6923327  36.6318774  17.5965166  26.3983369  81.3398933  43.5058308
  26.7292261  82.0789433  44.0162802  26.9809532  80.6141853  43.7297344
   8.7172747  28.6905742  39.9801183   7.9200035  28.7542939  39.4542575
   8.5019463  29.1405201  40.7970715  98.8291920  59.2988539  46.2169790
  99.2822022  60.1004314  46.4786768  99.0111638  59.2155981  45.2809334
  21.0868931  67.6422644  60.0726557  21.0864282  68.5529852  60.3673077
  21.7668176  67.2208071  60.5983019  16.8671739  80.8141422  24.5454168
  16.8258226  80.9104156  23.5939693  16.0271275  81.1510181  24.8569751
  40.0274324  52.8069448  19.4712663  39.6096921  53.1446552  18.6790061
  39.8003817  51.8771505  19.4840276  20.3369784  51.2189913  42.1550608
  20.1890969  51.2200356  41.2093544  19.5875883  51.6932821  42.5151920
  31.8270254  69.1912174   7.3913485  32.6139188  68.9338303   6.9109470
  31.1532140  69.2799997   6.7173117  98.8012172  69.5488739  63.1806898
  99.5245565  69.0193605  63.5162926  98.9829327  69.6370602  62.2450399
  25.9719515  70.1493788  70.1294374  26.7195630  70.4733992  69.6271229
  26.0674572  70.5563736  70.9905243 103.5857059  67.9631329  52.1402740
 102.9133494  68.0548096  52.8153753 103.1305094  67.5574017  51.4024353
  99.6554805 100.8447552  79.8262644 100.1153387 101.0021687  80.6508732
 100.3517605 100.6677151  79.1937447  75.4524149  62.8944254  12.5405920
  75.9500350  62.5142765  11.8166494  74.6300782  63.1796122  12.1422696
   4.2028338  31.7114186  42.5927925   4.0039188  31.9750452  41.6943693
   4.3335262  32.5360012  43.0609989  10.6835961  64.3361425  34.7633886
  10.6684875  64.5282984  35.7009792  11.2114477  63.5409880  34.6903372
  30.3088188  68.9538431  41.7110634  31.0227132  69.5036697  42.0339823
  29.8539686  69.5026636  41.0722065  30.6417108  60.9050083  50.5796480
  30.4650688  60.2884102  51.2901688  29.8493886  61.4391518  50.5235434
  42.2499275  77.1580696  53.3717108  42.8133011  77.3030090  54.1318655
  41.9863272  78.0365944  53.0979633   0.7763425  69.6814299  44.0236378
   0.7082484  68.7937450  44.3752146   0.9901278  70.2239466  44.7827196
  29.4460011  93.6601543  28.0826592  29.2819500  94.1523266  28.8870740
  28.7287402  93.0278587  28.0382419  40.9160850  80.9716424  70.4809217
  40.7452390  81.0669073  71.4179211  40.8841268  80.0275382  70.3264062
  38.7884951  61.0660172  27.4560690  39.3550730  61.0668468  26.6845608
  39.2589307  61.5963078  28.0992770  97.2147728  26.0066843  44.5769405
  97.5244034  26.4584899  45.3619480  97.7891840  26.3197160  43.8781643
  23.4985844  65.5266448  75.8591609  22.6695946  65.6950697  75.4112296
  23.2426897  65.2014347  76.7222874  31.0575175  81.0743999  42.0283413
  31.2138534  81.4320564  41.1543417  31.8266416  81.3352013  42.5349569
  21.6253710  39.5393443  50.7430696  21.4548516  39.6365476  51.6799307
  21.1769271  38.7291384  50.5007982  21.5981388  77.4362135  14.4524992
  20.7562876  77.0460272  14.2173946  21.9688559  77.7261543  13.6189926
  12.9642236  66.7286825  51.0845423  13.3831513  66.6770267  51.9436502
  13.6758244  66.9505644  50.4840231  52.9239941  87.6164627  30.8265805
  53.7421083  87.2367001  31.1470532  53.1969595  88.3838081  30.3236818
  29.4223785  91.2318039  35.1487160  30.3163528  91.3052559  34.8145819
  28.9402413  91.9245338  34.6971631   3.2968476  93.8649940  46.8690205
   2.7257460  94.2288303  46.1924887   4.1019794  94.3786335  46.8044758
  31.6626954  82.8519249  28.1980348  32.3421526  82.8961754  27.5252700
  32.0856214  82.4148846  28.9371967 107.5657113  54.0308142  40.5228662
 108.2194088  53.6062622  39.9672914 107.1865721  54.7127104  39.9683356
  41.2026310  80.5762005  38.3869338  40.8141422  79.9304295  38.9770889
  41.3068199  81.3606644  38.9254379  10.4348505  59.7845984  24.9122500
   9.8076588  60.3150320  24.4208193  10.5957234  60.2842045  25.7127142
  46.2017727  47.0327377  10.2384114  45.6773233  47.8322220  10.1936126
  46.5679502  47.0357370  11.1227965  14.8099315  70.1719093  45.2006102
  15.7485056  69.9850178  45.1810789  14.6142077  70.5071115  44.3256474
  92.8540561   3.6279670   1.8234594  92.4270544   4.3385545   2.3019655
  92.6736615   3.8170139   0.9026201  11.6705430  54.9119091  39.8890734
  11.3395214  54.2776442  40.5249691  11.3120949  55.7508612  40.1787519
  85.5772151  39.1416287  67.4077845  86.3060154  39.4152570  67.9647493
  85.7886375  39.4974542  66.5446949   8.6137164  75.5306196  27.5046802
   8.5080588  74.7086763  27.0256472   9.2942148  75.3449631  28.1517386
   5.3044814  69.2551136  18.1283736   4.6177015  68.5907507  18.0719340
   5.9145010  69.0292501  17.4261677  15.8325171  34.3464875  40.4944706
  16.6199982  34.7601461  40.8480120  16.1165321  33.9592767  39.6664405
  22.3513675  63.4119606  27.4305654  22.7701855  64.0986013  26.9115829
  22.1325111  63.8379669  28.2593298  30.5086207  48.3403015  53.2182932
  30.5912733  48.0322075  52.3158073  30.6462812  47.5577736  53.7520790
  89.6759964  29.2055511  69.7594547  89.0714682  29.7986174  70.2056074
  89.2806066  28.3397365  69.8607635  23.6591482  56.3771963  37.7003336
  22.9473972  55.9379578  37.2348070  24.3757796  55.7426500  37.6958537
  38.4015608  54.4800854  44.2767191  38.7838221  53.6495686  43.9932537
  37.9271793  54.7997379  43.5092449  70.9776153  38.7261859   5.5952222
  70.0595317  38.9648620   5.4671915  71.4571709  39.2796604   4.9788339
 109.3919856  47.7744341  47.1405745 108.9078878  47.6354408  46.3265944
 108.9239535  47.2498226  47.7901602  42.4069309  53.8492537  20.5404758
  42.6943779  54.6805286  20.1628661  41.5447998  53.6959600  20.1538706
   0.8956825  24.4618392  38.7742186   1.5718555  24.7352386  38.1543183
   0.1320630  24.9913883  38.5446644  22.8445053  38.8760328  57.5585651
  23.4363532  38.6663461  58.2810450  21.9734502  38.6617756  57.8926134
 101.1870004  60.3871727  53.6952257 101.3256068  59.7202396  53.0227470
 101.9898332  60.9083033  53.6847830   3.7618449  42.4020720  62.3984051
   4.3500012  41.8274260  62.8883886   4.1362086  43.2763720  62.5065041
  96.7818655  73.3281803  37.6395202  96.4958776  73.8533545  36.8920994
  96.3368429  72.4883080  37.5264025   6.4410990  39.4411516  43.8194513
   6.1760145  38.6640978  44.3115425   5.6665802  40.0035810  43.8244629
  12.0690644  60.9476185  78.2627821  11.5475643  60.4418230  77.6395321
  11.6201806  61.7909765  78.3218098  36.7339611   2.8482023   5.0210327
  36.5525889   3.4206149   4.2755932  37.4498558   2.2868562   4.7233498
  16.0710227  74.5721006  35.1154137  16.4437771  74.1565228  35.8929634
  15.6141591  73.8641453  34.6612024   9.7326332  77.6873875  22.0977449
   9.4291764  77.9602146  22.9636025   9.9464899  78.5059309  21.6499949
 107.7217750  59.1892672  47.2651911 106.9087369  58.7495041  47.0165777
 107.7566100  59.1073990  48.2182455  20.2475429  57.7147293  27.0219922
  20.4245543  57.0959759  26.3134408  19.9138379  58.4956026  26.5802789
   5.2500731  74.7102118  60.9056234   5.4351646  74.8713636  61.8308306
   4.2947283  74.7210836  60.8470583   5.9245980  52.5496054  29.6335316
   4.9742895  52.4837685  29.5396686   6.2143379  51.6483116  29.7747946
  39.0244007  24.0431404  29.9625230  39.0196514  24.2339945  29.0245533
  38.3319855  24.5969844  30.3231454  83.3383382  69.1829920  54.7079515
  82.7099432  68.5787249  54.3127203  84.1861929  68.7525034  54.5981598
  30.4695463  49.6736765  70.6486273  30.6403136  50.3504801  69.9936342
  31.1030793  49.8485613  71.3445282  24.7188616  37.4260712  32.0216060
  25.5929446  37.0948148  31.8155050  24.5467687  38.0834794  31.3474917
  15.9316778  90.9932709  73.5464764  15.2481318  90.3789425  73.8140440
  16.6957581  90.4423141  73.3766127  16.1329854  47.3136806  51.6261387
  16.0407472  47.6053572  50.7191372  16.6210365  48.0164480  52.0552731
  58.4725116   8.5096658  37.2342801  58.3117770   8.8394083  36.3501620
  58.4012769   9.2823518  37.7947307   4.9603871  75.3388548  25.3750730
   5.7093537  75.9339523  25.3413153   5.0618625  74.8729753  26.2050676
  51.9949198  96.9149971  49.0733624  51.3281107  97.0278835  48.3959770
  52.6754141  96.3882828  48.6541653  28.6990190  70.2328300  49.8943567
  29.3683815  70.9123802  49.8143911  28.8155699  69.8846769  50.7783461
  57.1240138   8.9402879  40.1018190  57.8548383   9.2337717  40.6458759
  57.3953580   8.0807699  39.7795820  90.4307007   5.0447763  34.2172527
  91.0285257   4.5671857  33.6421490  90.3433203   5.9063829  33.8095450
  27.4899697  85.1827145  43.3840704  27.4292660  86.0571480  43.7686634
  27.6844239  85.3403759  42.4601841  19.3517995 102.7131653  60.9139776
  18.5861742 102.4147224  61.4048767  19.3288267 102.2057629  60.1026535
  45.9682608  80.5712223  25.3801537  45.0268698  80.4114914  25.3130174
  46.2139654  80.2019119  26.2283707   1.9800694  74.1278076  50.0694656
   1.1767077  74.4675922  50.4636574   2.3950894  73.6229658  50.7688427
  67.1688509  72.3105240  37.9480171  66.5707970  73.0481482  37.8277326
  67.4149847  72.3499775  38.8721895   9.0949553  68.6571598  34.5324540
   9.5418882  68.9059830  33.7233996   9.8026186  68.4753895  35.1508427
 105.8530171  67.3605537  11.4570034 104.9504254  67.6766253  11.4977145
 106.1808778  67.4562931  12.3511922  18.4258616  75.8455849   6.5922672
  18.2014143  75.0631285   6.0886621  17.6231813  76.3670540   6.5950370
  61.0385035   9.7947038  32.7177477  61.9869541   9.8209012  32.5913095
  60.7414721   9.0798486  32.1547389  35.8608648  74.9237283  76.9905691
  36.0685750  74.0264996  76.7296688  35.8935714  74.9086794  77.9470913
  32.6364851  59.9355412  26.7628574  31.9121242  59.7547722  27.3619032
  33.4086037  59.5872498  27.2086811   2.4251890  67.1799088  41.6122913
   2.0250845  67.7785254  42.2430134   3.3130533  67.5168371  41.4922523
 100.9651222  39.0103838  82.8195720 101.7822375  38.5122130  82.8389983
 101.2223329  39.9016783  83.0555360  40.7896090  78.2210684  36.9988370
  41.1865568  79.0493488  37.2683096  41.0721254  77.5926924  37.6633358
   3.8548031  61.6928101  36.8271828   3.6836052  60.7971573  37.1182775
   3.4240678  61.7540026  35.9745669  33.7907529  60.7469988  32.7497673
  32.9301548  60.3300047  32.7912450  33.6027575  61.6656542  32.5575280
  19.1298258  78.7036896  37.2292137  18.5858464  78.7312984  36.4420962
  19.9869812  78.4128332  36.9178987  68.7186526   1.9649423  33.7302303
  67.8585552   2.3734106  33.6321473  68.6423944   1.1315359  33.2656360
  67.4593306  88.1490326  50.1614904  67.6409435  88.8395309  49.5239449
  67.5845098  88.5695744  51.0122061  17.3453844  81.5164185  51.6468334
  17.8928232  82.2722435  51.8595982  16.5393972  81.6570091  52.1436787
  42.9739714  89.2426968  56.5393353  43.3883429  89.7461510  55.8385754
  42.8397179  88.3731461  56.1623907  17.1903288  62.1998072  17.7155316
  16.8180871  61.3997078  17.3447084  16.4317918  62.7536392  17.9002488
  31.8884730  71.0629892  51.2807035  32.5563645  71.6145420  51.6880608
  31.5012574  71.6168737  50.6028318   9.4355202  52.8318882  40.9963703
   9.0721756  52.8338146  41.8819237   9.2922777  51.9396830  40.6806469
  97.0297564  69.8321295  34.4940877  97.7194573  70.4814625  34.6316051
  96.3748814  70.2868319  33.9643574  15.4120755  79.8260450  29.8604250
  15.3316236  80.1580811  30.7545805  16.3554180  79.7906399  29.7020531
  63.5897064  97.4204826  50.5027437  64.2625618  98.0949306  50.4099512
  63.9916611  96.7566490  51.0630941   6.2784201  51.0216999  32.5003004
   5.7892859  50.2251101  32.7062869   7.1903700  50.7357788  32.4471164
  11.6086531  78.9919853  38.4039950  11.4832294  78.2290363  37.8397155
  12.0410013  78.6444521  39.1840768 105.8981754  70.9341669  43.6904478
 106.5677084  70.8342695  43.0137110 106.2956012  71.5183973  44.3361759
  27.4290848  59.0193558  65.7518482  28.3524013  59.2717648  65.7548237
  26.9582939  59.8309946  65.9411430  46.8819237  68.2982016  16.7844415
  47.0182419  67.5395966  17.3520350  46.4005661  67.9517603  16.0331047
  15.8304048 101.3809395  54.1638851  16.3497102 102.1255016  54.4674921
  16.3181627 100.6122494  54.4595957  56.4729785  13.7690366  22.2380948
  57.1417474  14.4482149  22.3257804  56.4802192  13.3155263  23.0810094
  11.2617266  46.8056917  17.0016706  11.9533062  46.7057657  16.3474810
  10.7863200  45.9752846  16.9763851  18.3941829  75.4013872  28.1128144
  19.0602374  75.8523035  27.5938940  18.8666475  74.6870947  28.5403633
  25.9040570  43.4773493  43.5277414  26.5942836  43.1249714  44.0895700
  26.1725640  44.3799019  43.3558893 106.2976957  71.2063837  12.2285199
 106.4695818  71.1428308  11.2890255 105.4725439  70.7375669  12.3532927
  16.6871333  32.4561024  50.8216953  16.7664170  32.8265882  51.7007208
  16.0990584  33.0549669  50.3615236   6.9247377  64.7356176  29.3268299
   7.0722485  63.9194107  29.8046184   7.8024930  65.0409460  29.0975904
  21.4861894  95.5873394  11.7605639  22.2657681  95.6454277  12.3129380
  21.1978769  94.6787834  11.8479776  86.1177363  23.1576559  73.5418396
  85.3996410  23.6271832  73.1174438  85.9526792  23.2637570  74.4787125
  54.9566208   5.9598363  21.9129372  55.0444542   5.6770719  22.8231907
  55.7967781   6.3698495  21.7073703  13.7135458  47.3069429  41.7977953
  14.3537366  47.7614355  42.3453569  13.1502724  48.0031490  41.4597845
  21.3616061  58.7673807  29.2427349  21.7593694  58.1140137  29.8181701
  21.0743189  58.2693624  28.4774399  46.5742302  80.8468533  66.3255692
  46.8324947  81.6230488  65.8285332  45.8400726  81.1410236  66.8647432
  69.1381502  93.4670162  29.0069818  69.1960859  93.9692593  28.1941986
  68.5213852  92.7621460  28.8095236  54.7166967  82.8740406  76.0378170
  54.1370916  83.5579872  76.3732243  54.2105246  82.4495983  75.3450871
 105.7164631  69.8757076  21.1850882 105.1202009  69.5752716  21.8709755
 106.5428860  69.4315195  21.3747001   9.7435385  73.3407402  38.0410314
   8.9057076  73.5117102  37.6108694   9.7304553  72.4017286  38.2262635
  26.5968037  66.6849136  19.2043817  26.3852000  67.6183558  19.1927874
  27.5456548  66.6528845  19.0823579  27.7869725  67.5004816  25.0332975
  28.0154896  66.8688011  24.3513989  28.5334206  68.0988312  25.0653672
  77.3492969  68.2787943  34.1875505  78.0051221  68.7161589  34.7305393
  77.6788820  68.3702898  33.2935524 102.9445423  54.6657801  22.4040651
 102.9273148  53.9926243  23.0843544 103.8472654  54.9840927  22.4048972
  99.7634621  99.6947002  73.8861370  99.1267229  98.9836407  73.8141060
 100.5774916  99.2620754  74.1438532   3.7558594  43.0650568  32.8244019
   4.5523959  43.3773613  33.2536197   3.7950677  43.4401083  31.9446111
  14.6125925  43.0934048  15.8088386  14.6681929  43.9481497  16.2360930
  15.4497135  42.9977751  15.3546178  19.1812181  84.9739265  64.6761322
  18.7914300  85.8027267  64.9543190  18.4334064  84.4241619  64.4421101
  14.9239576  56.5861082  45.2885008  15.6082714  55.9736109  45.5583000
  15.2857327  57.4505568  45.4836321  39.2938161  79.4456482  25.9777927
  39.0840292  79.5379305  25.0484347  38.9396763  78.5898304  26.2194419
  74.3548893  23.7827600  55.4526234  73.9934491  22.9989732  55.0387669
  73.5939192  24.3399919  55.6158686  93.1370498  89.9413013  19.8385143
  93.5588754  90.4289913  20.5459356  93.4436871  90.3671741  19.0379918
  28.6566998  36.0277483  87.7896527  28.5303093  36.4446184  88.6419877
  28.0691267  35.2722284  87.8030656  15.7415831  57.7115726  24.0706849
  14.9961615  57.5297308  23.4983993  16.0393047  58.5822010  23.8068604
  54.7540365  13.9238275   9.5944756  55.4636346  13.3038915   9.4259870
  54.9014257  14.6325601   8.9682138 107.1128069  63.0109835  37.0982265
 107.4597457  63.9020205  37.1421075 107.7396576  62.4851465  37.5950003
  95.0315071  77.3026085  27.3869324  94.2298557  77.1663857  27.8919363
  95.4190696  76.4305115  27.3129368 101.5648748  94.7902679  19.5386767
 102.1806462  95.1718235  20.1643538 101.5949978  95.3783035  18.7840044
  20.9255552  92.3770142  21.1094427  21.2160897  93.0554771  20.4999280
  19.9807107  92.3169804  20.9683824  37.0097184  26.8154383  44.9118614
  36.6049147  27.6750970  45.0274038  37.9503369  26.9926763  44.9044323
  25.1309729  68.3109665  15.5512619  24.2014623  68.1137037  15.6667078
  25.3028440  69.0235615  16.1668110 108.8748675  66.0955620  60.0784826
 109.4328003  66.6952515  59.5831871 109.0632953  65.2328539  59.7090721
  35.7762527  70.8026648  30.4266667  36.1142778  70.7345963  31.3196039
  35.6646276  69.8953009  30.1430058  10.7306921  71.6659069  66.5098000
  10.3490388  70.8751822  66.1285830  10.0243950  72.0442915  67.0334435
  42.6577139  91.8614388  71.0839844  42.3456335  92.0208645  71.9747257
  42.9675436  90.9558582  71.0972404  58.4390831  76.3472939  48.8316536
  58.9876127  75.8722639  49.4559097  58.7048149  77.2619247  48.9268970
  39.1730738  84.8085880  87.2243214  39.8744106  85.2144432  86.7147732
  38.3890653  84.9246216  86.6875744  98.2146348  70.2792692  29.7065663
  98.2753493  69.5392275  30.3106213  99.1157306  70.5892706  29.6162486
  23.2189941  48.4976721  31.9377398  23.5073829  47.9611921  32.6761556
  24.0141296  48.6492348  31.4268374  17.2435081  80.3155994  57.7059746
  16.4196658  80.3906536  58.1875181  17.8976560  80.7008743  58.2889652
  42.5708675  94.8259163  30.9846234  41.6209030  94.9427319  30.9973001
  42.8692007  95.1994228  31.8139124  51.4324747   8.6085428  33.1613159
  51.7969524   9.1500581  32.4612069  50.5534254   8.3831800  32.8568268
 100.7464589  81.0951614  48.8517332 100.8755977  80.5061436  48.1083536
 100.3889812  80.5357456  49.5412922  54.8895502  94.1882992  42.3871088
  54.6526337  95.0540829  42.7195549  54.0675020  93.8250256  42.0577240
  98.8762797  91.3312435  21.6293740  99.7419406  91.5110207  21.2625694
  98.6512626  92.1260929  22.1129203  42.1544075  67.6284885  53.2282162
  42.5741482  67.8394604  54.0622044  41.2334394  67.4929571  53.4511232
  39.4246459  68.7797213  46.9210100  39.9558806  68.7250614  46.1266375
  39.9343014  69.3336296  47.5123358  20.1116490  90.9652901  67.9361582
  19.3293333  90.6463242  68.3861303  20.8123469  90.3848839  68.2334614
   4.3616500  91.5037537   6.8983072   3.4213924  91.6091442   6.7532527
   4.4262975  91.0895252   7.7588081  90.0952743   8.5477270  36.8833160
  89.5855545   8.7192453  36.0914826  90.4660438   7.6760972  36.7453694
  11.1265182  80.6909561  41.5580416  11.2594068  80.3244209  40.6838465
  10.4719901  80.1199341  41.9602251   9.0717715  78.3375931   0.4018363
   9.6660638  78.3954477   1.1499682   8.8195813  79.2440033   0.2256296
  86.4757370  10.5366815   3.5927764  86.8173097   9.8173250   3.0616605
  85.9428571  11.0504354   2.9858792  29.4126534  76.5012836  39.5727539
  29.9069357  76.4982271  38.7530541  28.9167666  75.6827116  39.5564723
  25.1468658  73.3319807  44.3958139  25.8188462  74.0064383  44.2968988
  25.1608729  73.1148100  45.3279448  43.7490034  78.0735302  38.1364465
  42.9799175  77.5315762  38.3125782  44.4363785  77.4472952  37.9093504
   5.5812502  73.2188368  33.7456036   4.6938160  73.5774899  33.7377453
   5.6976998  72.8485727  32.8706336   1.5587774  53.2346630  43.0919313
   0.8446868  52.5989342  43.0455017   1.8208441  53.2336807  44.0125561
  30.6521964  75.4792356  34.8323274  31.3018751  76.0789871  34.4656587
  31.0997558  74.6338558  34.8678160   3.0116251  90.0887203  38.1468248
   2.8217739  90.8036518  37.5393224   3.7449259  90.4090786  38.6720586
  33.0894351  34.0826011  42.8125906  32.1988583  34.3998623  42.6627588
  33.0781651  33.1791234  42.4966335  26.2611914  89.4660091  58.3145475
  26.5356684  90.2461720  57.8326321  25.6974602  88.9925671  57.7027512
   9.7312301 100.4553604  27.8651118  10.2331865 101.2668896  27.9405022
  10.2328312  99.8156548  28.3704901  17.6136100  68.2423592   7.7681088
  17.7845001  69.0798378   7.3372245  17.0873404  68.4702921   8.5344756
  32.9135442  86.7922974  15.0388372  32.8855872  87.1015263  14.1333950
  32.1205759  86.2651348  15.1364863  94.2872180  51.0037994  64.5442247
  94.0957535  51.9192696  64.3405199  93.8396455  50.8446741  65.3752422
  55.8656608   0.8290399  24.0869379  55.8442031  -0.0733649  24.4054317
  55.6787180   1.3606275  24.8606944   1.3847710  10.3246376  89.0408107
   2.2783281  10.0030682  88.9209046   1.3348247  11.1047670  88.4884186
  37.9579329  63.9170980  59.6628046  38.2516003  63.0776167  59.3088722
  38.4541702  64.5712328  59.1707802  11.7945766  84.3834019  62.5077629
  11.7538857  84.4653511  63.4605789  11.0668123  83.8025188  62.2860241
 105.7121972  60.5082941  63.8792324 106.6206713  60.2607727  64.0513945
 105.2026744  59.7368050  64.1270685  47.0119238  86.8208694  41.5245485
  47.1638489  87.1322632  42.4168444  47.7605391  87.1482372  41.0259104
  15.9150493  55.3642988  49.6209002  15.8120215  55.2550554  50.5662489
  15.0246322  55.5004025  49.2970705  42.6746893  64.3567038  50.1394653
  42.2759104  63.5769463  50.5257082  43.2770586  64.0152836  49.4785500
  19.6651006  26.2405515  17.7594042  20.5967736  26.1577177  17.9627645
  19.6110046  27.0107198  17.1935880  28.1706023  39.0928674  50.8411026
  28.5614204  39.8000193  51.3543606  28.8403988  38.4092116  50.8263350
  16.8154371  74.5682144  40.1596117  16.3223135  73.8556623  39.7529984
  17.6385379  74.5986128  39.6719503  32.0076942  73.3707476  25.3571320
  32.4520779  73.0369329  24.5778251  31.1296177  73.5997248  25.0525308
  18.1272769  78.8410664  71.7277575  18.4258580  78.8914061  72.6358032
  18.9330447  78.8049173  71.2123346  94.5050145  88.5507870  48.3867836
  95.1422347  88.8708305  49.0253401  94.0842665  89.3422508  48.0509424
  26.1916757  50.7817221  50.5863142  26.4534473  50.4667091  49.7211742
  26.5879273  50.1605797  51.1973810  17.1107662  95.2819061  55.6343842
  17.2465420  96.2059689  55.4248238  16.1780393  95.1351929  55.4771376
  27.7093053  86.5726280  63.9387035  27.0991325  85.8802605  64.1927862
  28.1246519  86.8387508  64.7590065  55.8330202  86.0521603  44.4652319
  55.4340124  86.7573357  43.9555740  56.7751980  86.1824036  44.3576431
  16.1522532  84.0593243  25.6517911  16.3937211  83.5655308  26.4354324
  15.5615222  84.7414589  25.9710884  10.1148760  99.2402935  54.7099447
  10.0431406  99.5136070  53.7953997   9.3287176  99.5922279  55.1274681
  33.8307524  81.8876648  30.3017473  33.5856557  81.0215187  30.6272411
  33.5281754  82.4925327  30.9791136  19.0858841  65.5273104  62.7546787
  19.2971563  66.4201498  62.4818611  18.1348228  65.4679346  62.6641941
 101.9760241  17.4713013  65.8541648 101.3160314  17.9159233  65.3222315
 102.3603358  16.8217632  65.2654021  52.0193720  62.9861546  24.2930555
  51.6024923  62.1812344  24.6005416  51.7916489  63.6410236  24.9529958
  26.7357278  87.7020359  22.8638530  27.2565961  88.5040855  22.8232980
  26.6113353  87.4506950  21.9486547  28.9891410  57.1194029  52.1725702
  29.3050981  56.5288496  52.8564215  28.6992764  56.5382528  51.4693832
  59.9223995  20.6892872  53.4932661  59.6063328  20.7238054  54.3961191
  59.3441677  21.2829161  53.0142212  16.4761961  86.1058140  33.9548397
  17.3389375  86.3775730  33.6417055  15.9049654  86.1968994  33.1921911
  13.8571715  52.5165653  27.5144529  13.2632208  52.8073359  28.2064819
  14.0292311  53.3049393  26.9995856 107.8226176  73.8197994  39.9296784
 107.1529001  73.1445360  40.0379705 108.5567744  73.5168695  40.4639816
  42.8362322  39.3297935  68.8829994  42.9682207  40.1811218  68.4658003
  43.6110735  39.2093897  69.4319630  29.0059543  82.3083687  30.5128717
  29.5892024  81.5629292  30.3701615  28.5964036  82.1332741  31.3601279
 108.0640882  52.5312281  53.1783628 107.6332628  52.1597242  52.4085569
 108.8472570  52.9586077  52.8316307  75.4662657 100.2080154  60.5087757
  74.5474768 100.0861835  60.2695751  75.5341673  99.8443985  61.3916111
  61.8939604  63.5832739  38.6119151  62.3451770  64.4250822  38.6751366
  61.0093511  63.7610960  38.9314175  78.8484921  53.4408590  83.4444718
  79.0714731  52.6451132  83.9274804  78.1664576  53.8575575  83.9711826
 104.4399085   7.6937458  85.0169100 104.5444431   8.3980963  85.6565951
 103.5295238   7.7641842  84.7297295  63.2309293   2.5578512  33.9033842
  62.9798268   1.9771398  33.1850863  63.3028816   3.4222520  33.4985781
  32.5889421  88.0678272  37.2559977  32.8555393  87.4383831  36.5859532
  31.6973138  87.8078556  37.4876118  13.6005604  74.1749954  38.8288689
  14.3474066  73.5776234  38.7888145  13.9893126  75.0336075  38.9958525
   3.6105645  72.7759266  52.0270824   2.8910348  72.3998308  52.5340939
   4.3410835  72.8196573  52.6440620  46.6717052  81.4627266  49.2782307
  47.0470047  80.6243134  49.5474052  47.2541380  81.7745018  48.5855579
  52.2785257  16.5570653  32.4021220  51.4909719  16.6444314  32.9391098
  52.3052453  17.3611749  31.8835425 106.6588561  70.8825016  33.7482500
 107.0570206  70.4500580  32.9928088 107.3591511  70.9193134  34.3997574
  19.9411249  88.7800980  27.6556277  20.7389355  88.9709663  27.1623731
  19.4601631  89.6076584  27.6627231   9.4441140  46.6066122  58.6584425
   8.9244968  46.6346455  59.4618416  10.2955246  46.9635391  58.9112997
  59.8709177   2.3956026  49.2835093  59.0304517   2.5056089  49.7281933
  60.2333282   3.2801546  49.2340755  83.2311081   6.4703763  32.3116374
  82.7630399   7.2321428  31.9697905  84.1369604   6.5999902  32.0308089
  41.7843246  80.1366234  59.5833635  41.0517645  79.7885323  60.0917196
  41.3983870  80.8346748  59.0542126  57.1432256  16.5324605  66.0056496
  57.9729365  16.1199487  65.7655668  56.4862560  16.0693086  65.4859257
  23.6564660  61.9167471  56.2117386  23.6452961  62.4329662  57.0177269
  22.8793406  62.2041416  55.7324505 101.9823058  55.1254511  36.2944007
 101.4268614  55.2343416  37.0663190 102.7544708  55.6606674  36.4775205
  84.6746658   1.6665376  72.5677013  84.6655058   0.9337247  71.9519711
  83.8222526   2.0865739  72.4528122  25.5423880  91.6242123  21.7404127
  26.4473653  91.4176846  21.5067601  25.1723933  92.0108700  20.9467936
  31.6708779  67.4452162  39.5714021  31.5036631  67.9595757  40.3611517
  32.0413709  66.6238832  39.8944831  19.8929179  61.4379930  34.9580097
  20.8394933  61.2997389  34.9246645  19.6669006  61.3260937  35.8813858
  37.1560025  80.7854939  19.8906052  37.0874476  79.9029064  20.2547026
  36.3712621  80.8837605  19.3513823  86.9668975  31.3576338  82.0791023
  87.0491912  32.0046732  82.7796732  87.5431838  30.6413576  82.3457037
 102.5580193  37.2572136  51.8750763 102.6834066  37.7146983  51.0436821
 103.2423414  37.6062799  52.4461174  40.1451128  17.5790132  33.8664985
  40.9763174  17.5672353  33.3919549  39.6923505  18.3554567  33.5373020
   4.6414301  93.2424736  43.2200193   4.6131986  94.1721725  42.9939890
   5.3581047  93.1709194  43.8504887  26.9958544  48.9396286  32.5190496
  26.5289879  49.6732235  32.9191780  26.7558479  48.9793158  31.5932775
   5.7421762  65.5398989  66.0535574   5.5289650  66.3500977  65.5905771
   5.4240751  65.6826210  66.9449997  60.1738857   2.7287687  18.4779096
  59.9451040   3.6205972  18.2161093  60.9433173   2.8333868  19.0376079
  36.4739285   3.5620035  48.0286789  37.3054604   4.0352357  47.9997349
  36.4095404   3.1383337  47.1727657  87.6794375  68.4353352  47.7601719
  86.8007530  68.1835651  47.4759960  87.5325669  69.0140295  48.5083532
  38.0144095  80.0957966  51.3392258  38.4513712  79.5523310  50.6835270
  38.0894947  80.9876156  50.9997320 104.7442828  42.8043699  43.2292461
 104.0572382  43.2888031  42.7715015 104.8740415  43.2867050  44.0457916
  47.6284552  78.7854862  49.5667744  47.7296019  77.9579878  50.0371456
  48.3295012  79.3415022  49.9067831  42.2451258  83.9807129  35.2339745
  42.5083399  83.9482975  34.3142438  41.4589596  83.4363937  35.2774405
  78.2657408   8.2528604  64.8446417  77.6838754   8.7519849  65.4178238
  77.9744743   8.4707464  63.9592505  13.1245244  51.8350172  13.3322179
  14.0402579  51.9946432  13.1037796  13.0206895  52.2320271  14.1969907
  22.7016973  97.1199417  47.8987980  22.7572894  97.5887203  48.7314987
  21.7798686  97.1838474  47.6490450  29.3174410  72.6019764  41.8886137
  29.8603988  73.3078575  42.2395515  28.9065981  72.2100782  42.6592350
  13.6455250  61.9235134  59.7629976  14.0419805  61.0550928  59.8329926
  14.3848443  62.5130510  59.6143866  29.4776821  75.0343657  50.3927660
  30.1496887  75.6531191  50.6787491  29.0175319  74.7921658  51.1964035
  56.4366770  94.4898701  39.8672819  55.9851742  94.2672539  40.6814194
  56.3456297  93.7087440  39.3215942  56.1685228  78.4896278   9.9301642
  56.8349934  78.8639879   9.3540519  56.2119484  77.5475788   9.7661960
 105.3824271  21.8325162  27.4401331 105.3113247  22.0187092  28.3763528
 106.1385692  22.3433328  27.1510887   8.0913591  80.7680607  67.5886106
   7.3402697  80.7086849  68.1790113   8.2625568  81.7067432  67.5124884
  46.4240026  72.5233746  13.9833868  47.0526123  71.8941259  14.3371189
  46.2375021  73.1123924  14.7144878  33.3738232  68.3835840  64.3252945
  33.9442253  68.9359665  63.7907410  33.8848019  67.5887299  64.4780588
  12.3658955  86.9223404  38.8083553  12.2861218  86.7539120  39.7472382
  11.7254436  86.3366032  38.4046769  26.3858795  79.0295935  54.6663380
  27.1434808  79.1695690  54.0982914  25.7056022  78.6971426  54.0807343
  53.8525772  84.0373135  70.3583908  53.7211323  83.8729000  69.4246197
  53.6555052  84.9675846  70.4678631 107.7308406  79.7879744  16.0856402
 106.9203323  79.3002176  16.2319279 108.4242086  79.1887045  16.3619518
   3.1116474  36.0194230   1.0000758   3.2253298  35.0745797   1.1029211
   3.0395907  36.1504865   0.0546330  35.0904322  54.6913481  13.1987035
  35.2948642  55.1254988  14.0269256  34.2079329  54.9921560  12.9820395
  19.2623317  93.3326054  64.2607117  19.0164602  92.7164650  63.5706758
  19.9774647  93.8437080  63.8817739  20.0340391  10.0104401  85.5594914
  19.4856240   9.7574637  86.3021057  20.7430388   9.3673727  85.5552976
  14.9689114  62.0956802  30.6757236  15.9140217  62.2198391  30.7627988
  14.8327041  61.9416094  29.7408748   4.2494643  49.2069006  27.8329968
   4.9942237  49.2789459  28.4299684   4.1752923  48.2693958  27.6546311
 105.3732676  59.9079752  70.2766705 105.8216686  59.3971252  69.6027279
 105.3856875  59.3457651  71.0512686  24.3308020  93.7603378  59.4948626
  23.5808945  93.1960583  59.3065691  25.0791407  93.1639957  59.5192003
  34.9310613  66.1719465  63.8041782  35.8864999  66.1214447  63.7755680
  34.6631384  65.3793907  64.2692566  55.2223682  94.4202232  21.0655737
  54.6680593  94.0489674  21.7519712  55.9775782  94.7760105  21.5338826
  17.4045432  89.5800686  68.4167528  16.9457960  89.3711567  67.6030350
  16.7957854  90.1406670  68.8977718  26.4207602  58.5941648  74.0273952
  26.9977856  59.0588951  74.6334457  25.6013846  58.4879494  74.5106888
  91.1489679  50.3552341  28.2128429  90.9104801  50.1580381  27.3070431
  90.6637527  49.7148323  28.7331152  24.1948605  89.2725754  67.1396494
  23.3910537  88.9338207  67.5338221  23.9956379  90.1867104  66.9373798
  22.0887756  75.5150700  87.4242496  21.1645889  75.3911448  87.2080231
  22.3654532  76.2519932  86.8796158  18.3014524  75.6901932  14.6675467
  18.9716840  75.9218121  15.3104866  17.9306448  74.8699427  14.9930120
  20.7450557  46.2182999  69.9815369  21.3902664  45.5235624  69.8500919
  21.0484409  46.9353914  69.4247913  21.7089701  85.3685856  51.8002558
  21.3043165  85.2810574  50.9372234  21.7789149  86.3133430  51.9372940
  38.3606744  94.0104294  53.6051130  37.6683426  93.5748768  54.1023064
  38.1552410  94.9427319  53.6746597  22.4786544  91.8164635  82.4564075
  21.7881060  91.5392017  81.8543339  22.7241206  92.6905441  82.1531391
  18.9106095  74.7804928  46.9444942  18.8443673  75.7273436  47.0682716
  19.8484838  74.5969105  46.9985437  17.5540626  64.6723318  40.4865694
  17.8447056  64.8836851  41.3737488  18.0735326  63.9069986  40.2402973
  63.2959126  22.8661931  41.9030094  63.8031911  23.2523836  42.6169872
  62.4571823  22.6356519  42.3025227  52.8202354   7.1220411  49.5551538
  52.8474783   7.3686517  48.6306667  53.6441623   7.4504770  49.9150276
  48.9653111  94.0239048  71.5437889  48.0375481  93.7937546  71.5939474
  49.3981647  93.4028339  72.1295738  48.5410500  78.1752396  31.5815425
  49.0617895  78.1711626  32.3846912  48.8190413  78.9663172  31.1198640
  31.4739538  38.5898707  79.7898887  31.4621283  37.9729292  79.0581243
  31.3418127  39.4462893  79.3832933  23.7646651  80.1205158  26.7279959
  24.2753005  79.7893047  25.9892249  23.5747957  81.0303593  26.4991760
  27.3609686 100.2121735  46.8055201  27.7202892 101.0196400  47.1730947
  27.0454264 100.4637718  45.9375572  94.3046093  93.7615013  46.8860579
  94.9971390  94.2306423  47.3513985  94.5653915  93.8005733  45.9658957
  10.5619442  63.7372017  26.8023992  11.3106704  64.0457916  26.2920928
  10.7386577  62.8079510  26.9490027  43.8311195  71.9346237  48.0040073
  43.5182714  72.7724075  48.3452988  44.3106604  72.1642876  47.2080660
  67.4996948  83.7807274  48.9670324  67.5782013  83.9879990  48.0358458
  68.0967522  84.3912601  49.3994665  27.2796583  66.8975067  45.0272608
  27.7968407  66.1032867  44.8932171  27.5869656  67.5005198  44.3503761
  68.6378382   5.2141298  79.5581722  68.8321947   5.3617300  80.4837322
  67.9128407   5.8094133  79.3677807  23.5850954  99.7400475  71.4519501
  22.7248955 100.1582813  71.4149189  23.6797237  99.3112087  70.6014395
  38.6422896  74.4338131  36.6978979  38.0693173  74.6869183  35.9741068
  38.8581920  73.5177517  36.5233922  67.2804116  28.2934488  31.1089301
  66.3590692  28.0411924  31.0479069  67.6557921  28.0348600  30.2672338
  28.5119152  61.9603062  48.6240578  29.4233489  61.9571972  48.3316326
  28.0479741  61.4406872  47.9675579  97.8189720  99.1547680  30.4830194
  98.1598533  99.7460365  29.8118734  97.1662141  99.6750736  30.9514475
   1.2324772  12.5543703  52.6807451   1.7944822  12.4380983  53.4468126
   1.8397865  12.5937952  51.9419241  31.1926532  53.6636734  53.6792231
  31.1500525  53.5029078  54.6218681  31.1710310  52.7911377  53.2862282
  48.2124281  97.0750141  69.0727711  48.5840321  97.9285240  69.2956161
  48.8980484  96.4478683  69.3026638  63.7332249  99.4096184  28.5865545
  63.3526421  99.3137074  27.7135181  64.5705366  98.9486790  28.5347891
  51.5202856 102.1984291  69.5600510  52.2932577 102.6323986  69.9211884
  51.1861753 102.8107262  68.9045477  55.7808018  94.7644711  29.0264511
  55.8444500  94.0450001  29.6545768  56.2927532  94.4705868  28.2729506
   2.7359829  25.0399221  78.2699251   2.4352751  24.2870248  77.7610540
   3.6332998  24.8180021  78.5185432  44.1844893  74.9392080  19.5728123
  43.9021063  75.1894617  20.4525089  45.0757360  75.2809238  19.5010793
  30.7942224  98.7370205  50.1781321  30.4178381  98.1847382  49.4928885
  31.6413474  99.0109539  49.8266077  74.7606515  19.4951452  32.3982978
  75.1966809  18.8142217  32.9105973  73.9685487  19.6987833  32.8956270
   2.5276047  54.8862123  51.2524271   1.9931149  55.6743383  51.3494253
   2.5718796  54.7416735  50.3072405  43.0680895  98.3410931  54.3283939
  43.5821152  97.6330090  53.9402866  42.9821157  98.0973053  55.2500248
  19.2551875  81.3308048  59.8095512  19.6237469  80.5546284  60.2313852
  19.9697733  81.9676590  59.8135471 108.1927513  21.4154066  29.5146346
 108.9806055  21.8525899  29.8377419 108.1653045  21.6296590  28.5821247
  54.9876713   1.0546983  36.5967250  55.8162652   1.3924039  36.9367528
  55.1453828   0.1195444  36.4669371  52.1186398  16.2982191  63.6219883
  52.4936079  15.5219663  63.2059813  52.3314809  17.0160020  63.0255747
  64.6058702  83.0680180  50.1791525  65.3299952  83.2574272  49.5825052
  64.0564394  82.4479294  49.6997309  23.6634755  90.3100491  36.9505358
  23.1164598  89.7954845  37.5440264  23.9868569  91.0325527  37.4887228
  45.7461898   8.9995492  28.5958862  44.8134719   8.9874471  28.3811235
  46.0939996   8.2015527  28.1978178  35.4785085  57.8834915  51.4116621
  35.7826567  57.6028633  50.5485439  34.5628142  58.1268024  51.2754965
  57.7838373  54.6631813  18.9140785  57.8381491  54.5626020  19.8644292
  57.6234961  55.5974054  18.7808764  91.9657396   4.0732587  25.0119948
  92.5369571   4.8406518  25.0444603  91.7015384   3.9327062  25.9212112
  76.5465187   5.8588994  40.7447672  75.8923577   5.2116121  41.0080671
  76.8548988   6.2365068  41.5685081  28.5206485 100.0276470  38.6688566
  27.7965522 100.0617790  39.2939568  28.2678103  99.3458080  38.0464458
  20.9297657  68.3605337  63.4919071  21.0432863  69.2817688  63.2580805
  20.2586341  68.3676004  64.1743755  32.0036125  77.5719213  73.1480598
  31.5522742  76.7278242  73.1434584  31.9221640  77.8821611  74.0499210
  62.0167755  14.0577997  59.2556334  61.0990738  14.3256010  59.2072916
  62.4138545  14.6736253  59.8715305   3.1382570  12.1540082  50.2102089
   2.2125683  12.0203889  50.0065327   3.3827124  12.9344381  49.7128296
  16.2093890  83.1756592  33.9804339  17.0084119  82.6868153  34.1774702
  16.4348269  84.0874672  34.1648817  46.4159118   0.5255807  33.3095598
  47.3552798   0.3629793  33.2236600  46.3554500   1.2698377  33.9084482
  96.6424345   0.6376565  35.7167077  96.7599128  -0.3112875  35.6727171
  95.7550167   0.7536520  36.0562134   8.1347620  67.3724890  69.9115038
   7.7226573  68.1879759  69.6262264   8.3501226  67.5222254  70.8320665
  73.8550663  89.5752144  16.3482928  74.6410704  89.1677094  15.9844613
  73.2457447  89.6203995  15.6114626  61.9335747  73.4764385  51.1162233
  62.5851250  73.9685822  51.6157246  61.3771009  74.1478634  50.7215643
  17.8777492  73.6470556  44.4338274  18.8054490  73.4921980  44.2559958
  17.8702700  74.1416264  45.2533293  23.6151205   1.6476358  48.3415556
  24.4942795   1.4146245  48.6399078  23.3447217   0.9104360  47.7941513
   6.7260772  58.8489389  62.2998142   7.2076756  58.0979872  62.6467466
   5.9721690  58.9399529  62.8825378  71.6872644  78.3904123  46.9639063
  71.5379190  77.4766588  47.2067690  72.6033783  78.4182167  46.6878700
  13.9587295  92.4986076  68.4715462  13.2172346  92.8824997  68.9395618
  13.9431560  91.5732861  68.7160206 104.6159659  98.4782696  22.8044868
 104.5481743  98.9413738  23.6394548 105.5353646  98.5691833  22.5541401
 107.2504352  12.4811853  10.6372714 107.7502989  11.7508234  11.0018766
 106.4241146  12.4706853  11.1203063  23.5710764  93.7214184  54.6108150
  22.8537011  93.3506203  54.0968943  23.4644747  94.6685410  54.5223665
  33.2007170  60.4526997  46.8230009  33.5062647  60.0807524  47.6503658
  34.0020013  60.6962395  46.3594723  32.6577425  84.8243999  48.1948471
  32.8972149  84.6901035  47.2778654  33.0654216  84.0929031  48.6584568
  66.1611341  21.0466016  29.9910259  65.4976367  21.3825811  29.3884277
  65.8789395  21.3527978  30.8529091   5.3442490  85.9661674  50.9994268
   5.5454546  86.9002438  50.9423494   6.1526716  85.5661678  51.3198709
 101.6646312   3.3173669   4.0142491 101.7631506   2.7946294   4.8100343
 101.7081760   4.2245019   4.3166423  18.8488698  81.0164070  16.8088782
  18.2604432  81.4922428  17.3950219  19.5872748  80.7645702  17.3634672
  25.0960898  94.2206669  74.6069336  25.1972914  93.4280682  75.1339817
  25.7486343  94.8266411  74.9579430  48.3383083  88.4760380  24.0029812
  48.5240126  87.6521492  24.4534874  48.6532545  89.1528797  24.6020818
  81.0546135  23.6938203  30.4061270  80.2293800  24.1057981  30.6620502
  81.0758327  23.7723077  29.4523859  28.8902736  93.5136318  33.9557457
  29.8231840  93.5257816  33.7418270  28.7522101  94.3087292  34.4705200
  49.3391514  94.6753597   6.6258812  49.0764856  94.3862724   5.7520020
  49.3306971  93.8775444   7.1546990  55.0871420 100.1553726  76.4413548
  56.0031843  99.8990154  76.3346815  55.1196623 101.0980129  76.6044331
  38.8380861  56.8773746  51.0019255  39.1966748  57.7591991  51.1020899
  38.2130575  56.9534445  50.2809668  52.8697466   2.2535051  35.4137421
  52.6567470   2.8911603  36.0951066  53.7042998   1.8758977  35.6915355
  88.0299380  53.8408491  73.3074527  88.2610896  53.2513926  72.5895803
  87.5567903  53.2874701  73.9288514  16.4234865  77.8668261  68.8887691
  16.4838326  77.6560736  67.9570103  16.2375605  78.8055420  68.9104557
  60.6068276   1.8425001  10.1833212  60.4918908   2.2792734  11.0272682
  61.5556263   1.7872251  10.0694871  49.0699148  95.2080250  51.7503929
  48.1506920  95.0730419  51.5200853  49.3186617  96.0066128  51.2849855
  56.8036960  24.4186128  59.2855740  56.4645885  25.2769769  59.0316868
  57.6839947  24.3884672  58.9108801  41.1876965  64.5834112  62.8443241
  41.4813995  64.1094112  62.0663166  41.3033962  63.9607382  63.5620451
  31.7641497  80.8752632  10.4722142  31.1136627  80.2200985  10.7249200
  32.5918937  80.5338955  10.8106518  95.6425213  12.2551168  17.2986925
  96.5907549  12.3581804  17.2183204  95.3151630  12.3445619  16.4036679
  33.4013224  49.4797564  40.1792192  32.5976610  49.9987411  40.2110529
  33.2614040  48.8655424  39.4585299  12.6274598  95.1466560   5.1643759
  12.9119265  94.2792797   5.4524320  11.7953157  94.9898434   4.7180822
  83.2614244  86.8119431  13.3163548  83.4593857  86.5073204  14.2019320
  84.0500010  87.2801876  13.0422616  31.4964461  51.4606714  78.1349230
  31.8690252  50.8119965  77.5377321  31.3810205  52.2435665  77.5964260
  62.0307969  -0.1119029  35.5373359  61.8212603   0.8199800  35.4747248
  61.8919634  -0.3271758  36.4596248 100.8575637  57.4161720  13.0680573
  99.9865152  57.5758696  13.4313786 101.4589555  57.6598406  13.7717509
  60.7920526  20.0012983  70.1336384  61.2580417  20.7737077  70.4537582
  61.4052795  19.5857824  69.5273972  80.3424429  19.6669591  64.0625143
  79.6421503  19.1116727  63.7197733  80.7826637  20.0057901  63.2830048
   8.3618766  99.3888283  80.7611942   9.0868759  99.4111443  81.3857841
   7.9388654 100.2423859  80.8546543  31.8247247  91.7703629  33.7260532
  32.3980808  91.6729069  32.9657912  32.3513699  92.2534370  34.3628573
  40.4434156  89.9193573  63.9901304  40.1296902  89.0151596  64.0051699
  40.9611750  90.0065804  64.7904778 108.7527833  46.7961073  27.2754741
 108.9822316  47.6552963  27.6295638 108.2398362  46.3805914  27.9686308
  10.9270704  85.6366634  12.5027204  10.2450252  85.8147717  11.8551707
  10.5304122  85.8759308  13.3403635  46.2093592  99.1899681  54.1656542
  45.4777956  99.4784164  53.6199093  46.6600180  99.9986076  54.4090462
  85.5176353  94.7581577  57.8579092  86.2793732  94.4331360  57.3779726
  84.7987938  94.1911125  57.5786924   9.8550439  86.0343647  40.5647516
  10.1144648  85.1168156  40.6487131  10.1132596  86.4332676  41.3956738
  35.9922123  78.4486628   0.2800164  35.2623653  77.9956007   0.7022581
  35.5975676  78.8888073  -0.4728206  36.6166687  94.5120049  43.0789185
  36.9544101  94.0630341  43.8538980  36.8850970  95.4235363  43.1941891
  17.7961087  96.5982437  58.2817936  18.2130134  95.9868622  57.6746416
  16.9020140  96.6904068  57.9526520  43.4341240  80.0603867  57.2721243
  43.4032011  79.2820358  56.7158461  42.8077650  79.8790169  57.9728460
  18.5660577  67.3983622  19.4108260  19.3303013  66.8309450  19.3098485
  18.1679618  67.4210739  18.5406327  44.1015863  91.0274029  47.4353981
  43.6269855  90.1961708  47.4415922  44.9090719  90.8457565  47.9162359
  40.7118464  99.6622658  54.4236040  39.8843479  99.2949772  54.7343636
  41.3578844  98.9775467  54.5968723  42.7843189  99.7554970  13.5820103
  43.6598253  99.5953655  13.9342546  42.9020119  99.7413254  12.6321793
  49.8396444  84.4328499   4.3464291  50.6482840  84.1550064   4.7767106
  49.3599463  83.6194515   4.1899011  50.1564192   3.1829656  33.5844183
  50.6867241   3.9253725  33.8739705  50.7811092   2.4634374  33.4933829
  56.3712095   6.0535158  44.6585703  55.4164099   5.9861387  44.6516514
  56.6480922   5.4607404  45.3572702  17.4819660  69.9854565  54.6853924
  17.2689307  69.5906878  53.8398170  16.9361424  69.5135355  55.3143597
  18.2425034  82.9746914  18.8293338  17.3447895  83.2233334  18.6090612
  18.2254088  82.8288746  19.7752070  45.9888649 102.8472233  53.3212471
  46.4408112 102.6155949  54.1326189  45.5387783 102.0438385  53.0600452
  37.3732400  72.3178625  55.7461786  36.7233324  71.6667795  55.4817104
  37.1143866  72.5681067  56.6330862  88.7736702  90.6217098  43.5863256
  88.0084610  91.1497593  43.3586168  88.4456921  89.7227764  43.6106443
  75.2168225   5.3385557  54.7406530  75.3009938   4.4726957  55.1399422
  74.3838333   5.3054346  54.2702627  13.0567801 102.7473640  19.0494549
  13.0222130 102.8930378  19.9948752  12.1543920 102.5411415  18.8057399
  57.8916264  77.5855970  40.5539417  57.6151562  78.0259228  41.3576269
  57.1650982  77.7196455  39.9453139  55.1985489  11.9999517  58.0921078
  54.6774768  11.3420022  58.5523367  55.8525048  11.4935125  57.6103497
  96.7585205  22.6761163  32.3857522  97.0400308  23.5798563  32.5280190
  95.8951591  22.6267732  32.7961183  53.4413885  23.8340295  35.4501772
  53.3145343  23.7081350  34.5098114  52.5729882  24.0645994  35.7802558
  30.3507328  94.9287796  20.6377435  29.6710849  95.5727386  20.8368087
  31.1733460  95.3990269  20.7734275  26.7016697  59.3105459  55.6784964
  27.6038003  59.4405937  55.3861284  26.3671732  58.6097670  55.1188040
  27.5352192  94.9676704  62.7178383  28.1535721  95.5897141  63.1011486
  27.1501946  95.4376411  61.9781637  13.9873886 101.9761848  14.1533530
  13.0336571 102.0113564  14.0799236  14.2380190 101.2019348  13.6494088
  31.1383104  51.2445736  40.0531101  30.7036233  51.9866657  40.4733276
  31.2048912  51.4962339  39.1319847  55.7962810  15.0912965  64.1864491
  55.1892065  14.6782125  63.5723972  55.9735857  14.4145502  64.8397636
  31.7779922  76.1981297  20.4457712  31.8196511  75.2473307  20.5481458
  32.3119545  76.3793659  19.6722925  42.4225569  96.3859653  25.0398660
  43.1422091  96.9742203  25.2685380  42.4110842  96.3823318  24.0827417
  55.7507086  92.5032043  70.5471849  55.4914618  91.5881729  70.6554794
  56.2964773  92.6895428  71.3111544  36.5141535  71.7321634  59.5892763
  35.6207037  71.7252874  59.2458677  36.8371964  70.8445692  59.4341755
  18.4594975   6.8101705  27.8871250  18.9781914   7.5454629  28.2135367
  17.6115379   7.1949495  27.6654625  75.1570677   5.5784334   8.1439483
  74.9326204   5.1210226   7.3336184  76.0253381   5.2471937   8.3733469
  80.9953521  24.8422540  64.1466045  80.0838732  24.7338308  64.4180441
  80.9411787  25.2583803  63.2862949  26.1284137  70.0981236  50.3482819
  27.0185995  70.4189444  50.4927635  26.2430882  69.1870928  50.0779009
  61.1818098  28.4814561  39.0443754  60.9276985  27.9873861  38.2649207
  60.8804487  27.9444135  39.7771716  44.5430994  48.9084435  25.6015706
  43.7746954  49.4671917  25.7181573  44.1853237  48.0254889  25.5087495
  30.8680058  81.0543537  33.2567620  30.0175095  80.9887409  33.6910248
  31.3077140  80.2301311  33.4654737  28.2152295 102.4629402  57.8473043
  27.7276468 103.2793045  57.9570436  28.8313699 102.4516392  58.5797453
  32.2378945  91.0889435  26.3557506  32.3148036  91.5659904  27.1820354
  32.1178699  90.1758385  26.6166329 100.5059375  62.0670557  15.6788123
  99.6287526  62.4383307  15.7733393 101.0962154  62.8031921  15.8397651
  35.2953935  87.3636150   7.5575703  34.6158910  87.8702354   8.0023646
  34.8126960  86.7411804   7.0136821  52.0340586  98.2354259  39.2015076
  52.9049635  98.6317348  39.1752172  51.8241405  98.1800747  40.1337624
  28.1293559  68.9800835  72.0083570  28.1095815  69.6821451  72.6587057
  27.4068546  68.4033203  72.2564936  41.3650703  68.8535690  64.8317432
  41.6850042  68.1590319  65.4075003  40.6261492  68.4591770  64.3684006
  26.9467330  83.7589741  69.5512915  27.7332902  83.2135201  69.5570469
  26.5216804  83.5751915  70.3890181  54.1619455  20.2781023  31.2258124
  53.6100243  19.8617471  30.5637956  55.0572191  20.0940717  30.9414673
  86.3144468   6.2246049  85.5219078  85.9735559   5.7643045  86.2888145
  86.1484216   7.1494878  85.7042885  52.8049707 102.3926735  28.4650993
  52.2641611 103.0972290  28.8219786  53.1497288 102.7470779  27.6454806
  45.1582003  76.5560627  49.7965479  44.7778320  76.7527866  50.6526184
  44.6284103  77.0587778  49.1778183  35.0443459  99.4782639  37.0414209
  34.3801379 100.1414394  36.8536639  34.7312331  99.0435410  37.8346443
  15.7319415  80.6761551  43.3012009  14.9250925  80.9656048  43.7271690
  15.6836379  81.0464668  42.4198580  35.3227425  84.1058731  20.2964878
  34.7071910  84.7606945  20.6259370  35.4274249  83.4895039  21.0213017
  13.5274959  71.6021490  15.4257882  13.6255646  72.1556759  16.2005293
  14.1251278  70.8699608  15.5773425  49.3555880  88.0531788  63.7660265
  49.6209717  87.1432018  63.8992548  49.5543242  88.2284164  62.8462315
  50.9409046  67.8495455  11.3265646  50.3427792  68.3329201  10.7566321
  51.1286974  68.4541273  12.0445073  74.9016714  92.1195412  44.8852158
  74.3319368  91.5074635  45.3510427  75.4795504  91.5607357  44.3655825
  21.2892485  86.0742474  58.4850168  21.5290666  86.7250633  59.1446829
  21.7587495  86.3477421  57.6969767  90.0464987  11.2881006  81.5511417
  89.4424700  10.5823339  81.3203239  89.4822143  12.0462335  81.7029667
  80.4215597  11.4889444  58.2394791  79.6091770  11.0788358  57.9427147
  80.9021496  11.6789926  57.4337816 105.8697830  87.2068691  35.8021474
 105.7593120  86.4297009  36.3498974 105.5754773  86.9317341  34.9338627
  22.9163074  94.3063545  25.8165956  23.8406134  94.4079304  26.0436845
  22.7440739  93.3711910  25.9263539  41.5611219  51.8515968  16.9158280
  41.7372847  51.3115835  16.1453855  41.0208368  52.5698137  16.5864539
  17.1639860  93.4657383  37.4706030  17.2742462  93.1461143  36.5751028
  16.9777191  94.3992805  37.3704863  36.5063453  84.1684914  56.9817352
  36.0251498  83.8814640  57.7578115  35.8552790  84.1615963  56.2800932
  85.2228178  85.8260536   6.4995980  85.5491317  86.2988472   7.2652483
  85.3463687  86.4350033   5.7714832  20.9653544  63.6508942  62.8170538
  20.1430392  64.1299820  62.7145481  21.4745164  64.1780376  63.4327698
  76.1388515  10.2164472  16.9173038  76.4327024  10.7953657  16.2139285
  76.8928503   9.6543802  17.0956373  34.1252804  90.9986115  62.1065807
  34.2982793  91.1791039  63.0305529  33.1734467  91.0584641  62.0249796
  19.6029103  96.9458199  46.9113731  19.2933333  97.8194714  46.6723585
  19.0012264  96.6580391  47.5979519 104.3714919   7.9671881  88.8933006
 103.5925903   7.8732321  88.3449254 104.4070115   8.9009163  89.1009418
  92.2048988  25.3658602  77.8184264  92.8151371  24.6549913  77.6221948
  91.4128783  25.1435635  77.3290210  68.7130760   2.7446855  36.6905832
  69.1261505   2.3428167  35.9263206  67.9450177   2.1997655  36.8619752
 107.5647106  31.7801878  74.9080520 107.7009573  30.9941599  74.3790560
 107.5927796  32.5005266  74.2783289  47.0070505  86.3607597  22.2488451
  47.5720119  85.6082153  22.4241424  46.5253210  86.4939117  23.0651975
  33.4716296  79.3577433  42.8044701  32.8877974  78.9720631  42.1513081
  33.4303522  78.7559700  43.5477018  21.2860060  89.7455978  44.8108292
  21.3722944  89.2321396  45.6140423  20.7471108  90.4955196  45.0626850
  12.9054340  59.3693439   2.1923311  13.0173334  58.6013690   1.6320474
  12.2721466  59.0924732   2.8545435  43.6076450  84.3436337  39.4683528
  43.6889458  85.2723122  39.6855569  44.3380213  83.9260578  39.9248743
  40.3146076  56.5983343   7.2731310  40.0202179  57.5013351   7.3920995
  41.0281467  56.4941359   7.9026079  51.3839436  69.7006559  23.1679869
  51.4295006  70.6526279  23.2568884  50.5231190  69.4684982  23.5162997
  47.7691650  97.5883579  38.7853622  48.3033609  98.1419373  39.3549418
  46.8876362  97.9551697  38.8531137  22.0062566  98.6980629  36.0367489
  22.3612046  98.4720802  36.8965030  22.7675200  98.7006474  35.4564857
  36.1316419  47.3216963  35.8008575  35.5838990  48.0443382  35.4942727
  36.3881421  47.5750542  36.6875648  13.4456682  54.0588474  48.8784695
  12.9560256  53.8316679  48.0879831  13.3497655  53.2950735  49.4474030
   7.3188257  76.3772011  23.9356685   6.8542165  76.6381407  23.1405091
   7.1637428  75.4352331  24.0054846  50.2281498   7.0909132   7.6216781
  49.3714594   6.7739976   7.3355377  50.6423651   6.3289369   8.0266970
  17.1390558  32.4845144  78.6441152  16.4030958  33.0941031  78.6989586
  17.3792912  32.3164866  79.5553141  43.1134558  61.6435432  15.2980626
  42.9598475  62.5455999  15.5790174  42.3469925  61.1619520  15.6092417
  33.7094831  73.2519341  79.3530703  33.0943537  73.9729118  79.2187643
  33.7146664  72.7829361  78.5186577  21.7150949  24.3874372  32.4534988
  21.1133443  24.3332208  33.1959200  21.6908406  25.3079809  32.1922588
  26.3703752 100.5270863  18.2069063  26.4384484 101.4110661  17.8460968
  25.7031393 100.0998783  17.6697695  12.7881527  65.3163338  71.2180614
  13.0249047  66.2157488  71.4444017  11.9691515  65.3999090  70.7297134
  96.5855528  71.3715839  27.7523899  96.9185950  71.9358015  28.4502244
  96.7571927  70.4819775  28.0612135  24.5451283  73.6212540  38.0727339
  23.6218452  73.8374043  38.2033396  24.7115493  72.9027748  38.6829185
   9.4044721  73.2345724  49.6809626   9.5671916  72.3321819  49.9556446
   8.7752253  73.1568813  48.9638519  31.2692070  80.7126713  30.7500052
  31.9040632  80.0225258  30.9420657  30.9998202  81.0362816  31.6096234
  55.8931731  26.7608274  54.9770832  55.3733956  27.3902238  55.4769945
  56.7673110  26.8112863  55.3638268  28.1547713  88.1208134  14.1860282
  28.1763363  87.4364948  14.8549604  27.8270531  88.8942051  14.6450484
   3.8488135  95.3631783  52.4008894   3.5307005  96.1594486  52.8263283
   4.6093014  95.1016998  52.9200411  21.3988519  77.8329897  36.3446927
  22.0501471  77.1324205  36.3092923  21.9138169  78.6397266  36.3299656
  34.0365338  92.3636818  14.2354894  34.5852256  92.0638371  13.5107386
  34.5305085  92.1315479  15.0218332  37.4619555  94.1851711  45.7462645
  37.4085426  94.4025040  46.6769314  38.2275534  93.6148167  45.6770563
  24.2557549  83.0616951  25.7842708  24.5030332  83.7795448  26.3671803
  24.7116446  83.2511806  24.9642158  71.8564914   3.0983175  76.0225153
  71.3467120   3.5811246  76.6730928  72.0830129   3.7528814  75.3618574
  33.8573408 100.7592487  48.8915682  33.0647945 101.2931633  48.8364697
  34.4191074 101.0914803  48.1913757  16.4731240  95.8884621  36.2737298
  15.8171248  96.5782166  36.3743567  17.3027968  96.3578320  36.1867571
   8.9237839  99.1178989  40.5328846   9.8550618  98.9062214  40.4684639
   8.5482246  98.7983418  39.7124743  24.0093398  37.3360014  41.4500523
  24.7034931  37.1476054  40.8184767  23.1990910  37.2534609  40.9471416
  51.3632679  84.7516155  26.4809585  51.4130259  84.5350933  27.4120188
  52.1821976  84.4189930  26.1136031  28.9629579  79.8654556  70.3919029
  28.0636668  79.5566034  70.2818155  28.8805079  80.8145046  70.4853964
  29.3028736  63.3500147  15.3549826  29.4518924  62.6241159  14.7491002
  28.3854961  63.2617092  15.6135440  42.2269917  86.7387199  55.4584169
  41.4287472  86.8226147  54.9368858  42.7350140  86.0616302  55.0115347
  24.3664551  93.7663841  68.1173849  24.4339871  94.3424129  68.8788748
  25.2017927  93.2995224  68.0953932  40.4266548  95.5399704  48.2336855
  39.6992135  95.8740997  48.7584925  40.8762598  94.9240112  48.8121986
  58.7510036  10.2062906  23.0619431  59.4921373  10.0451196  22.4780107
  58.5693763  11.1411870  22.9660010  37.7900791  69.1026306  49.9059534
  37.7661824  69.9359083  49.4355202  37.0426059  69.1428566  50.5025244
  38.8643265 101.4140892  22.4729395  38.1616139 100.7709980  22.5670791
  39.0427732 101.7064381  23.3667612  59.7741102   4.9798788  50.5399084
  60.1645373   5.5846895  51.1707830  59.0003513   4.6352685  50.9857416
  76.1536478  20.5896867  53.9929295  75.8533763  20.1567949  54.7920942
  76.8473552  20.0210966  53.6587048  69.2866659  80.8078861  73.5627270
  70.1435518  81.1977291  73.3895397  69.4156694  79.8708916  73.4156179
  94.9508632  88.0215073  28.9047837  95.6716229  87.8981781  29.5224619
  95.3463281  87.8820801  28.0443192  40.5745935  98.5249424  35.4208350
  40.2143860  99.3738174  35.1641369  40.6321049  98.0317974  34.6024632
  56.2224865 100.5261230  83.1173611  55.7542372 100.0575924  82.4263859
  56.7816544 101.1464310  82.6496220   2.0376895  94.9475670  61.4257383
   1.4286013  94.9350834  60.6874418   1.5113601  95.2512074  62.1653461
  59.5919751  33.1683744   1.3912922  60.1922797  33.0976881   2.1334979
  60.1387023  32.9989923   0.6240693 106.4361213  18.3941473  30.2712202
 106.0283874  18.1899751  29.4296169 107.3415827  18.0984415  30.1766992
  79.3667387  24.0477003  61.5606880  80.2541803  23.7342657  61.3862419
  78.7994503  23.4289945  61.1006689  76.0765982 102.6863480  73.7580109
  75.8943653 103.6006355  73.9750576  76.0264111 102.2266388  74.5960903
  31.4807487  60.7398319  54.8089457  31.1239576  60.2228212  54.0867043
  30.8008122  60.7121134  55.4821110  73.9308118   6.2510599  71.7145824
  74.7432874   5.7712186  71.5537596  73.6216711   5.9224714  72.5587940
  73.2830380   2.3685182  36.5847683  74.1012024   1.8768800  36.5131187
  73.1394266   2.7236856  35.7075787  25.2255989  40.2478907  81.8931405
  25.8999516  39.9494955  82.5034188  24.9007298  41.0632345  82.2751199
  12.4505687  92.9343796  53.6335468  12.5421989  92.1994877  54.2399788
  12.4916530  93.7114429  54.1909647  37.3706388 102.3751354   2.4408431
  37.8805327 102.6974392   1.6976333  36.4813828 102.2824001   2.0990063
  26.9543171 100.7722092  28.2998967  26.9090462  99.8517990  28.0409932
  26.9858599 101.2524796  27.4725056  44.0964031  71.9890642  27.7510667
  44.3318796  72.5283766  26.9961333  43.2075882  71.6879749  27.5624180
   1.1671934   7.5956262  23.8110304   1.0233793   6.9293226  24.4830418
   0.5952606   7.3350156  23.0890846  44.5868492  75.7331228  57.7157402
  44.3914318  75.9125662  58.6354351  44.0116978  75.0030756  57.4866915
   4.1470060  23.1259645  55.5604649   3.6355696  22.5781263  56.1558962
   3.6458073  23.1260026  54.7449732  40.9324672  32.5637353  35.9145021
  41.0165654  32.9093660  36.8031526  41.7610382  32.1122373  35.7537055
   6.0668951  77.7177525  27.1544933   5.6770903  78.5520315  27.4157524
   6.8687475  77.9622889  26.6924691  61.5418528  16.5276540  36.5795684
  60.9004687  15.8694185  36.8471241  61.0888027  17.3632635  36.6923952
 100.9425758   9.7493757  33.4451842 100.6682514  10.6237710  33.1687522
 100.5478977   9.6367372  34.3099236  85.3884506  98.6285973  27.5540900
  86.1007309  98.2502842  28.0696154  85.1175404  99.4009209  28.0504417
  68.3451605  89.7935772  63.6201191  67.7819777  90.3764725  64.1293240
  67.8747845  89.6653938  62.7963781   0.4763470  36.3727010  74.9553394
  -0.0564709  36.3156141  74.1621971   0.3592119  35.5249608  75.3841066
  45.8716440  93.7020588  10.3984368  46.0211897  92.9719543  10.9991241
  44.9569702  93.6094379  10.1319182  11.8672524  15.5758012  37.0686603
  11.4691887  15.8052648  37.9083776  12.7283154  15.2269758  37.2991395
  25.7335734 100.6456661  37.3051119  26.4141011 100.8719444  36.6711426
  25.6319618  99.6977520  37.2193408  79.7750353  32.7408803  46.5303135
  79.5444416  32.4326051  47.4066830  79.3754743  32.1028436  45.9391403
  37.5748610  75.7618141  34.4967341  36.7648792  75.3088379  34.7311974
  37.7691007  75.4611111  33.6089945 107.5985264  37.4364198  28.3912587
 108.1540893  38.0471052  27.9068613 108.0323766  36.5888036  28.2935357
  58.5141611  96.2793159  26.4915729  57.8414059  96.5113735  27.1317101
  58.1909895  95.4751110  26.0853219  82.9314779  10.8999456  41.8013048
  83.6768173  10.6966699  41.2361670  83.0593132  11.8164934  42.0459032
  76.0720299  13.9427770  19.7507024  76.7516874  14.5562852  20.0298119
  75.9121107  14.1636671  18.8331711  85.0437855  24.1634096  19.1017854
  84.8220371  23.5808576  18.3753645  85.3552650  24.9642671  18.6800611
  49.5495367  82.7495193   8.1154364  50.3385305  83.2109833   7.8312421
  48.8542414  83.0977631   7.5572926  72.9227829  59.4606781  87.9786491
  73.3747196  58.6208868  87.8966045  73.5828829  60.0538778  88.3372879
  71.0208296  24.7549356  21.6073704  71.3371705  25.5457223  22.0441866
  70.1650118  24.5890058  22.0026898  64.2700075  21.9794000  28.5853863
  63.7292289  21.3947500  28.0543685  64.2007564  22.8297533  28.1514168
 106.8435882   5.6622327  68.2551289 107.2945904   5.8821023  67.4399662
 105.9307026   5.9021295  68.0960131  82.7826570  11.3315404  48.2511139
  82.1788381  10.7514585  47.7872801  83.2987427  11.7435945  47.5582218
  56.8519163  74.3981981  31.2877488  56.7678595  75.3280258  31.0765910
  57.7104425  74.1511822  30.9440255  86.1394428  10.4042638  20.3295064
  86.9094490  10.2748121  20.8831906  85.9575533   9.5377363  19.9658048
  34.0403795 100.0210762  52.8611898  34.1477704 100.9670448  52.9603529
  34.8884678  99.7162533  52.5385952  67.5121259  11.7982973  35.1023769
  66.6159629  11.9977773  35.3731775  68.0615305  12.3025621  35.7024646
  51.9502221   5.6534208  36.7408776  52.6313375   5.2477277  37.2772789
  51.1303209   5.3051580  37.0911717 105.1487087  28.3639635  79.6544695
 104.9004816  29.1787828  80.0911427 106.0622762  28.2266439  79.9050045
  57.1709059   1.6969503  21.9521999  57.3533200   2.6343740  22.0169544
  56.3979768   1.5648759  22.5011683  70.9129429  82.6923466  33.1974435
  70.8611441  81.8616009  33.6701179  71.7375755  82.6418591  32.7140594
   6.4406610  77.9991198  63.1531429   6.4904481  77.5480270  63.9959145
   7.2085965  77.6919365  62.6713276  46.9046210   6.9409193  27.2043490
  47.4046658   6.1355318  27.0719361  46.3689737   7.0227350  26.4152861
  77.0006489   4.4664014  52.4841595  76.4578222   3.6850465  52.3790312
  76.4636348   5.0626863  53.0059814  58.2108282  12.0811666  40.3553724
  58.0247258  11.5940774  39.5526600  58.5910343  11.4317335  40.9469080
  51.1670876  90.9172344  33.1402349  51.0040140  89.9759960  33.2011795
  50.3235769  91.3202667  33.3458877  61.9209837  11.2799848  42.2244740
  62.5619482  11.3737596  42.9291725  62.4096512  10.8735670  41.5087509
  85.2880287  89.5619392  70.9046030  84.7940636  90.1822758  71.4407110
  84.8207474  88.7327099  71.0059214  87.6363634  24.1018499  20.0667119
  86.7411207  24.0527738  19.7315025  87.8996061  23.1887163  20.1812744
  43.7686491  82.9534245  17.2520769  43.1367779  83.4715939  17.7505481
  44.5625734  82.9648590  17.7866650  84.1047764  91.7082214  47.0042467
  84.2012882  91.2489128  46.1700106  84.5257473  92.5558758  46.8610620
  71.5420817   3.6362756  47.2970343  70.7362818   3.3878530  47.7500248
  71.3766764   4.5257772  46.9845200  62.2192430  97.4688911  47.2827864
  61.7653894  97.6226139  48.1114054  62.8825426  98.1577778  47.2416115
  73.6348867  70.9949589  29.7046471  72.7276707  71.1429977  29.4376707
  73.5684586  70.6320667  30.5878949  25.9773207  63.4442234  34.5214868
  26.5103602  63.5502958  33.7335467  25.1015258  63.7267017  34.2580032
  38.8973904 100.1312923  27.4153137  39.3393636 100.3707695  28.2298946
  39.5123029 100.3829193  26.7262578  87.3842930   1.7215837  14.7632325
  87.1246027   0.9069932  14.3328309  86.5581392   2.1664918  14.9523175
  92.1006621  87.7725506  42.9209375  92.3959650  86.8838120  43.1188536
  92.7151478  88.3386993  43.3879662  65.4102850  94.5377064  56.9829416
  65.6687927  94.7435188  56.0845852  65.5667973  95.3475094  57.4687052
   8.0306888  81.1213112  14.4263303   7.2380537  81.2178993  14.9541867
   8.2206047  82.0063972  14.1152263  13.5960090  98.3447456  55.7815313
  13.0178845  97.5954819  55.9250927  13.4650028  98.5756016  54.8618698
  83.3296394  90.0671482  26.5339327  83.7379169  89.3499565  27.0188856
  84.0656853  90.5777168  26.1965942 101.2795920 101.2503338  82.1301937
 101.0186357 102.1676731  82.0487785 101.2369407 101.0716629  83.0696011
  83.2777380  16.4964975  58.8847685  83.9969658  15.8999647  59.0923500
  82.5663780  15.9235490  58.5985374  28.3893323  93.4917450  37.7381349
  29.2541480  93.8266373  37.5011206  27.8083587  93.8226700  37.0531631
  31.1185312  91.6303253   8.7495667  31.9935036  92.0183849   8.7413025
  31.2154603  90.8320427   9.2687857  19.4892788  67.4626589  67.0703125
  19.4263744  68.2433176  66.5199995  18.5851216  67.2724199  67.3203945
  58.2603954  31.7229188  65.8671331  58.4961699  32.0529474  65.0001144
  58.2295274  32.5034917  66.4202881  47.9916143  76.4553928  68.3331442
  48.2297754  77.3143530  67.9842854  48.1545830  76.5253258  69.2737722
  61.4528273  25.7210363  32.1414852  61.9756340  25.8943857  31.3586354
  60.7588409  25.1342691  31.8409514  18.0872643  85.6469250  60.1429176
  17.9935193  84.7224140  60.3725386  18.3024037  85.6414413  59.2102242
 107.1354721  28.9316932  26.0366781 106.6964242  28.0856220  26.1239965
 106.6759298  29.3670265  25.3186662  88.9418625   3.7099946  24.5586061
  89.0659355   3.6623300  23.6106801  89.7988437   3.9657987  24.8997641
  85.0273250   4.4067205  74.5357943  84.0949892   4.5978750  74.4336128
  85.1089786   3.4816373  74.3038797  79.3520807  36.6673196  30.5681586
  79.7419952  36.9545663  31.3938022  79.6543239  35.7653631  30.4615402
  94.2907690   1.3777173  52.9500961  93.6056398   1.5280164  52.2987604
  93.8835548   1.6111959  53.7843037  21.7878056  99.5966911  45.9592867
  21.9274759 100.5416584  45.8980703  22.6021552  99.2577934  46.3310671
  66.6593027  83.3464813  56.1826801  66.3027525  82.7167320  56.8091965
  66.9645500  82.8099155  55.4511356  54.1951275  83.8598537  34.3459249
  53.8253403  83.5915375  35.1870561  54.4282818  84.7799778  34.4693732
  26.3418603  75.8102703  32.2223711  25.5522704  75.2745390  32.2983670
  27.0630908  75.1839638  32.2840166  10.0497508  77.9945946  33.3261895
  10.5084944  77.1572638  33.2579017  10.5155075  78.5728359  32.7220845
  29.3404365  74.2277193  31.5182567  29.9631071  73.6405563  31.0895920
  28.9140034  73.6829805  32.1798062  34.3618369  60.6304216  49.9488735
  33.6801934  60.1351213  50.4030514  34.0308094  61.5282774  49.9264240
  17.0389057  59.4415400  86.8034725  17.1918179  58.7203333  86.1929657
  17.6600720  60.1184866  86.5348946  46.5160179  91.5404510  39.8048854
  45.7358408  91.6982269  40.3365421  46.6456413  92.3565292  39.3217111
  19.4386698  55.6738493  88.4304792  20.1778103  55.7618162  87.8286749
  18.6665798  55.6851790  87.8648096 103.2739948  24.5392526  34.9599266
 102.9606460  24.2538084  35.8181596 102.7434992  24.0452589  34.3348026
   2.2221146   2.5638879  33.7328625   2.2196207   1.8449510  33.1009150
   3.1326494   2.8581060  33.7573314 101.5626215  16.6313566  46.3608122
 102.4233793  16.7310251  46.7675018 101.3862919  15.6913770  46.4006615
  42.6580667  78.7641859  41.1605358  42.9138708  79.6636534  41.3648796
  43.2740116  78.4883356  40.4817533  39.5474529  74.9399710  24.1801858
  39.3002796  74.2821884  24.8301506  40.4044580  75.2527523  24.4699073
  13.0159330 100.5512905  71.5025473  13.7944746 100.7203674  72.0331335
  13.3336031 100.5657578  70.5997133  15.1672421   7.9736913  12.0747483
  14.6879253   8.7707246  11.8484151  15.9777031   8.0296911  11.5685320
  61.3622618  79.6572447  37.1263003  61.1266661  78.9490891  37.7256680
  61.6571283  79.2110157  36.3324738  67.4591732 100.1827621  29.4234920
  66.8687296  99.6776199  29.9824524  68.2660198 100.2573776  29.9330592
  84.8760818  18.8888753  66.4368916  85.3825639  19.6999467  66.3936901
  83.9802860  19.1545309  66.2290335  76.3948797  31.6260065  40.2684832
  76.9364094  31.5969957  41.0572386  76.9663976  32.0025362  39.5992851
  65.0764322  74.9604368  50.3316879  65.4359007  75.3746653  49.5471954
  64.9164438  74.0532494  50.0716019 108.7475609  17.0295919  30.0604010
 108.9784836  16.8351568  30.9687519 108.8800930  16.2024415  29.5972657
  68.5448503  80.1651192  12.5251412  68.6461735  80.7728386  11.7925799
  69.2924070  80.3489494  13.0939972  57.2141527  26.1122907  29.0925789
  57.6470922  25.2665723  28.9761519  56.4088820  26.0417093  28.5799479
  85.0987934   7.1292604  43.8751936  85.8571218   7.1727289  44.4576693
  85.4409574   6.7531599  43.0642033  65.1266955  40.2827943   0.4436395
  64.5839356  40.8725465  -0.0796552  64.5582937  39.5352090   0.6287713
  60.7376050  41.1221803  23.1034827  60.7821869  41.7550958  23.8201857
  60.7596134  40.2685750  23.5360408  82.9311180  82.2093201  18.1951034
  82.6669216  82.4022102  19.0946698  82.1743393  82.4584198  17.6645660
  65.3083919   1.8699850  53.3165646  64.4065498   1.6923917  53.5837173
  65.3444384   1.5982545  52.3994493  54.2193604  94.5903969  63.5138512
  54.5576620  94.5910358  64.4092703  54.5171833  95.4218197  63.1446934
  11.3502274  37.5118268  51.6605711  11.1830959  36.9073404  50.9374571
  10.9477100  38.3346570  51.3827991  88.1957363   6.0121168   8.8824636
  88.2720016   5.2048505   8.3737963  88.9674114   6.5230096   8.6380708
  17.4046192   2.5974096  87.4230003  17.1880207   3.5168756  87.2684288
  16.6110859   2.2259248  87.8083897  76.6056989   1.1355985  29.1031814
  77.4051975   0.6532205  28.8926148  76.4885925   1.7375864  28.3682489
  26.3692055   0.7317937  63.0635118  26.2555943   1.2892259  63.8333130
  27.0028553   0.0693143  63.3389282  83.5388778   8.9059270  21.5888953
  83.6835359   9.7319807  21.1274338  83.1278585   9.1616739  22.4146628
  96.8604826  23.9994062  26.6493082  96.6870331  23.6768449  27.5336719
  96.1753820  24.6492876  26.4927387  81.3520145  95.4483223  33.0762696
  81.8752003  94.9109650  33.6710429  81.3628769  94.9687195  32.2479582
  56.9989541  95.2842855  35.6523824  57.7916839  94.8598885  35.9805560
  57.1053638  95.2876656  34.7011209  28.2189966  95.3807115  25.9751272
  28.7416626  94.9076652  26.6226459  28.6363531  95.1798599  25.1374507
  84.5035542   4.7292754  51.2650061  83.7749399   4.6202677  50.6538820
  85.2463711   4.3117076  50.8290100  12.8094184  25.0288916  71.9469595
  12.3919296  24.7326827  71.1381340  13.3066297  25.8052301  71.6894531
  65.8507802  88.7664174  43.1036997  65.6088366  88.7900566  42.1778822
  65.7753988  89.6753382  43.3942366  13.9188886  44.1722202  21.6634560
  13.3453226  44.9337101  21.5774941  14.3480074  44.2900419  22.5109291
  44.4419432  11.6857719  55.0783777  44.5851421  10.9366524  55.6567764
  43.6531639  12.1058226  55.4213285  91.8708969  24.4867373  24.2116642
  91.0991646  23.9206934  24.2276430  92.3906673  24.2043614  24.9642181
  20.1264278  84.7916564  74.2224138  19.7852269  85.2570256  73.4587102
  19.7971753  83.8981351  74.1252355 108.9713296  16.9928217  66.1280966
 108.4866655  16.5883422  66.8476343 109.7365192  17.3872399  66.5466070
 106.9241924  55.0000620  11.2971735 106.1018832  54.6446943  11.6344452
 106.8029070  55.0250244  10.3480160   1.9828390  20.5599332   8.6515105
   2.3951426  20.0088835   9.3167776   1.2579829  20.0311112   8.3180994
  94.7985066  28.1677365  12.7033615  95.3661145  27.6458979  13.2705808
  95.2291931  29.0211010  12.6532865  35.6209564  17.4997783  50.1077890
  36.2214327  17.9663098  49.5264053  35.3999043  16.6994166  49.6315670
  27.3507905  34.4527006  17.8726113  27.8511381  35.2273679  18.1290841
  26.8759131  34.7235990  17.0869040   2.8040934  13.9202225  14.9011016
   3.2324761  13.6450398  15.7116532   2.1862051  13.2157755  14.7056544
 105.2829878  12.6549673  75.6009102 104.3942935  12.9428053  75.3920984
 105.5383046  12.1078944  74.8581076  73.6194628 100.6262749  36.5176535
  73.1106266 100.6333559  35.7069325  74.1110253 101.4474042  36.4990902
   5.9478658  37.7737403  45.7702541   6.3086420  37.8935528  46.6487265
   5.9560579  36.8261600  45.6351471  53.2019949   2.6271224   4.2756319
  53.2460594   2.0942160   3.4817171  52.7276134   2.0824090   4.9037075
  27.2948494  93.6252188  48.2275343  26.6072407  94.2909717  48.2135677
  28.1080046  94.1225480  48.3151245  90.3462889  97.9317187  38.4149742
  90.4206374  97.2014987  39.0293717  90.9951272  97.7416383  37.7373981
  97.9325606  15.8185720  19.8783624  98.7558259  15.5165887  19.4946027
  97.6404144  15.0882161  20.4237628  90.8543839  84.2866920   7.8636354
  90.5641487  84.4038068   6.9590473  91.3082209  83.4439217   7.8623545
  25.0449419  31.7209697  31.2042260  25.2659082  31.8565655  32.1256471
  24.2255998  31.2265062  31.2246656   3.7014991   5.4842192  51.1766624
   3.9107117   5.1278728  50.3132534   4.5218152   5.8727026  51.4806271
  69.4940531 100.4332676  55.0365353  70.0114583 100.9188225  55.6790018
  69.4137415  99.5548528  55.4082489   7.5008482  27.7726078  21.3016605
   7.5344807  26.8466687  21.0613728   6.6745502  28.0856967  20.9336400
   9.4888049   7.5796360  11.7954147   9.2348683   6.7000049  12.0746958
   8.9712650   8.1651717  12.3481643  84.6687856  85.9883701  15.4672456
  84.4726350  85.0585317  15.5819523  85.6068113  86.0137450  15.2783167
  86.7098535  11.6544068  34.3816113  87.5107421  11.4040995  33.9210057
  86.5088738  10.9023345  34.9385905  23.6081624   9.4408727   7.0876265
  24.0462112   8.6607957   7.4279583  22.8468060   9.1018426   6.6168523
  44.2410278  29.1241646  19.6900403  44.3859053  29.2083859  20.6324577
  44.4898987  29.9764276  19.3323481   6.1327082  48.0760336  25.8770108
   6.7258215  48.7609577  26.1857629   5.3577733  48.5490656  25.5737758
  39.5653915  27.3699403   3.2033151  39.1107297  28.1773567   3.4433019
  40.4710531  27.5145268   3.4773600  30.4973340  15.8170080  29.6844769
  29.7073650  15.4113841  30.0417566  31.1777616  15.6255674  30.3299212
  83.0727709  21.6614819  29.6002769  82.7460946  21.5386295  28.7089753
  82.3642148  22.1175694  30.0543308  18.9760268  16.9531763  41.7918301
  19.6042001  17.6639891  41.6638708  18.2508671  17.3572803  42.2683573
  94.9031509  62.4612904  54.0278292  94.2691256  63.0395365  54.4519377
  94.5746947  62.3598957  53.1344795  81.0064162  14.8793089  12.7600181
  80.1939548  14.6002436  13.1822288  81.2594808  14.1359472  12.2126567
   6.1567497  20.3964806  57.8872919   7.0837486  20.5014300  58.1015110
   6.1453289  20.2404284  56.9429636  14.1555250  53.9501762  60.0722551
  14.9669397  54.4470835  60.1767492  14.3620038  53.2909775  59.4096422
  11.3190603  14.7889483  26.1473179  12.2415531  14.6032059  26.3226390
  11.1519432  14.3881059  25.2943063  36.7654753  31.7220211  42.1761036
  37.5662565  31.4449239  42.6212978  36.0665751  31.2401533  42.6183367
  37.3861790  12.1114147   4.3461600  36.9462848  12.0991635   5.1962042
  37.6675129  13.0195761   4.2351335  69.0147012  97.9552709  35.2990270
  68.8704854  98.2281907  34.3929648  69.1488626  98.7735607  35.7771850
  22.8513956   2.8404287  50.8155251  22.9550099   2.0658717  51.3682985
  23.2435727   2.5915745  49.9785662  35.1195097  46.4747572  19.4582641
  35.7019448  45.7305336  19.6103501  35.6692314  47.2437811  19.6087396
  95.9434081  20.4440498  45.1927328  96.4633025  21.0979915  45.6599569
  95.0685478  20.5163479  45.5743408  34.5355797   4.6917617  30.7058287
  33.6511421   5.0412601  30.5969620  35.0266218   5.4053134  31.1132050
  96.1458613  25.7765818  14.0395677  96.2173797  24.8306155  13.9120233
  96.1765410  25.8932257  14.9891388  68.3314138  75.6462680  57.4808121
  68.2455375  75.5208408  58.4258652  69.2744454  75.7185518  57.3335075
  63.7353107  93.3229964  30.1605225  63.7810179  92.8904354  29.3078589
  62.8767046  93.7460320  30.1687646  85.5035986  36.0914707  23.2248878
  85.7450689  35.1869154  23.0256295  84.5835890  36.0421443  23.4844661
  63.2321453  30.0854707  37.7270508  62.5565481  29.6977544  38.2833552
  63.9889622  30.1863551  38.3043575  11.0788894  24.5403194  38.2540274
  11.7436755  24.0918159  37.7314019  10.5383229  24.9993658  37.6111460
   5.6705552   9.1807991  44.4191837   6.4555538   8.9473408  43.9236975
   5.1135749   8.4041989  44.3653679  99.0648414   6.5904140  16.3156128
  99.9007977   6.7975920  16.7333281  98.4485615   6.5040827  17.0429218
  16.8080544  22.5480962  34.9827886  17.6629138  22.5723243  35.4127407
  16.6761184  23.4401059  34.6616268  70.2533066  98.4693505   2.8463778
  69.9130496  98.2283982   3.7080035  71.1963087  98.5654669   2.9795700
  16.5924072  23.6276412  23.1237292  17.0228708  22.8264165  23.4220099
  16.2944078  23.4236622  22.2372627  52.1627893  98.2243641   0.9397393
  52.8786721  97.6171022   0.7527227  52.4517789  98.7033786   1.7164388
 105.1475246  19.9979854  20.0389099 105.4818515  19.5751643  19.2479110
 104.2863585  20.3311539  19.7866714  15.8910990  34.1923189  12.0378816
  15.0815976  34.1847587  12.5486469  15.6227982  33.9217448  11.1597943
  95.2735032  15.6754398  53.2344532  96.0622419  16.1635065  53.4709167
  94.5748640  16.0891294  53.7414026   7.1877259  18.3508658  16.5469921
   8.0660439  18.4148574  16.9220853   6.6387939  18.8729405  17.1320939
  26.1186647  27.1919346  87.8897285  25.3974080  27.6095057  87.4189281
  25.6898642  26.6204858  88.5267639  19.4149959  37.3136258  46.6179132
  20.3284431  37.4103689  46.3486814  19.3014097  37.9587317  47.3158836
   0.0485200  28.5269761  36.4853430   0.9910551  28.4231210  36.3546777
  -0.2835559  27.6319981  36.5558648  27.9624605  50.5641222  71.7622328
  27.5306749  50.4028749  70.9233093  28.8974595  50.5084229  71.5649843
 103.4162373  14.6454859  30.9743929 103.4127707  15.5139840  31.3768005
 102.7001704  14.1789317  31.4054465  80.7384279  85.4705702  61.7089510
  81.4568158  85.2922927  62.3158836  80.1618584  86.0654806  62.1884060
  26.6624212  35.6936145  62.1069956  25.7986188  35.8213186  61.7148638
  27.2651196  36.1330962  61.5071249  11.1074233  13.3124101  12.8753448
  10.1972866  13.4634852  13.1304097  11.3454735  12.4938834  13.3107519
   4.8114789   3.2828060  40.4336739   4.1812021   3.7823886  40.9527111
   5.3423935   2.8201479  41.0819864  99.4023545  15.8510613  13.7147331
  99.4887222  16.1504960  14.6197808  98.5208608  15.4809034  13.6680067
 102.6681746  28.9931726  21.7670369 103.4217657  29.3534732  21.2995791
 103.0374767  28.3092403  22.3256826  24.8060179   8.2547820  43.2567024
  24.5548868   7.3336399  43.1884336  23.9776444   8.7212449  43.3682299
  15.4244399  30.8525825  66.9540215  15.3956091  29.8959231  66.9398117
  15.7150686  31.0703158  67.8396654  23.6880517   5.8767861  50.6747007
  23.2597852   5.0260198  50.7696533  24.3836904   5.7246906  50.0350285
  87.1980084  17.1587026  32.6589990  86.5283455  17.8414261  32.6181388
  87.9713215  17.5575459  32.2600698  19.9754000   5.9093952  31.4976621
  19.5656657   5.7899904  32.3544550  20.9027219   6.0449338  31.6924357
  19.2540252  14.9051178  46.6999722  19.5101762  14.3552303  45.9595394
  18.7974250  15.6459999  46.3014221  31.9013882   6.2381649   8.1891006
  32.4211121   6.7310953   7.5541687  32.5449562   5.7283348   8.6811644
  10.7043839  21.9285202  39.8211432  10.2052176  21.5428114  39.1012168
  11.0392702  22.7519917  39.4662118 100.7506777  20.2163339  42.5740480
 101.2857826  20.9883618  42.3900127 100.2535773  20.4507422  43.3577442
  10.6352186  43.5717964   5.8613271  11.0050821  42.8890800   6.4210844
  11.2590230  43.6541367   5.1399952  97.0779015  48.2838488  38.4787631
  96.3225366  48.2826138  39.0666866  96.7903019  48.7921381  37.7203703
  95.9856845  24.0456653  24.1698217  96.4890577  23.9789367  24.9812365
  95.7423211  23.1430817  23.9640260  11.8003870   8.2885906  82.7750795
  11.3267161   9.0400669  83.1316511  11.2259938   7.5416061  82.9433595
  57.4559466  83.8605102  76.3912623  57.7519146  84.1479977  77.2549670
  56.6390649  83.3916315  76.5618138  97.5878740  50.8999825   3.5113785
  97.5994219  50.8195829   4.4651258  98.1981195  50.2282858   3.2069859
  36.8399024  26.1864328  19.0006626  36.0261750  25.7655907  19.2780983
  37.5309324  25.6092691  19.3256104   4.1966596  19.6140659  20.2288032
   3.9916578  18.6883664  20.3602767   4.7329992  19.8504353  20.9855723
 101.7864151   3.3126533  12.5807083 102.6920379   3.5522991  12.3841155
 101.5575988   3.8454494  13.3422875   6.5662473  58.5835695  12.1792388
   6.3191503  57.9977703  12.8947878   6.3302469  58.1043053  11.3849831
  26.9227672  42.5268984  25.2454448  27.8355455  42.2467184  25.1778793
  26.4763951  42.0615482  24.5380330  33.5393548  14.9653900  69.6449471
  32.7390647  14.8647940  69.1295385  34.1079903  14.2561162  69.3452597
  66.6033570  86.9081815  88.6987232  67.3587910  86.3881167  88.9727386
  66.7122976  87.0090231  87.7531047  95.0831271  31.4050245  34.5831990
  94.3656207  31.6297555  35.1755786  95.7720615  31.0706639  35.1574850
  22.3180151  40.8581829  46.4989567  22.7061915  41.0686874  45.6497002
  22.2068691  39.9076009  46.4824867   5.1013350  49.5115900  87.1073341
   4.8041040  50.3081274  87.5471306   5.0161809  48.8261175  87.7699852
  89.9238707  65.9374952  19.0864098  90.3359379  65.4983187  19.8304260
  89.1734351  66.3959074  19.4644809 106.7092831  57.9696226  32.3598385
 106.8067163  58.7328100  31.7903829 107.5076247  57.9612923  32.8878665
  49.1479397  15.9699082  74.8791552  49.1120481  15.0828123  74.5213795
  50.0644112  16.0911584  75.1273775   2.4528997   6.4756405  32.6212311
   2.7472281   7.3831058  32.5430608   1.8658733   6.4785260  33.3772874
 102.3476697  58.3537579  55.5433989 102.0302917  58.8430357  56.3024187
 101.6526301  58.4453726  54.8916626  83.0758322  60.4981041  38.2402253
  82.5488557  61.1676550  38.6763763  83.9500750  60.8831692  38.1797504
  53.2029120  57.7066370  81.5657990  53.9596275  58.0361494  82.0506029
  53.3969549  56.7808338  81.4192800  18.5421038  50.3196335  36.3316798
  18.0177784  49.7175932  36.8597531  19.3651915  49.8539114  36.1838222
  33.9476633  71.5703487  33.4309864  33.4432054  72.0267391  32.7575922
  33.3006716  71.3330936  34.0953231  15.9460270  25.7190585  13.3818150
  16.6107213  25.0307107  13.3575368  16.3755691  26.4513040  13.8240170
   0.1692460  44.6610451  30.8356619   0.8279733  45.1531553  31.3257003
  -0.6493697  45.1300907  30.9972024  87.5971807  62.4329710  11.8949401
  87.1240200  62.5406313  11.0698593  86.9304265  62.1424913  12.5172675
  20.7752395   5.5913842  41.9331074  20.3301024   6.1879718  42.5349140
  20.1827407   5.5199361  41.1847258  57.5264072   2.7104226   9.1055876
  58.2464743   3.2476619   8.7752736  57.8378725   1.8099530   9.0140647
  40.4156494  36.9134164  43.1423521  39.6858454  36.3163185  42.9777718
  41.0117149  36.4147997  43.7012100  62.1984497  88.9997610  83.2977943
  63.0901614  88.6525329  83.3204870  61.7273346  88.4934028  83.9595227
  28.7654638  46.6956282  74.1784668  28.4533024  46.6511965  75.0822449
  28.1377721  47.2670603  73.7360907  82.7148440   0.1518223  86.1542387
  82.9630210  -0.6754473  86.5668665  82.2540351   0.6333801  86.8412531
   0.9940142  34.9558067   4.1160429   1.4591634  34.1547465   4.3572330
   1.6616133  35.6407738   4.1529647 108.7243521  27.0993638  30.7788610
 109.4401791  26.4700747  30.6904435 108.7331546  27.3436642  31.7043209
   2.5069910  37.1187663   9.9402887   1.6351831  37.4957848   9.8218000
   3.0623686  37.6028633   9.3291926   2.4688080   3.9085513  22.9986095
   2.4847117   4.3198955  23.8627720   3.2874322   3.4145454  22.9533935
  32.4634218  45.3410482  20.3878593  33.1578398  45.0004911  19.8239148
  32.6898265  45.0265360  21.2631059  16.6971290  37.9020333  49.3391752
  17.2727096  37.6547670  50.0629139  16.4306223  38.7990022  49.5408058
   8.4699446  51.9995356  61.6036892   8.3074498  52.9349232  61.4817142
   8.9125335  51.7265272  60.8000660  20.2016997   1.0233819  30.7375765
  20.7912755   1.0305270  31.4916205  19.4534111   1.5526342  31.0135937
   1.5253283  64.2632294  21.3249421   1.8449388  65.1574183  21.4454031
   1.8140461  63.7978840  22.1100068  14.6693122  26.9665003  15.8581042
  13.7481725  27.1323633  16.0586584  14.6489990  26.4280915  15.0669444
  45.1440833  85.4084810  80.9274177  45.8505121  85.9622677  80.5949865
  44.3426094  85.8340558  80.6228577  98.8864077   5.9737515  41.5093803
  98.8391412   6.1076349  40.5627680  98.6159421   6.8121988  41.8836641
  10.5491388  52.5562286   4.0538669  10.6781137  52.4840164   3.1081486
  11.4316833  52.5033760   4.4206819  10.1695001  37.5651264  41.6096783
   9.9214321  38.4874535  41.6730022  11.1147201  37.5604248  41.7605734
  11.8793094  38.4265757  38.5643530  11.9422162  37.7223277  39.2095709
  12.4686992  38.1587839  37.8592730 100.2201314  55.1979351  21.5986824
 101.1389185  54.9734306  21.7458510 100.1859374  55.4799795  20.6846166
  26.0220957  32.8612232   5.6854355  26.9477415  32.8444982   5.9286106
  25.9893417  32.4193716   4.8369509  17.6573610  70.3415918   3.6171681
  16.9980574  70.8590889   4.0794995  17.9617906  69.7069216   4.2658162
  34.6046638  40.8203459  42.0729876  33.7585902  41.2029123  42.3054314
  34.4566154  39.8751545  42.1034527  10.0119662   7.4616826  52.0281982
  10.5077946   8.2801616  52.0500469   9.3306130   7.6118279  51.3728762
  20.1181126  39.1536736  24.7965503  20.4407883  39.0648150  23.8997674
  20.5732942  39.9225879  25.1397896  38.6534119  41.9912338  32.2802687
  38.5744452  42.6457357  31.5862775  39.5213914  41.6088724  32.1512532
  93.0877080  87.5162636  73.7125969  92.7505114  88.2433259  74.2359591
  92.8460159  86.7330216  74.2069101 105.0387866  40.5949831  36.6944265
 105.0204272  39.6388030  36.7345738 105.9632100  40.8212948  36.7966866
  61.5472594  98.3033188  65.3490870  60.7532111  98.5935458  65.7979648
  61.3057152  97.4664744  64.9521224   6.9330055   0.9702269  40.5394459
   6.2515813   0.5524031  40.0128365   7.3339546   0.2506213  41.0269308
  52.2795252  89.4652041  84.5782735  53.1691960  89.1481956  84.7339143
  52.1254364  89.2993411  83.6482315  28.0843019  28.4319782  24.5202255
  27.3035550  28.9617968  24.3591046  28.2197261  28.4865093  25.4662275
   8.1820434  50.4421663   2.1214277   8.1917924  50.4682732   3.0782220
   7.5134784  51.0798597   1.8712278   8.1856591  20.9177423  20.3840756
   8.3702701  19.9906874  20.2333379   8.3702362  21.0506153  21.3138652
  12.4176693  24.5465612  12.2891426  13.2859445  24.2621350  12.0037758
  12.1773493  23.9274049  12.9784346  59.0066543   3.4727690  77.4764852
  59.4152942   4.2686150  77.1360843  59.7376480   2.9509422  77.8075104
  81.6835308  18.6193573  45.5246115  81.2319279  17.8260875  45.2364969
  80.9841442  19.1924107  45.8387804  58.5969450   1.0406515  81.2583225
  57.9419281   1.6600773  81.5800272  58.0984523   0.4186127  80.7284139
  82.1050490  55.0929117   4.0820035  82.9253448  55.2229929   3.6061597
  81.5234126  55.7757235   3.7477905   4.9867624  83.4361076  53.8366652
   5.3351068  82.6187134  54.1927004   5.7405955  84.0252876  53.8078451
  26.4781237  52.2117329  39.1557503  27.1072578  52.8132200  39.5540380
  26.9886851  51.4260387  38.9601946  92.8827635  74.3055614  87.0162244
  92.0051590  74.5461019  86.7192763  93.3864895  74.1948207  86.2098561
  97.0760251  73.6760473  29.5532274  96.5320076  73.2770395  30.2322483
  97.6976014  74.2221737  30.0344992  26.8032241  11.0298955  63.6084747
  27.2796750  10.2972507  63.9989328  27.4866033  11.6434014  63.3385944
  97.0048333  53.1884813  16.6102922  96.5422643  52.3996925  16.8932629
  97.8930808  52.8888130  16.4167750  90.7802548 100.5385346  38.8434219
  89.9149671 100.8617239  39.0945339  90.6329622  99.6249377  38.5987234
  22.2742605  17.7954698  13.1442988  22.1815133  18.5234880  12.5297904
  21.7350030  17.0976889  12.7720952  35.4081750  46.9453192  59.4493628
  35.2878857  47.8943157  59.4151878  36.2624168  46.8269730  59.8646975
  22.0606875  24.1055322  19.7881687  22.1941233  24.9085116  19.2845333
  22.8293204  23.5696316  19.5926034  58.0698863  69.2698070  82.8063403
  57.9589502  70.1200100  83.2318752  58.3145705  69.4828137  81.9057910
   0.2945663  39.0970564   1.7623319  -0.2221004  38.6615944   1.0843491
   1.1345492  38.6381364   1.7551225  98.8841642  49.1609144  29.6672988
  98.0337955  48.7445831  29.8079133  99.4535865  48.4495211  29.3741870
  36.4494729  23.0775118   5.3476006  35.8083916  23.1028199   6.0579574
  37.2980762  23.0969095   5.7900143 106.1166073  41.8251276  40.9914589
 105.6596084  42.1996498  41.7445278 105.4184641  41.5901375  40.3802252
 107.6060322  25.7313848  33.3928919 107.0800632  25.4074717  32.6616812
 106.9776840  25.8525205  34.1047454   6.6068536  36.7789316  20.1141596
   6.9915563  36.2479901  20.8115363   7.1050298  36.5435982  19.3314278
   4.5212406  86.7111206  41.1643219   3.8867041  87.1341991  41.7427635
   4.0551725  86.6038704  40.3351593  80.1824787  96.4753412  10.5006862
  80.2381947  96.9554125  11.3269186  79.9182399  95.5911236  10.7547915
  96.2870206   9.7263199  18.2175815  96.0837616  10.6227076  17.9503608
  95.4470683   9.3641889  18.4996676 105.4846455  34.9723768  31.3565874
 106.1929531  34.7484660  31.9602418 105.2798403  34.1498041  30.9119987
  64.3369833  91.9587239  85.7076661  64.4988910  91.0760006  86.0405557
  63.4473387  91.9227561  85.3562839  26.4478350  12.2303236  23.3737063
  26.2093520  12.6852763  22.5660086  25.6100774  11.9913995  23.7703276
  13.4210002  28.0584121  24.2315912  13.2247341  28.6219168  23.4831429
  14.3581760  28.1800342  24.3837166  45.9242449  93.8462313  80.4408114
  45.3924963  93.2068118  80.9147494  46.7909828  93.4436902  80.3864406
  99.1167999  48.9126253  35.6041551  99.0951980  48.0620527  36.0426712
  99.4805015  48.7266302  34.7385001  69.4310392  69.4518995  22.5705600
  69.7370089  70.3327084  22.3542595  68.7544788  69.5894480  23.2335639
  15.5187631   7.4474800  27.8527117  15.3733385   7.2511131  28.7781978
  15.0694406   8.2807344  27.7111864  15.4183030  34.1907763  32.0490146
  15.0726593  34.8161554  32.6859307  16.3479376  34.4081759  31.9800973
  10.4713023  14.4619048   0.3096812   9.9040467  13.7594628  -0.0081657
   9.9078608  15.2355134   0.3268622   7.3191768  89.7886848  53.5794353
   8.0902344  89.6650887  54.1329908   6.5785998  89.5905018  54.1525841
  39.9082685  79.5743847  47.3042297  39.7338963  80.2350712  46.6339159
  40.7901287  79.2592096  47.1061945  86.6292418  37.8722262  48.7550163
  86.5464748  37.2965908  49.5152950  86.0091985  37.5178671  48.1176710
 106.3651330  38.1519103   1.8994474 106.5351365  39.0916991   1.9636959
 106.6986258  37.7914619   2.7210873  64.0948716  76.7500719  82.8079061
  63.2916156  76.2641462  82.9946874  64.6834961  76.5259012  83.5286687
  30.1484656   7.1540463  14.4183135  30.8479667   7.7548403  14.1614556
  29.3409848   7.6345146  14.2356765  20.0606728  53.4070539  17.8362989
  20.2091241  52.8187466  18.5766304  20.2075553  54.2829847  18.1932330
  39.7587538  46.5245056  36.3852000  39.8885584  46.7396116  37.3088408
  39.2306757  47.2458935  36.0431957   9.8807281  48.2207012  31.7162657
   9.7110009  48.8809729  32.3881745  10.5169117  47.6286793  32.1175289
  59.3090582  62.8422022   2.3976010  59.4153261  63.2619667   1.5439408
  58.3798885  62.6160574   2.4392925 102.9153563  43.2869530  14.9922240
 103.3509887  42.5356150  15.3946483 103.5980774  43.9550543  14.9308240
  10.0858760  76.2177753  54.1438580  10.2762866  75.5606031  53.4744501
   9.7052550  76.9501448  53.6590910  30.0448775  50.5999422  20.7173467
  29.4984007  51.3830376  20.6513500  29.4235635  49.8720312  20.6987357
  91.0852016  30.8757210  35.3433323  90.4516245  31.0708666  34.6528769
  90.5522991  30.7468939  36.1279678  95.3990723  66.5253448  28.7840438
  95.2315594  65.5869389  28.8710093  95.5304409  66.8294287  29.6821022
  60.4494169   6.5485689  84.3689548  59.6456673   6.7852947  84.8317518
  60.1769521   5.8765957  83.7440966  42.2940302  25.2686882  33.5915518
  43.2273531  25.2149868  33.3859873  41.9647074  24.3822551  33.4431791
   4.8143709  54.0639496  40.5843401   4.9418956  54.7039032  41.2846470
   4.8571542  53.2151842  41.0247946  16.4807665  49.2309046  40.1499796
  17.1727335  48.8078833  40.6583786  16.2156260  48.5701847  39.5101476
  42.5113153  63.5449409  12.3186088  42.0246506  62.8541565  11.8689275
  42.3077917  63.4170628  13.2451379  93.4114278  54.9757624  37.9318047
  93.9616932  54.2952681  38.3195734  93.6298586  55.7685041  38.4217882
  19.5456243  10.0846696  23.6386061  18.8799012   9.3988723  23.5863853
  19.8665607  10.0388455  24.5392346  12.7887368  47.6262760  34.6593404
  13.5892081  47.1485472  34.8767209  12.8870249  48.4708786  35.0989008
  11.2547803  57.3621988  34.7877860  11.9896829  56.9770241  34.3105125
  10.5714142  56.6926861  34.7562194  39.4015384   3.7673521  23.4608364
  38.6922932   3.1893745  23.1795096  39.7221017   3.3752856  24.2730904
  21.4150691  18.5712004  66.9227314  20.7885098  18.1798375  66.3140488
  21.3331652  18.0480027  67.7200937  27.8811193  65.4868460  36.1032128
  28.5787535  65.8204746  36.6673303  28.0186367  64.5397139  36.0868931
  15.7047963  14.5125496  14.5866227  16.5161073  14.7629154  14.1446710
  15.0140989  14.9376845  14.0782642  24.2729092  85.1991940  60.1287889
  23.4003091  85.5344677  59.9228907  24.2089224  84.9073219  61.0381556
   5.9213144  33.2416630  22.5022888   6.3052553  33.9335656  23.0408907
   5.0177455  33.1718755  22.8103876 106.0236676  55.2545404  24.3579221
 105.4361151  56.0101461  24.3662977 106.8080590  55.5559826  24.8162818
  28.4525204  39.9287844  68.5367632  28.5360765  40.6798649  69.1242409
  27.5105977  39.8437619  68.3891821  21.9218349  13.9829040  29.5139837
  21.0645270  14.3998647  29.6000075  22.3327112  14.4304657  28.7743235
  12.4627471  81.2128639  59.2664719  12.3179042  81.1891556  60.2123547
  12.1102452  82.0591927  58.9913321  35.0489759  15.1720536   5.7034969
  35.4369450  16.0021544   5.9803432  35.1996636  14.5797515   6.4401811
  10.7228458  29.5526719  23.7548018  10.4306746  29.5414400  22.8433514
  11.4996600  30.1119328  23.7504315 106.7623815  30.6653357  48.2724762
 107.6556728  30.4316092  48.0202150 106.6935898  30.3950405  49.1881371
  29.0128508  89.4934391  22.5559235  29.6670380  88.9392041  22.1303701
  28.8758984  89.0880190  23.4121418  15.2249658  51.8743229  47.5630093
  15.5419075  52.4467945  48.2616186  14.5716381  52.3995113  47.1008730
  55.7369518  16.6734672  37.6966286  54.8782206  16.8130028  37.2974443
  56.0247612  17.5482750  37.9576063   5.6004840  59.6098089  15.0958276
   5.5522358  58.8008833  14.5863748   6.3549972  60.0754213  14.7350693
 107.8389968  34.4392276   7.5288403 107.4075471  35.1340747   7.0315784
 107.6171985  34.6245933   8.4413517  30.0921059  74.2837381   2.4535689
  29.4403839  73.9226055   3.0544651  30.8990717  73.8144398   2.6652160
  95.2321054  50.2921438  13.9159107  95.9493138  49.8643064  14.3836713
  94.4973148  50.2663231  14.5288110  37.7999949  28.2738662  52.0154047
  38.6448860  27.8287625  51.9500256  37.2543406  27.8505373  51.3526201
  80.1396819  97.1041971  30.4761982  80.8623358  97.1871822  29.8540092
  79.6731957  96.3161056  30.1977491   9.9309421   3.8738441  10.6992257
  10.6508780   4.3891010  10.3353095  10.2104127   2.9643726  10.5943930
  31.2608790  57.6338482  49.8009396  31.4001369  56.7531729  49.4527340
  31.9074202  57.7193832  50.5015850  44.9070201 101.7022713  84.0842889
  44.0389810 101.5006217  84.4336827  45.2044336 102.4520072  84.5997293
  83.3877314  14.3901467   4.0212408  83.6105932  15.1939583   4.4907641
  83.4701575  13.6985433   4.6778402  39.7138619  37.2103429  23.0198932
  39.3745160  38.0117273  22.6213217  40.5618095  37.0732427  22.5974917
   2.2410043  79.8440599  43.5665560   1.5911925  80.5443192  43.6266518
   3.0519679  80.2901554  43.3224821  21.1912489  21.2717509  36.8957305
  21.9906330  21.3340306  36.3729167  21.1360693  20.3478432  37.1398163
  99.8865844  40.6825256  51.1072350 100.1879574  39.9395657  50.5843449
  99.9299235  40.3721476  52.0116758  92.4214674  10.3750277  49.0957212
  91.7782046  10.0572121  49.7293139  92.4979247  11.3110065  49.2810011
   6.8617216  76.0670813  51.1819427   6.5887824  75.4458889  51.8571131
   6.8396298  75.5622562  50.3689878  99.0499939  54.7139931  10.9419417
  99.0375651  53.9199305  10.4075766  99.9765630  54.8596907  11.1329234
  19.1669321  85.3788185   9.5035201  19.0543902  84.6797943  10.1476717
  18.4653938  85.9999657   9.6991003  11.9135773  54.9293375  13.1968200
  12.0043135  54.3101406  12.4725294  11.5100479  54.4190979  13.8989985
  22.5365019  15.9761953  20.4786706  22.1314430  16.2697637  19.6625972
  22.9230642  15.1276314  20.2624750  38.6824679  60.5624819  12.2961926
  38.7608624  60.0808716  11.4727008  38.3427405  59.9193096  12.9184031
 104.0411986  39.8375893  18.4321952 104.1701479  39.6482372  19.3615758
 104.5480056  39.1644406  17.9780483   3.2627207  55.5959892  44.6749592
   2.7749288  54.8600483  45.0446606   3.6502585  55.2473497  43.8721514
  21.5406990  73.7343979   8.2447779  22.1358705  74.1882706   7.6481181
  21.2437201  72.9699039   7.7512354  25.3031802  20.4364157  19.6750617
  26.1860466  20.4480004  19.3054056  25.2440977  19.5951200  20.1277876
   2.9577085  26.4172935  27.5072598   3.7178859  26.9963384  27.5626612
   2.6026168  26.5712929  26.6318035  49.2164660  19.1879308  20.1511598
  48.9966679  20.0974917  19.9496198  48.7116098  18.6741889  19.5207453
  94.9613167  29.7606730  27.3956037  94.6730066  30.3500104  26.6986156
  95.8308781  30.0808477  27.6355624  87.4750414 102.4074055   7.2106171
  86.5688791 102.6613788   7.3855400  87.9439297 102.6223102   8.0169618
  82.8395714  32.6569843  23.7597227  82.6035727  33.3644867  23.1597424
  83.1417669  31.9501138  23.1894207  19.2709911  35.4509950  36.9194889
  18.6869895  36.0472155  37.3882079  19.4082391  34.7237110  37.5264907
   3.3481416  29.2179322  82.9169369   3.1386000  28.3097267  82.6990223
   2.9540500  29.3545699  83.7784767  74.2064134 102.0234069  78.1290667
  74.8920861 102.6673087  78.3064895  73.5267893 102.5174292  77.6704960
  65.0658432  59.9684324  80.9232275  64.4846336  59.2898526  80.5797796
  64.5100800  60.7441004  80.9987073 106.2266458  37.6626682   8.6439186
 105.6704960  37.3263264   7.9412079 105.8522991  37.2927976   9.4434756
  96.3885380  63.6054897   9.2291737  95.9709014  63.0583763   9.8943627
  96.7723633  64.3307543   9.7220272 106.5706946  50.3506041  39.6786380
 106.2462406  50.8866692  40.4022360 106.9402094  49.5755386  40.1016808
  17.4812734  39.1830993  28.4439182  17.3896313  39.6110439  27.5926256
  17.0376003  38.3415794  28.3379579   4.7294635   9.6184725  58.1572723
   4.6055365   8.7828529  58.6074018   3.8576645   9.8493236  57.8364849
   0.4429299  84.4671345  45.8454800   1.0029383  84.2060280  46.5765381
   0.1357821  85.3428745  46.0799408   7.3626066  23.3222506  83.5764598
   7.8001095  24.0423367  83.1222581   6.5605713  23.7111923  83.9252989
   6.5572900  34.7532582  29.3440461   6.7161000  34.7787023  28.4004545
   6.5306288  33.8205147  29.5573735   4.1441438  31.0579014  37.4398518
   3.2269099  31.2794495  37.2791338   4.5618778  31.1299753  36.5816355
  14.6312225  33.8638186  27.2485352  14.1996014  33.0283093  27.0700431
  14.1970372  34.1945219  28.0348873  95.8274676  25.1658249  41.6298437
  95.8585275  24.4932508  40.9494686  95.1927890  24.8346257  42.2652340
  51.7931226  84.3489059  73.0180185  51.2199799  84.4630917  73.7761085
  51.2528506  84.6010073  72.2691636   8.7400645  47.2716713  49.5872068
   9.0432495  46.3800287  49.7583437   8.3122247  47.5394201  50.4005337
  34.5557364  90.5586656  81.1760669  35.1237330  91.3191899  81.2994151
  35.1574237  89.8158582  81.1266636  33.5757017  39.9604011  18.7716055
  34.0028596  40.1554012  17.9374933  32.6593065  39.8072886  18.5413682
  11.4801264  45.8255053  39.2536402  11.4799631  45.1818657  39.9621320
  11.3474238  45.3076935  38.4596062  23.8947582  36.4639211  64.0938854
  23.6260629  36.7814374  64.9559832  24.5400405  35.7819295  64.2802525
   2.1192624  39.2831850  34.3097663   2.1623313  40.0904846  34.8222518
   1.1859155  39.1577911  34.1383839   8.0681556  39.6210241  59.5682907
   8.5995972  39.0835810  60.1556206   8.5105771  39.5598841  58.7216759
  31.7467928  63.9029837  36.9570827  31.8152547  63.6500597  37.8777194
  30.9112120  63.5353422  36.6691947  48.5976028  43.1786871   9.9081510
  47.9638433  43.2121134  10.6247175  48.7421465  42.2441912   9.7596401
  54.0704918  46.3063383   0.4659260  54.5258999  45.6321287  -0.0383361
  54.7470093  46.6819000   1.0294092  23.0787587  44.2186356  27.8136611
  22.9369736  43.7575817  28.6404371  22.2129679  44.2526722  27.4068713
  97.6967908  46.7763853   4.0812051  97.3629667  46.0465479   3.5595462
  97.7207566  47.5146675   3.4724402  40.6186131 101.1181410  83.3119922
  40.5945093 102.0613774  83.1508665  39.7200838 100.8933934  83.5535787
  39.7316313  50.9610319  57.1159506  40.1202202  50.7712317  56.2620163
  39.6068072  51.9100571  57.1166945  38.2291671  94.4480666  84.9046888
  38.6521712  94.2046412  84.0812551  37.4186998  93.9389332  84.9172776
  41.7274952  48.7208223  18.0831599  41.4608717  49.6284199  17.9368377
  42.5997114  48.7871122  18.4718370 105.5576267 101.8505151  65.7588148
 105.6481709 102.7403346  66.0997772 105.1287951 101.9616387  64.9102974
  25.9271908  47.2685909   0.1783443  26.5861869  46.6104031  -0.0424366
  25.1167178  46.7702389   0.2832961 106.5978752  42.4155760  47.2919464
 106.4327336  41.9494247  46.4723969 106.4939452  43.3400917  47.0667744
  23.8112783  30.1362872  71.7474842  24.2059541  30.9547091  71.4464045
  24.5541048  29.5483613  71.8845415  19.9395633  28.8387728  62.3520517
  19.8847008  28.0482268  61.8151569  20.3430557  28.5458517  63.1691360
  12.7318454  70.2071905  28.4240580  12.9917014  70.7666016  29.1560197
  12.7374935  69.3210983  28.7860441  89.6918513  38.8076663  23.8817406
  89.1329111  38.2020736  24.3686438  90.0341405  38.2864332  23.1555271
   7.3655242  61.6003609  68.4026861   8.1592530  62.0233536  68.0751133
   7.2008604  62.0209217  69.2466354   8.7253314  45.9313440  27.7102232
   9.4453824  46.4965057  27.9901361   8.6026692  46.1405802  26.7842603
   2.1542811   0.7901786  69.5619440   2.6534852   0.2474197  70.1722240
   1.5648502   1.2977111  70.1198101  13.6541486  43.6435652  54.6857882
  13.8017976  44.5890093  54.7096491  14.1314757  43.3073854  55.4443216
 108.0240903  52.5209999   8.8823801 107.4333179  52.4307156   9.6300888
 107.8628759  53.4060001   8.5552502  25.3268862  54.2694139  37.6035500
  25.5360007  53.6963987  38.3412218  26.1096883  54.8083401  37.4894834
   6.4380056  58.1636047  59.7268152   6.9042248  58.4856701  60.4982758
   5.5129540  58.2991600  59.9320889 104.9400897  40.6544638  29.3834734
 105.4871110  40.0904417  29.9301672 105.5131362  41.3819027  29.1412210
  31.4292359  76.5448761  27.7738404  31.8570757  77.3472595  28.0727792
  31.1379313  76.7458248  26.8844628   9.3511838  52.4487400  20.8161068
   9.3591547  53.3513927  20.4976988   9.6079582  51.9248199  20.0572872
   6.5673047  37.4242163  72.0175838   5.7226789  37.8533459  71.8808842
   6.3428152  36.5469074  72.3276901  34.8917556  59.0467548  35.0558090
  35.6537628  58.7208462  35.5347252  35.2284336  59.2576981  34.1849566
  10.1116741  81.8036747   5.7662308  10.2731073  80.8720684   5.9155035
   9.3932563  82.0204830   6.3604522  91.5950013  31.4837599  28.8306499
  92.3186816  32.0981550  28.9532804  92.0025827  30.6194520  28.8861609
 100.8510871  59.3936443  57.8310776 100.1605947  59.6791649  58.4293461
 101.6336329  59.3347454  58.3791494  48.0168629  41.5246964  14.5021319
  48.8782310  41.1493158  14.3194664  48.2009554  42.2993326  15.0334287
  99.4864335   8.4647152  82.7392374  99.1718616   9.3430445  82.9532783
  98.6921754   7.9657147  82.5484942   0.7217790   8.4922955  78.2561712
  -0.1860212   8.4890720  78.5596852   1.2084295   8.9197847  78.9609127
  51.4896393  39.6982288  35.0578380  50.6941319  40.2305603  35.0627542
  52.0411158  40.0853968  35.7376933  15.3353192  16.0387871  62.7059882
  15.4680849  15.5516932  61.8927567  14.4513394  15.8011839  62.9859035
  23.8500977  49.3419361   2.0108046  24.4293594  49.4751692   1.2605134
  24.0214944  48.4422159   2.2889300 107.6899150  29.9472570   5.1252800
 108.3095401  29.8287535   5.8451790 107.5314884  29.0620065   4.7974575
  18.9138186  37.9484248  21.1380744  19.2574608  37.6425076  20.2986979
  19.0670276  38.8932467  21.1295819   5.9704250  58.3022261  36.0423231
   6.2308615  57.4381256  35.7233572   6.3081145  58.3389854  36.9372225
  97.2277511  71.0912371  21.4363146  96.6544594  70.4393578  21.0330486
  97.2058583  70.8842134  22.3706031 108.1208226  45.2516794  18.4111261
 107.8981928  45.4932547  19.3101847 108.6652011  44.4695091  18.5010982
  42.4616671  72.5756598  33.9270210  41.9278049  73.3686686  33.8784051
  43.1076097  72.6785660  33.2281661  23.4106016  57.4231625  18.9338720
  23.5772085  58.3656454  18.9479315  23.3507967  57.2043562  18.0039370
  41.3695621  64.7732687   9.6222413  41.4128160  64.2357588   8.8313925
  41.1897469  64.1498709  10.3259981  12.4789965  47.5132275  68.4417820
  13.3567858  47.2593260  68.1567335  11.8899667  47.0344734  67.8586245
  19.6035349  61.4967394  41.4604521  19.6526194  60.5769873  41.7209864
  19.7261453  61.9834232  42.2755194  27.7313852  57.5431871  38.9547515
  27.3234344  58.2181025  38.4122610  28.1667614  58.0294466  39.6549153
  40.4047251  13.2990265   2.0273234  40.3038168  12.3819315   2.2822464
  39.5088196  13.6149883   1.9100434  99.1491498  59.3854141  24.8187542
 100.0148828  59.5710278  25.1824617  99.1830386  58.4589434  24.5805573
  92.9692618  85.3173693  79.1349010  92.5615612  85.1300629  79.9804370
  93.6876551  84.6880635  79.0707426 108.4360777  71.9368982  36.0317445
 108.4639573  72.8879595  35.9271502 107.5793256  71.7638683  36.4219618
   0.3751335  35.2824998  49.3730974   1.0583422  35.4527736  48.7246656
   0.4847556  34.3589807  49.5996523  48.8461685  64.5581913   8.3859479
  49.4114351  65.1784563   8.8463569  48.6069775  65.0080538   7.5756109
  38.1300712  58.6345243  28.3604169  38.3575249  58.4878874  29.2785645
  38.5815883  59.4460440  28.1284690  24.0367532  43.9361143  30.7922983
  24.0083504  43.2000113  30.1810884  23.3782911  43.7237263  31.4537740
  24.6231699  49.0377474  23.0346417  24.1023350  49.7842646  22.7385402
  24.1104388  48.2712078  22.7782249   9.8430163  16.1348605  45.5273628
   9.0024608  15.6858122  45.6171083  10.4959536  15.4610837  45.7169104
   9.5159090  60.2705860  44.3874025   9.4248742  60.0551939  45.3156042
   8.8561052  60.9465361  44.2325544  91.8790270  70.3960180  34.3841577
  91.4300967  70.9925604  34.9831843  92.7408458  70.7915115  34.2534566
  11.2204218  27.9897213  33.6728644  10.7443678  28.7787867  33.4140658
  11.0883439  27.3810863  32.9459858  33.2422948  50.1176977  45.5553341
  33.5306668  50.2180624  44.6481419  33.0121541  51.0043621  45.8329868
  26.1438012  46.3448811  43.9454317  25.3324413  46.7019367  43.5842752
  26.8267727  46.6513681  43.3489037  46.6751289  74.5294285  46.7701101
  46.6890383  74.2933321  47.6976347  45.8149529  74.2430973  46.4629507
  36.4226317  88.5778904  38.2735729  36.4478135  88.3715439  39.2079282
  37.2046804  88.1586838  37.9145503  18.0076838  68.8422251  16.2273037
  18.1990695  68.6418200  15.3110933  17.9274035  67.9861879  16.6480052
  85.7042254  73.7845564  52.9697800  86.0205139  74.2102003  53.7666607
  84.7555388  73.9100409  52.9915953   4.3143457  48.9393806  23.9324784
   4.1885278  48.5525703  23.0660033   4.7768447  49.7602129  23.7634730
  28.7595177  87.6936722  66.3467360  29.6181130  87.4754906  65.9841871
  28.5595822  86.9703388  66.9409132  23.3404207  44.4659901  62.9270315
  22.6546884  44.0311241  63.4338808  23.8455606  44.9543190  63.5771084
  26.7584014  44.1031885  38.9008260  25.8881664  44.3269253  39.2307734
  26.6343331  43.2721996  38.4422469  96.5740431  53.0087709  32.9109836
  96.8244733  52.0913839  32.8018022  96.6424168  53.1652498  33.8528275
   8.4087545  50.2521610  40.4614687   8.2165021  49.9370432  39.5783067
   8.0870414  49.5593357  41.0382938  16.8470526  49.7130156  20.5793166
  16.9796848  50.3570223  21.2749434  15.9952188  49.9371529  20.2046514
  99.1236843  59.6758032  12.2200286  99.9452199  59.7543669  12.7049398
  98.5013903  59.3267155  12.8580892  41.8831730  50.1797581  25.1226544
  41.3681078  49.4449186  24.7895622  41.5921736  50.9304094  24.6048903
   6.8156189  74.8463202  20.5706573   6.6310489  74.8321152  19.6315289
   5.9883541  74.5946360  20.9811687  24.8286414  71.6780519  24.3278527
  24.8528123  70.9293127  23.7320065  25.1121807  71.3229656  25.1703191
 108.1588688   6.7876074  85.4390554 108.3732119   6.2965271  86.2322335
 107.7908244   7.6111338  85.7593389  40.0443745 100.7026100  17.1559072
  40.2316141 100.1002121  16.4359808  40.6223631 100.4171848  17.8635049
  60.4029909  84.5517834  79.3069934  59.4665495  84.6209558  79.1211872
  60.8181969  84.5419034  78.4445910  20.0024343  94.6402168  70.7623434
  20.2791667  94.3437386  69.8953056  19.0924835  94.3521690  70.8348274
 108.7543184  45.4658270  44.1620398 108.9212957  46.4066601  44.2184401
 108.5573911  45.3124952  43.2379484  10.8984089  97.5244331  41.6398811
  10.2034628  97.1860504  42.2044849  11.1830044  96.7661858  41.1296797
   2.5282329  56.5894270  26.1635017   2.7654013  56.3293886  27.0536518
   2.0196070  57.3924637  26.2760544  96.5080441  78.8920307  13.2579660
  97.0654250  78.3589697  12.6910365  96.5373851  79.7662401  12.8692210
  23.1978297  16.4459050  32.0869946  22.9485536  17.0971298  31.4312506
  23.6081409  16.9549060  32.7861333  29.5509005  38.6996508  23.5047984
  30.4576755  38.5102582  23.7458825  29.4902420  39.6545362  23.5321331
  68.9986895   6.5350641  32.4328208  68.5245990   7.3214162  32.1624064
  68.3218096   5.8630384  32.5131154  49.5186281  51.4987612  10.7357991
  49.3091536  51.9544315  11.5511024  49.0171623  51.9636059  10.0659621
  45.4875040  83.2162857  41.0168409  45.8757448  83.6188412  41.7936659
  46.2241840  82.8002548  40.5691290  35.0286865  74.9139929  31.7149019
  34.3730021  75.0076103  31.0238552  35.7176089  74.3791199  31.3205314
  21.1532450  40.6642675  16.0086715  21.9267368  40.5218887  16.5542638
  21.4582753  41.2378883  15.3057146  43.5161448  33.2391548  32.5232935
  43.7682295  32.6739097  31.7930984  44.0317726  32.9187036  33.2633400
  10.1872241  50.0128937  23.9105487   9.4059163  49.6702147  23.4765410
  10.6667387  49.2333889  24.1910291  74.3015099  32.9764509  31.8674636
  73.5278225  33.5033965  32.0673823  74.8137712  32.9867578  32.6759887
 107.1438913  23.2348228  25.1337552 107.7694742  23.2398295  24.4092894
 106.2861336  23.2606649  24.7097087  35.1819396  69.7176266  25.1992607
  34.4595909  69.6916628  25.8267713  34.7702146  69.5439148  24.3527746
  26.6648674  76.2359524   4.1971305  25.8510375  76.2846851   3.6955971
  27.2895789  76.7553902   3.6910117 101.7371799  -0.0924397  14.8369741
 101.6811873   0.2569457  13.9475775 101.7260779   0.6818619  15.3996158
  17.3693943  77.3261547  35.2101684  16.7950821  76.5615320  35.1682925
  17.2589660  77.7553988  34.3617678   5.6030537  98.7711172  47.6656628
   5.5374171  99.4155984  48.3703375   6.4522434  98.9455803  47.2598600
  12.8961766  19.7994030   3.4674659  13.0711162  19.2939627   2.6736408
  12.0634925  19.4560003   3.7914169   5.3575706  17.1458125  51.5252113
   4.8230681  17.0618403  50.7356024   4.9583355  16.5406072  52.1501684
  50.0431395  76.4567852  10.4126203  50.8177090  76.9519854  10.6791818
  49.4483232  76.5220451  11.1597264  94.4854046  68.3676672  32.2766256
  93.8036717  68.0853367  32.8863454  94.0059019  68.6839867  31.5109539
  59.5260456  41.6577360  86.9043812  59.2246451  41.6030333  85.9975203
  60.4736950  41.5344545  86.8496692  15.0236320  30.2853799  78.6659765
  14.9932659  29.3301821  78.7198925  15.8636796  30.5209184  79.0597725
  79.8278173   5.5153391  85.4784198  79.5150461   5.9381840  84.6786641
  79.9393245   4.5962116  85.2355166  28.8915682  41.2951422  86.5967464
  28.7073660  41.2496662  85.6585407  28.8967609  40.3821850  86.8843365
  90.0322844  91.9947338  13.2912230  90.4457034  92.8571892  13.3297718
  90.5998827  91.4825726  12.7152395  32.1662784  92.9319477  20.0733042
  31.5249419  93.6422920  20.0914478  32.7125096  93.1218529  19.3105459
   2.3406486  55.4779339  40.6824684   3.0220169  55.8980322  40.1576042
   2.7826139  54.7399616  41.1023474   8.1526047  32.4562788  44.5089626
   8.4397405  33.3230114  44.2216301   7.2093189  32.5486326  44.6428013
   4.9037853  55.3506088   1.9536096   4.3805388  55.4703379   1.1610764
   4.4075158  55.7991171   2.6382911  21.4833879  65.7276821  11.1618543
  20.7691526  65.4071760  10.6110597  21.1843920  66.5840912  11.4674687
  84.0325260  32.0876622  19.5645106  84.9565601  32.2514081  19.7531068
  83.7216663  31.5791225  20.3135014  11.6148603  83.1776237  40.3967762
  11.3169003  82.2890472  40.5913877  12.4055302  83.2862473  40.9252405
  23.2395712 102.8018674  85.8545588  22.7361015 102.8811701  86.6647814
  22.6487867 103.1225260  85.1731019  30.7623076  40.8477116  49.7622108
  30.4427433  41.7396688  49.8983002  30.9620929  40.5280161  50.6420517
  51.0334158  41.4615297  24.8360991  50.0794744  41.5335846  24.8681998
  51.2064648  40.5255842  24.9375534  17.1101260  49.1284370  33.8128185
  17.8529298  49.2689657  34.3999529  17.3227954  48.3198261  33.3468223
  43.0545950  76.5282726  17.5563061  43.6552572  75.9503126  18.0268443
  42.2340298  76.0372829  17.5134802  19.1114604  61.2385845  16.3232231
  18.8787293  61.2439823  15.3947628  18.3623779  61.6436672  16.7602718
  10.9658396  84.4672203  37.9266667  11.1854732  84.1617489  38.8068271
  10.6665277  83.6819839  37.4683571 101.8152441  63.9161825  40.8750629
 101.5820516  63.3437395  40.1442003 102.7585299  64.0501308  40.7828665
  99.0611173  25.9939361  50.0039816  98.1084825  25.9107375  50.0463772
  99.2725809  26.6609931  50.6570911  28.9387274  94.9628925  23.2690048
  28.0209327  94.9822617  22.9978752  29.2666435  94.1241455  22.9446411
   5.6000119  87.8727913  11.0258806   6.3896698  87.9260063  11.5642488
   5.7055664  87.0638466  10.5251765  95.2544523  89.6252632  33.6120653
  95.8501173  90.1900196  33.1196570  94.4626392  89.5867348  33.0756140
  39.5111465  79.1936398  40.4739857  38.8229299  78.7225533  40.0042343
  40.0978947  78.5070038  40.7909966  32.5301218  51.7372990  28.4610772
  32.4351120  50.8212042  28.2003689  31.7834044  52.1798325  28.0575824
   9.2527735  39.2937469  32.0104361   9.0065026  38.6630654  31.3338089
   9.7378075  39.9720621  31.5404749  10.9888053  37.8579283  33.5935950
  10.6217718  37.0473909  33.9465094  10.2850556  38.2271600  33.0600810
  35.2304506  83.5114479  49.6320295  35.5314946  84.3721294  49.9232721
  35.4480577  82.9240513  50.3558064  97.5945390  57.3857498   1.0054626
  96.7142273  57.0108223   0.9787887  97.7510096  57.5638676   1.9328372
 102.6709671  70.2523756  10.1783943 103.1350083  70.1706553   9.3451959
 101.9143368  69.6729374  10.0889850   7.0646697  56.2700033  39.1808701
   6.9947666  57.1948814  39.4173908   6.3168138  55.8555508  39.6111870
  30.9626079  29.9968076  13.1113410  31.4975047  30.5784154  13.6515713
  30.6126380  29.3527222  13.7268949  45.0109737   0.3986562  11.5745842
  45.0988852   0.4924215  10.6260538  44.9216883   1.2955965  11.8966818
  34.7653770  53.7083769  10.6336582  34.1117692  53.4905672   9.9691385
  34.2520976  53.9830351  11.3934863  15.2338326  51.3042784  50.6004143
  16.0389543  50.8061123  50.7412672  14.6835780  51.0880327  51.3532019
  21.3204479  59.3027973  14.9907076  20.6742406  60.0089312  14.9949086
  21.6158390  59.2538595  14.0815425  20.8492398  70.6157827  23.2970071
  20.8581090  70.3361177  24.2123985  20.6232476  69.8250723  22.8071737
  14.9022055   0.3748534  51.7157221  15.2050173  -0.3576469  52.2523594
  14.1296518   0.7046778  52.1746445  25.5534506  13.6721957  12.5607240
  25.7541752  14.1733420  13.3511627  26.2326145  12.9986155  12.5252700
  61.6735471  35.8147001   9.0012681  61.0136570  35.4697013   9.6027225
  62.3646654  36.1514473   9.5715213  22.2833395  62.9933786  35.4480481
  21.7458940  63.7397814  35.1829672  22.7795053  62.7643871  34.6621633
  28.1170654  43.7122250  41.8890333  27.9341125  42.9384565  42.4219894
  28.3261442  43.3625031  41.0228872 106.5638055  74.6768141  31.7020392
 107.2849975  74.8125696  32.3165989 106.9676782  74.7550917  30.8377528
  95.6169475  34.5329142  14.9817133  95.9652449  34.0287757  15.7170808
  94.6938373  34.6649861  15.1977122  40.3738308  69.0263176  23.5274386
  39.8133302  68.3883762  23.0857348  41.0844707  68.5038662  23.8992763
  21.6422844  43.9340258  32.2092319  21.7420864  44.6826839  31.6212010
  20.7786584  43.5783720  31.9997263   8.7756968  41.6265726  10.6910908
   8.6182314  42.4719286  10.2706015   8.8704443  41.0113287   9.9639499
  38.7903428  42.4548006  10.0814593  38.8436913  42.6656961   9.1493070
  39.3607855  43.0961323  10.5051541  53.4854603  40.5835056  30.8461785
  52.7012730  41.0685921  31.1030388  53.2643986  40.2038336  29.9957609
   8.3654648  59.6234655  55.9981775   8.7104666  59.7833300  55.1197433
   7.4514228  59.9037313  55.9511852  29.9113750  59.0600777  43.2096434
  30.4046774  58.5755587  43.8715553  29.8584771  59.9512243  43.5550261
  14.5284700  67.1383667  16.6291726  13.7766695  66.8880129  16.0921907
  15.1704085  66.4439392  16.4811349   7.0396286  58.4343100  32.5804162
   6.2812960  57.8507042  32.5565076   6.6661513  59.3075657  32.6994681
  24.1517639  46.7847538  21.2215590  24.2604303  46.4785147  20.3212023
  23.2957006  46.4488173  21.4871359  17.1517909  82.4675941   4.8404178
  16.8561542  83.1907082   5.3935331  16.6504252  82.5648212   4.0308431
  14.1762638  81.0660648  13.2851994  13.7074685  80.2500629  13.4601283
  13.4855998  81.7156792  13.1540179  38.3242583  46.1743307  58.1683779
  37.9947495  46.0024643  59.0504885  38.3288002  47.1287918  58.0961323
  16.1382866   1.8859033  35.4967594  15.7834864   2.2439423  34.6830297
  16.3288009   0.9703432  35.2925873  43.2689810  72.0563698  42.7997923
  43.4165573  71.8140459  41.8856049  42.3630905  71.7998171  42.9723406
   7.9588670  55.2818632  11.1113429   7.0958412  55.6952810  11.1337376
   7.9460132  54.7433424  10.3201008  36.2779808  52.3869991  27.6445794
  35.9581637  52.3492813  26.7431784  36.5207386  53.3037519  27.7744293
  94.8900427  59.4331121  30.1838827  95.0792302  58.4987068  30.0982714
  94.8688556  59.7566938  29.2832828  20.3736426  23.7157175  80.2876513
  20.0326706  22.9174778  80.6911187  20.3012062  24.3801901  80.9728269
  19.2472243  64.4662762  22.7719951  18.3818471  64.0923691  22.9379749
  19.1770983  65.3735447  23.0689502  30.8057880  22.3558497  46.0249996
  30.6634474  22.0899916  45.1165438  29.9613118  22.7075696  46.3067532
  19.5379425  24.8947069  65.9999196  19.5515324  25.2477810  65.1103203
  20.4506422  24.9312040  66.2860625  26.7796421  60.8234644  40.2360392
  27.4729824  60.2223778  40.5084515  25.9672379  60.3591204  40.4375744
  39.8469138  55.9326839  37.1111393  40.5297375  56.4816332  36.7256045
  39.8457932  56.1680555  38.0389476  14.5974970  56.1003065  39.1909671
  14.2124653  56.9760513  39.2234206  14.6007955  55.8062124  40.1018620
  88.0332234  31.1080572  74.4296055  88.9308300  31.4401171  74.4131534
  88.1216493  30.1701948  74.2598133  68.2642997  79.1198921  46.2921190
  67.5722946  79.6317482  45.8733463  68.5050787  79.6301413  47.0653629
  53.6441997  90.9794601  82.1822463  53.4772054  91.7498931  82.7251814
  52.7741710  90.6333645  81.9835000  29.6557927  91.7597103  57.7520418
  30.0704312  91.6420746  58.6067152  30.3249931  91.4917946  57.1222591
 104.8118915   7.9798719  80.9778021 104.0438118   7.5736496  80.5762147
 105.1942100   8.5115358  80.2796649 102.2584982  81.6075420   1.2118711
 103.1588776  81.6109943   1.5367351 102.1961559  82.3945332   0.6705905
  25.5674314  26.3377309  77.5706005  26.3680649  26.8385983  77.4145603
  25.8142138  25.4301381  77.3928213  17.1806741  22.2845531  51.9475174
  17.9648685  22.7192855  51.6124344  16.8016624  21.8513727  51.1827040
  77.5931298  20.1908419  86.9660847  77.5533953  20.4770538  87.8786285
  77.2076263  19.3147299  86.9728509  12.4349928  36.4336061  27.0510864
  12.6203740  37.0387650  27.7691746  11.5588415  36.0980463  27.2407985
  46.7571068  34.7155976  24.6893263  46.6115570  33.8038611  24.9418759
  47.5015450  34.9957156  25.2218485  86.2404669  61.8749952  34.2936277
  85.6727256  62.3973083  34.8602796  86.7963756  62.5179434  33.8533807
  34.1526747  70.4237366  48.5773611  34.2561841  70.5647850  47.6362848
  34.3842673  71.2642813  48.9724302 103.9900697  34.3250918  12.4606144
 103.2400615  34.7651577  12.8606915 103.7060172  33.4172964  12.3536026
  17.7792048  21.3614321  23.8792443  18.4314561  21.5707660  24.5478082
  17.2761226  20.6382346  24.2535758  28.3207202  22.9377675  42.9224062
  27.6601553  23.2880735  43.5200453  28.7283182  23.7124777  42.5352097
  24.2056060  74.4988823   3.4425995  23.8672972  75.3870535   3.3288962
  24.0108132  74.0605164   2.6142734  20.5468535  44.3676043  26.6524577
  19.8205757  44.9701548  26.8127275  20.7322860  44.4592142  25.7178712
  40.0131893  66.7837286  12.7090418  39.9712181  65.9023333  12.3380840
  39.2104888  67.2090340  12.4073529   4.8232844  21.6720390  14.7461236
   4.2114493  22.2092772  15.2493763   4.5508102  21.7876911  13.8358402
  41.9422150  80.8949566   7.9075646  41.8389225  81.8387890   8.0289966
  41.3302040  80.5047798   8.5316157 105.2754660  86.1649418  10.9835005
 104.6786157  85.6776428  11.5514231 105.6887726  85.4947948  10.4391563
  63.9785377  75.4226764  86.1336766  63.7799851  76.3415083  86.3141181
  64.9187461  75.4115304  85.9544631  33.7420511  58.4184027  13.9905035
  34.2580152  57.8219414  14.5329475  34.3420959  58.6902666  13.2960463
  33.8549280  49.8282576  42.9821348  34.8063087  49.9295282  43.0113363
  33.6540151  49.7199488  42.0525455  16.7633164  43.1218052  30.0292921
  16.7798769  42.5512838  30.7977080  16.1747229  42.6811314  29.4164348
   0.7220776  76.3772154  63.2539701   0.0035755  75.9211493  62.8158045
   1.4080375  75.7153463  63.3412695  81.2594689  53.6828756  51.1150599
  81.2332357  54.6396780  51.1066008  81.9551171  53.4678316  51.7363977
  27.4990988  12.4612236   1.3111874  27.5879741  13.2532442   0.7810588
  28.3653331  12.3333776   1.6978726 104.1104282  70.0190449  47.5006676
 104.8468543  69.9279690  46.8960094 104.4502546  69.7096109  48.3403111
   3.1771517  68.0118656  34.9586606   3.2334384  68.8718939  35.3750873
   2.2560257  67.7652454  35.0419545  19.0293539  61.3173771  46.2938118
  19.0544295  61.8748045  45.5160713  19.6282244  60.5983019  46.0925245
   1.7757188  75.0719500  26.2848806   1.9479731  75.3302670  27.1903253
   2.4675632  74.4431591  26.0794520   2.5904527  58.8753319  37.8489971
   1.7502929  59.0284348  38.2813430   2.3706496  58.3561850  37.0754313
  90.3324093  83.4761143  30.8399320  91.0431923  83.0233479  30.3860331
  89.6369888  83.5463715  30.1859546  28.2227182  23.1945634  38.3574557
  27.4109459  23.4883451  37.9439974  28.0013466  22.3477173  38.7448597
  98.6983801  12.6162970  12.6398575  99.1442002  11.8994999  12.1885490
  98.9259685  12.4971306  13.5619390 104.4179166  51.7941952  32.8862739
 103.5058041  51.7508173  33.1733274 104.9071075  51.3421011  33.5736847
 102.1438379  55.8676863  25.8764720 101.4136286  55.8772945  25.2576566
 102.8218729  56.3958168  25.4550672 104.9929846  21.1072516  68.2981300
 104.2389537  20.7673550  67.8163242 105.7406033  20.9342909  67.7259588
 103.0876566  66.3051319  17.9634440 103.7751759  66.4173937  18.6199093
 102.3443807  66.8001699  18.3079875  19.4575429  29.0428925   4.9327657
  18.6396909  28.6410022   4.6397924  19.5158863  29.8579836   4.4343123
  13.6237168  54.9386787  41.8402624  13.5875845  53.9831734  41.7963028
  12.9979491  55.2327347  41.1783075  42.5383472  30.1990151  48.0792046
  41.9074011  30.9142089  48.1606865  42.8766775  30.2785420  47.1873331
  97.2858263  87.2641945  63.1039333  96.8871583  86.4276409  62.8641891
  97.2732950  87.2699261  64.0610313  26.8998766  60.0379801  17.9488182
  27.2832537  59.4626474  17.2868180  27.5377464  60.7443714  18.0506241
  95.2125181  87.5961971  45.8873034  95.0528563  87.6398373  46.8300819
  95.8448745  86.8850613  45.7841349 103.9178826  49.1074848  25.5452847
 103.6504294  48.4197330  24.9356174 103.4426446  49.8851156  25.2525783
  26.4384890  48.9716578  18.0396056  27.3710203  49.0511036  17.8388417
  26.4032102  48.9126253  18.9943314   9.5033967  19.1719639  53.4916878
  10.2402246  19.1639328  52.8807449   8.9785403  18.4107935  53.2439470
  19.4653225  57.7680683  11.8371069  18.7062562  58.3014584  12.0727885
  19.4852185  57.0749807  12.4970078  25.0880289  29.1142845   4.9243724
  25.6209612  29.1672850   5.7177234  25.4816103  29.7516036   4.3284291
  32.1087575  58.9087248  30.3879905  31.4742947  59.6253252  30.4010248
  31.6266751  58.1557512  30.7298398  89.1826023  61.3439751  36.7839193
  88.9995230  62.2809362  36.8533587  89.5398892  61.1057043  37.6393747
  21.1690497  48.1381655  52.0280266  22.0854402  48.2438946  51.7725182
  21.0037398  47.1991158  51.9438362  15.3653859   2.5333227  54.1426754
  16.2128900   2.0908178  54.1891575  15.2611803   2.9420961  55.0019073
  13.3061635  37.9097199  48.7086201  13.5812306  37.8854537  49.6251249
  12.7127218  37.1643090  48.6168480  38.8704991  49.5418406  32.8143072
  39.8145199  49.4677973  32.6744056  38.7413478  49.2729712  33.7238455
 108.2683496  77.9483080  31.3438344 108.4151563  78.4646702  32.1363306
 108.5758870  78.5094547  30.6319547  87.3662113   0.5707658   6.1192924
  88.0827163   0.9743799   5.6294477  87.0334839   1.2724985   6.6788357
  42.6897573  85.5918694  10.5146170  41.8954325  85.0591278  10.5529821
  42.4326754  86.4327621  10.8928156  26.4527798  88.2135868  26.8533754
  25.9561086  89.0315914  26.8331122  26.5324759  88.0047607  27.7841139
  13.5579944  59.6223640  20.8989215  13.2994270  59.5521355  21.8178582
  13.9932072  60.4726458  20.8368778   6.7924464  43.8863707  17.7136695
   6.0202169  44.0714025  17.1791995   6.6538107  42.9952335  18.0344212
  43.5716295  92.1313190  30.3372073  44.3262100  92.3964977  29.8113585
  43.3296537  92.9195213  30.8234382  32.7586794  66.7080927  28.5783815
  32.7080846  65.7574415  28.4787226  32.2112370  67.0523739  27.8726816
 104.2935292  90.0629902   3.2284606 104.5063735  90.4840374   2.3956062
 103.3372308  90.0782967   3.2670766  17.1176457  29.6327543  11.7042124
  16.5958047  30.3996658  11.9403529  17.7021337  29.9443078  11.0131693
  29.7744226  89.1830730  44.0612698  30.2644491  89.3272495  44.8707867
  30.0085664  88.2940674  43.7946606  37.1746039  84.6784115  40.8266354
  36.8740177  83.7844181  40.6634140  38.1273508  84.6044636  40.8817244
  16.6338921  72.6374006  29.6810007  16.6078937  73.5214472  30.0470853
  17.4871731  72.2936296  29.9455094 106.5899172  50.7584879  85.6987883
 106.7716231  49.8805449  85.3634836 107.4273910  51.2175390  85.6344135
  70.4047155  64.1366816   6.4760780  70.7486868  63.5541725   5.7988828
  70.1735020  64.9386120   6.0073751  19.4843937  36.0449240  81.1334728
  19.5898606  35.9453318  80.1873283  19.0670134  36.8998167  81.2392716
  19.0295446  76.1219931  24.8096633  19.2685974  76.5557575  23.9905572
  18.6418343  76.8154049  25.3436065  27.8070284  29.3249247  88.5549318
  27.2620751  28.5380957  88.5423298  27.7462460  29.6726439  87.6651989
  78.8776222  94.5292815  85.9605752  79.4153038  95.2861603  86.1935248
  78.5891930  94.7068223  85.0652991   7.3013383  56.7248774   2.0493452
   6.6019607  56.2901592   2.5373241   7.0696467  56.5930367   1.1300146
 105.2121631  76.8011904  13.2597005 104.3810413  77.1569395  13.5741997
 105.5186350  76.2417936  13.9734101  26.7952704  96.2684727  45.6301212
  27.5177336  96.4768982  46.2224340  26.0862064  95.9854794  46.2075043
  97.0944514  15.9475491  88.9478675  98.0248656  16.1610767  89.0183483
  97.0546451  15.2701637  88.2727406  23.9183164  52.6424694  55.0446749
  24.7678137  52.7715540  54.6228695  23.2802367  52.9258251  54.3898535
  10.4673505  60.1915550  18.1026673  10.6065619  59.8374844  17.2243237
  11.3290536  60.5095530  18.3720684  18.0500960  61.4253902  20.4149270
  17.7625751  60.5124474  20.4050231  17.9302478  61.7240381  19.5134401
  33.6051059  68.5383749   9.7031909  34.4976115  68.8609028   9.5781291
  33.2195902  68.5546923   8.8272095  42.2071600  84.8115635   4.8006707
  42.9896498  84.5380592   4.3219846  42.5267029  85.4524994   5.4357499
  25.5145741  44.9397802  54.3573284  24.9848437  44.2011213  54.0573311
  25.3603578  44.9773788  55.3012753  33.5665369   9.7436482  43.7001610
  33.7485170   8.8123447  43.8258123  32.7449012   9.7630656  43.2094765
  18.7272024  73.5178137  25.3595710  18.8385296  74.4397259  25.1273823
  19.4744813  73.3211756  25.9244967  48.2175779  81.6322041  24.4516778
  47.3516750  81.3819122  24.7738624  48.3789539  82.4914742  24.8413348
  24.3826509  67.7269220  42.9573536  23.7155437  68.3715963  43.1931353
  25.2138042  68.1825209  43.0909348  27.5530052  73.7438297  26.0296392
  28.1353784  74.1110516  26.6946363  27.2687411  72.9065371  26.3961983
   0.6502400   5.6522573  28.2818294   1.5981970   5.6149496  28.4091854
   0.3179464   6.0687173  29.0770507  42.5170326  69.9861431  20.7146835
  43.3617496  69.5603848  20.8610368  42.6615953  70.5503082  19.9550426
  46.7664337  70.2330303  25.0545526  47.0022297  70.0847101  25.9703207
  45.9749985  70.7699060  25.0949407  22.1074152  74.5228148  14.0713894
  22.7219987  75.0174713  14.6134520  22.0286870  73.6759424  14.5105207
  46.8864727  78.3102798  20.4168034  46.6370153  78.5202217  21.3167620
  47.7608490  78.6866570  20.3166223  19.2817318  79.9608994   1.5031610
  19.5890951  80.0863361   2.4009496  18.3987308  80.3303814   1.4984758
  65.5111122  85.4420376  78.3448601  64.7679377  84.9387074  78.6773920
  65.4355001  85.3800964  77.3926640  23.5330844  52.1052027  45.0470066
  24.0263391  51.5279293  45.6298256  22.7406430  51.6117096  44.8355007
  38.9689517  78.4133720   6.5387577  39.3645525  79.2374945   6.2549376
  39.4001913  78.2143879   7.3698229  28.0154777  50.3658533  28.3549047
  28.4863400  50.2510500  29.1803384  27.9039168  51.3129568  28.2725239
  24.5623326  56.1755514  43.6856842  24.0490127  55.6007147  44.2533970
  24.3842483  55.8588314  42.8001308  57.1657944  80.9607410  35.2609658
  58.0907965  81.1152077  35.4526520  56.7465687  80.9203243  36.1205292
  36.3198686  84.4099903  33.9648509  36.4678884  84.2383957  33.0348635
  37.1665359  84.7164917  34.2895746  34.8156428  61.6506195   8.9655256
  34.0822649  61.5605545   9.5740306  35.1021433  62.5581264   9.0683830
  94.1718603  58.4110451   7.4022937  95.0063623  58.7982559   7.1378988
  93.9771844  58.8157225   8.2476157  20.6870842  61.7701721  26.1822629
  20.6534648  60.9236813  26.6278529  21.2452888  62.3122835  26.7397165
  20.7174492  95.6677151  31.5848875  20.5433297  94.9324036  30.9973264
  21.2521410  95.2934170  32.2850537  33.1311941  75.3535318  44.6252060
  32.6388693  75.2451611  45.4389048  33.3939791  76.2739563  44.6250343
  34.6823740  61.0991669  22.0150280  35.2135563  61.6717958  22.5683570
  34.0341806  60.7240438  22.6111507  42.5451994  62.9429722  23.9649558
  43.4709597  62.8480673  24.1889954  42.5458384  63.1694174  23.0349278
   7.8472257  77.8215027  48.8289785   8.6916769  77.3714113  48.8524866
   7.5479645  77.8168869  49.7381830  27.2147274  40.3704357  34.5008421
  26.3596559  40.2784634  34.0805769  27.8452086  40.2192211  33.7966681
  25.1103520  95.7382393  47.8508902  25.2496481  95.7624245  48.7975931
  24.2641306  96.1667347  47.7222919  27.3565985  26.0979578  84.0303146
  26.4598204  26.3845369  84.2032243  27.3192145  25.1435110  84.0924291
  22.1646786  38.1071496  20.0655603  22.7965546  37.5200701  19.6504676
  21.4602375  38.1935906  19.4232786 107.4994558  63.6243916  52.7245855
 107.1635435  63.0240154  53.3901215 108.4452048  63.4767723  52.7242899
  24.7816396  77.1735573   6.7072725  24.4229054  78.0098486   7.0041877
  25.5663371  77.4113703   6.2133843  40.1568985  69.8990011  19.0905654
  39.7507715  70.7295513  18.8426089  40.7695293  70.1309061  19.7885191
  61.6331186  32.4088595  86.5655039  61.8445339  32.4028322  87.4990453
  62.3923387  32.8183672  86.1506297   2.0179869  30.5236933  69.8226933
   1.8038489  29.7788832  70.3845136   1.2750698  30.5928061  69.2230873
  30.4086280  64.3157911  27.8835869  31.1774731  63.7484694  27.8265762
  30.1326442  64.2539930  28.7980533 108.5976976 100.1184273  41.8592834
 108.3359723  99.5554161  42.5878096 109.0086161 100.8752728  42.2771072
 104.5848901  68.9311743  23.3569145 104.8422061  68.1098747  23.7758303
 103.6810107  68.7848377  23.0779505  33.3784389  88.7712097   9.0830934
  33.4424925  89.4587231   9.7460067  32.4717093  88.4694290   9.1378498
 100.4076790   2.8366579   9.6330786 100.6808637   1.9845880   9.2931014
 101.2087415   3.3605875   9.6379918  95.3551927  14.6312353  81.6899447
  94.5025697  14.6330425  81.2549006  95.4389515  15.5115196  82.0564334
  66.4030527  12.8103841  15.9463632  66.4052676  12.4973024  15.0418150
  66.5299057  12.0213521  16.4732230  37.1322584  70.3246212  37.8665137
  37.0465446  69.6278095  38.5171604  37.9876280  70.1730585  37.4645162
   5.2131188  63.6609459  51.3287640   4.3375531  63.8197470  51.6814661
   5.3954440  62.7460861  51.5432739   3.8745373  48.7134171   4.4952491
   4.2495695  48.3507442   3.6927202   3.0180472  49.0480804   4.2294356
  14.9717152  74.5467472  50.8726454  15.1084518  73.9567518  50.1314020
  14.8664200  75.4109049  50.4746819  12.4059856  64.8803234  24.3764520
  11.6474307  64.9866056  23.8024044  12.4568498  65.7041693  24.8611403
  19.9135745  57.3379469  47.4907827  20.5570698  57.6438904  48.1299591
  20.0264120  57.9204702  46.7396736  23.7984300  78.7606716  48.1192303
  24.0830612  79.5453167  48.5877943  22.8746462  78.6651659  48.3510399
  37.0554018  94.8811531  36.6927028  37.5429368  94.5112133  37.4286938
  36.2387204  94.3823433  36.6714621 105.6393291  91.0969543  44.6292162
 106.2774785  91.6660309  44.1989374 104.9606354  90.9560394  43.9691019
  13.7293422  58.6377144  38.8696051  13.3358145  59.2320681  39.5084405
  13.1507313  58.6867714  38.1086612  35.6788707  80.8888626   3.6761957
  36.0387468  80.1436520   4.1572288  35.6887984  81.6085911   4.3071604
  45.5065207  28.2236303  49.2027950  46.2748121  27.9142869  49.6826553
  44.7659301  27.8029264  49.6395636  96.4471054  91.7107487   8.7475997
  96.0012722  92.2082043   8.0620348  97.0207024  92.3488045   9.1719782
  42.1894121  84.2906284   0.5048886  41.9399118  85.2036095   0.3619043
  42.8178835  84.3242168   1.2260902  21.3014889  62.3959923  55.0101900
  20.8463407  63.1808758  54.7051764  20.8490705  62.1557808  55.8188009
  19.1425931  73.9845037  64.5273256  19.3032920  74.7354031  65.0987816
  18.2161140  73.7804747  64.6547651  37.4940729  77.5517273  41.8742800
  38.3198166  77.0923090  41.7215967  37.6328444  78.0281401  42.6928186
  49.2244339  85.3721714  64.6805716  49.1685963  84.8606491  65.4876995
  48.3194494  85.4383564  64.3758583  45.6911898  96.1715317  19.0693176
  45.9303236  97.0437050  18.7556899  45.8344316  96.2094498  20.0149798
  35.8367348  53.0054188  52.6196909  35.7939506  52.4423742  53.3925962
  36.6067290  53.5549068  52.7659798  73.2612705  87.4348354  12.7109885
  72.9835176  86.5188980  12.6991153  74.2168856  87.3948669  12.7488923
  73.9106194  85.8113321  89.1837001  74.3848172  85.9344967  88.3613877
  73.1063191  85.3581413  88.9308107  49.0025902  84.5219231  37.3527265
  48.1005812  84.8422146  37.3474598  48.9182949  83.5694695  37.3968267
 109.5424415  66.5967798  49.1518450 108.9416794  66.6206694  49.8966599
 109.1687688  65.9405279  48.5636854  34.4966602  88.2473087  44.7077560
  33.8954234  88.9666653  44.5146704  35.3455019  88.6716461  44.8328257
  32.5725269  91.7394066   1.4705819  31.6650343  91.9523525   1.6881661
  32.6625514  90.8139992   1.6980700  69.8751402  80.5839157  15.0316417
  69.8823833  80.5859566  15.9888124  70.3011703  79.7613239  14.7906566
  42.7579584  14.7555706  76.2779789  42.6406994  14.1118166  75.5793636
  43.1745806  15.5024216  75.8480136  38.8081323  18.1929220  25.2251077
  38.8392747  18.7145055  24.4231033  39.7182812  17.9422391  25.3832746
  14.9062479 101.4524555  39.6888328  15.3809261 102.0753098  39.1384101
  15.4656863 101.3367462  40.4568624  34.8147392  91.2778473  28.4991384
  34.6617150  90.4916954  29.0233278  33.9809632  91.7474270  28.5226226
  24.6162438  59.2864227  48.6629295  24.9261975  59.7612810  49.4340801
  25.1542926  58.4951973  48.6365891  75.3451108   0.6595243  35.6083822
  75.2472614   1.3958181  35.0046158  76.0872792   0.9011568  36.1624861
  17.7113450  72.9662180  32.2766733  16.7984939  73.0012131  32.5625229
  17.9623318  72.0492935  32.3884225  93.3542658  89.5218563  31.9350028
  92.9968418  88.6546516  32.1258569  92.7121462  89.9218082  31.3485241
  63.2328892  72.8498602  46.6265821  63.9613342  72.3579216  46.2476397
  63.2199621  73.6729765  46.1381769 102.7759809  37.8069639  48.7901163
 103.6196579  37.5542760  49.1650677 102.9853274  38.0946279  47.9014921
  41.3257599  47.4169540  29.4547963  40.4046345  47.2825384  29.2318845
  41.7296314  47.7097178  28.6378455  70.8953308   6.4706243  51.0662413
  70.1492141   5.9523405  50.7647038  71.5850018   6.2920774  50.4269361
   5.3894138  88.9441776  16.9545221   5.9195590  88.4737110  17.5978279
   5.0923997  89.7282410  17.4163175  13.8249636  74.7368813  43.4148598
  13.6035538  75.5869913  43.7950182  14.6839511  74.8701334  43.0140924
  36.7535710  49.1911650  60.3231621  37.3949218  49.0743160  59.6222687
  37.2664452  49.1329718  61.1292648  30.6950259  61.6389608  21.8980098
  30.0437045  60.9632635  22.0862722  31.4278722  61.4335918  22.4785185
 104.2686151  67.9815245  34.0497255 104.9534995  68.4404039  34.5361376
 103.6384274  67.7135563  34.7185230   4.7470576  72.2929287  37.8924131
   4.8185864  72.7146482  38.7487221   5.5993676  71.8786860  37.7574968
  15.2764142  58.1508875  35.5828261  15.9742475  58.1909752  34.9288726
  15.7006168  57.7966404  36.3643575  11.2613928  61.5972948  30.0218296
  10.4927993  61.4478731  30.5724382  12.0038414  61.5210867  30.6211567
  26.3260579  99.5395279  13.3636367  26.7788363  98.9487648  12.7617908
  25.5538392  99.8301125  12.8783810  16.3472450  75.2915764  42.7267313
  16.8544316  74.6901751  43.2719898  16.6267896  75.0974178  41.8320894
  47.2895716  24.1313089  16.3195610  46.7411445  24.9047388  16.4509737
  47.7772664  24.3170465  15.5171347  15.1787782  86.8151665  19.0010238
  15.3707969  86.3978481  18.1612587  15.7231045  87.6025009  19.0072262
   1.4170012  70.6272984  29.5544314   1.1173126  70.4322910  28.6665177
   1.6470522  69.7741127  29.9223709 109.0439763  52.4248838  15.4134989
 109.1400285  53.2223082  15.9341860 108.7081872  51.7748356  16.0306811
  17.1375215  83.7203312  74.9740982  17.5170505  82.9356480  74.5785284
  16.1943936  83.6223221  74.8431873   2.4132125  92.8385258  57.3407412
   2.0185316  92.1826649  57.9154634   1.7158307  93.0703068  56.7274141
  38.6407685  32.8095293  13.9107561  39.5791030  32.8842711  13.7370467
  38.2638097  33.6060667  13.5370469  29.7977686  99.9086285   4.0129471
  30.0373864 100.3994751   3.2268929  28.8421512  99.8618031   3.9840621
  29.6089053  76.7612934  30.7561970  30.3262877  76.7551565  30.1225114
  29.6862698  75.9240580  31.2136769  48.4943533  70.5292416  53.1843042
  49.2887878  70.2713346  52.7167606  48.4158516  71.4694214  53.0226564
  12.1718931  65.7175732  19.6709239  12.5343084  66.3134050  20.3265667
  12.0186543  66.2697124  18.9041841  10.4828238 101.3845158   4.3829969
  10.2031898 100.8536911   3.6371684   9.8366356 101.1993504   5.0644541
  11.7899895  61.9534731   5.2601933  11.3660884  61.2256718   5.7149988
  11.1310256  62.2643709   4.6394345   4.5105690  85.6291294  69.6632147
   4.0929130  85.6790543  70.5230379   5.1288188  86.3598251  69.6544600
  97.4535252  58.9624453  64.1340303  98.0067075  58.8916492  64.9119806
  98.0305470  58.7267685  63.4075785  10.6187165  69.4783354  44.0786362
  10.4073155  68.5781050  44.3258762   9.8287857  69.7989702  43.6433935
  51.3819027  31.1424327  32.0581412  50.7771969  31.2573290  32.7911949
  51.6237164  30.2168274  32.0899463 101.5778716  52.5384855   4.0151331
 102.0525969  51.7460775   3.7642205 101.6252263  52.5534916   4.9710435
  96.8286108   9.5270551  15.1677620  97.7716516   9.3988050  15.2700377
  96.4856218   9.5050157  16.0611272  60.0379467  37.9263663  42.2680664
  60.7344627  37.9054785  42.9243183  60.2144194  37.1709085  41.7073774
  81.6894722  87.4135780  11.0225308  82.3313522  87.1010113  11.6601288
  81.0091877  87.8298092  11.5518594  19.8651016  79.6353674  23.2786131
  20.1615238  79.4719744  24.1739726  20.6019592  79.3671656  22.7296662
  20.9958935  69.4431973  40.1622391  20.7678604  69.2597723  39.2508721
  21.5306878  68.6959791  40.4303741  84.8927201  79.8382330  25.8564258
  85.5287803  79.1321659  25.7418489  84.5040239  79.9534893  24.9893260
  99.3279267  93.0451298  55.5863667  98.3789219  92.9465961  55.6632614
  99.6850331  92.2682381  56.0166597  99.2967286  34.4143698  83.0244725
  99.3397822  34.8191282  82.1581333  99.5096555  35.1235697  83.6310361
 104.0677447  44.9502945  11.6661084 103.5036684  44.1850471  11.7776704
 104.8539035  44.7441101  12.1717501  20.6816578  97.0529556  34.3504167
  19.7679222  97.2768879  34.5269895  21.1863184  97.6784039  34.8703861
  40.0934362  67.6286268  55.6282616  40.6082726  66.9092369  55.9938574
  39.6470094  67.2443819  54.8737478  59.9589729 100.8311558  74.0230703
  60.9078741 100.9098816  74.1211748  59.6545744 101.7313385  73.9080238
  17.4661613  52.5169373  35.2850389  17.7103198  52.6892900  34.3756938
  17.8553569  51.6644573  35.4800797 109.3336891  30.1610864  38.9329934
 108.6289428  30.2956499  38.2993865 109.7407936  29.3366445  38.6669254
  12.3733747  49.4749546  40.7229328  11.9359219  50.0422907  40.0881147
  11.6758513  48.9157772  41.0650063  33.5245442  47.3408127  17.2883856
  33.9945936  46.8828011  17.9851711  33.0756569  48.0590677  17.7343011
  34.2974734  58.9373016  41.1799955  34.0477490  58.1150675  41.6016531
  34.8414183  59.3836975  41.8289042  28.1589389  45.2549982  32.1324372
  27.4590015  45.8749485  31.9275403  27.8739190  44.8309088  32.9418468
 107.6435780  41.9289637  33.5557818 106.7044367  42.1030998  33.6184049
 107.7564029  41.5313625  32.6924062  75.7026043  14.7615931  82.6501595
  76.1287736  15.5592606  82.3365741  75.1277902  14.4986937  81.9313370
  42.3355865  78.1044436  24.1658592  41.5127945  78.2779789  23.7085533
  42.7022648  78.9719725  24.3366599  22.9845500  76.0515547  40.4020548
  22.9131365  76.5993977  41.1837196  23.7405586  76.4028215  39.9316335
  50.0598717  39.1299105  18.9862287  49.8231077  39.9658108  19.3880320
  50.7365417  38.7712860  19.5604551  19.9935055  44.6529913   5.7928908
  19.9726260  44.0490246   6.5352005  20.4090977  45.4429770   6.1384869
  82.8870891  35.9012998  24.0452814  82.6858734  35.5167211  24.8984194
  82.2188352  36.5756143  23.9229131  91.0072722  41.9368002  83.4046124
  91.3251092  42.5539610  82.7455776  91.4442661  41.1123488  83.1911771
  37.6941633  45.0666189  12.1402740  37.0113921  44.3962288  12.1151185
  37.7044153  45.3640223  13.0500424  21.0690689  99.6762085  12.4478030
  20.1445961  99.9195480  12.4964821  21.4029384  99.8255157  13.3323765
   9.4276739  10.3252718  68.2945149   8.8043905  10.2851030  67.5691597
   8.9559199   9.9476454  69.0368621  19.5464289  54.9244833   8.3310497
  19.9245441  55.7929468   8.4690309  20.0131702  54.3594599   8.9467841
  16.5993845  87.9985714  22.2129035  16.8380189  87.8912926  23.1336522
  15.8400273  87.4280262  22.0942378  51.1362424  10.1324675  87.1617867
  50.1873841  10.0082609  87.1399857  51.3117089  10.4846642  88.0343691
  32.8966689  73.9352942  55.5426741  32.6277113  73.0182552  55.5968237
  33.8327599  73.8991404  55.3460598  25.7235432  44.0050793   2.5020829
  25.1731753  43.7681675   3.2485425  25.3728151  43.4925604   1.7736968
  28.5068870  54.4764185   7.7889746  27.7839828  54.8946953   7.3213351
  29.1821480  55.1528835   7.8404230  13.7125683  36.2520409  33.5312486
  13.0827093  35.8979607  34.1590524  13.1840825  36.7826819  32.9351330
   6.2229389  76.2044430  33.3683133   6.7598653  75.4123306  33.3458686
   5.6112117  76.0587692  34.0899801  38.5949874  50.7700968  22.2621298
  39.1245103  50.1427460  21.7699242  39.0443254  51.6070557  22.1445560
   0.1300742 100.3384590  35.1010084  -0.2983209  99.5167637  34.8611856
   0.3692252 100.7370090  34.2642307  66.4584802  18.0703653  52.5774908
  66.2878989  17.1605218  52.8210306  65.7352327  18.5620798  52.9665470
  53.8988352  70.4690981  17.0593309  54.0979767  71.4053440  17.0556498
  54.1960335  70.1576471  16.2044013  19.0571129  60.9285450  23.3371091
  19.9212861  60.6119108  23.0740976  18.7534606  61.4443350  22.5901222
   8.1969053  38.7578392  16.6263270   8.3987796  37.8300858  16.7477751
   7.3784989  38.7618899  16.1299133  34.3237329  76.0539389  49.7881460
  34.4452477  76.4880943  48.9437675  35.0438428  76.3772869  50.3295517
  35.9064317  85.0958347  30.9311438  35.0889015  85.5818748  30.8232689
  36.4708662  85.4174995  30.2281666  34.0637207  62.9728842  41.1392546
  34.3037295  62.7206516  42.0308876  34.6512103  62.4644518  40.5801630
  36.7994523  65.2483320  61.9561529  37.2582412  64.7900820  61.2520552
  36.0567117  64.6822596  62.1662140  23.1911206  86.5871143  56.4901161
  23.9560366  87.1542835  56.3928986  23.4829450  85.7341671  56.1683130
  74.9694670  80.7264328  41.9200087  74.3955315  81.2501240  41.3609123
  75.8301629  80.7899475  41.5060043  37.8745937  69.8860836  58.2329082
  38.6622763  69.9277258  57.6906395  37.4681568  69.0510082  58.0011892
  46.5602707  18.0428899  34.6418643  46.0426580  17.2934068  34.3476009
  47.4179147  17.6737321  34.8525834  24.1329312  79.3461370  29.3054318
  23.7512469  79.6562290  28.4842181  24.2740464  78.4098005  29.1654539
  36.8855047  77.6639462  67.2521925  36.1300349  77.9670191  67.7558231
  36.5890527  76.8520641  66.8408537  47.6505375  91.0797501  43.7448454
  48.3526182  91.1144829  44.3945456  46.8982077  91.4767361  44.1837406
   9.8792422  71.3890505  20.9330535   9.2445213  71.7486572  20.3133416
  10.7315826  71.5891409  20.5461264  43.0248070  57.5285959  13.8893366
  43.6733198  57.3406172  14.5678091  43.5150862  57.4780416  13.0687881
  46.6587114  86.7298317  16.6118872  46.4884329  86.3957500  17.4925864
  46.3139105  86.0538292  16.0284781  68.0853890  11.7045892  32.1640325
  67.5224184  11.4711774  32.9021478  68.9321517  11.9052614  32.5627279
  21.9242883  35.7588506  40.5874538  22.1343279  35.5428815  39.6788979
  21.9456124  34.9181199  41.0445642  21.5545487  87.4853611  35.7652569
  20.8396530  87.8846359  36.2609744  22.3079848  87.5292110  36.3540196
   2.2763571  71.6610479  54.6685410   1.5704800  71.3487005  55.2345848
   2.7685279  72.2735214  55.2152348  28.5889435  84.3180466  35.7345414
  29.1989303  84.9990845  35.4511070  27.8267980  84.7985649  36.0577631
  16.2198508  72.9331160   4.8055404  15.8015549  73.7340355   4.4896463
  15.5116975  72.4407530   5.2206707  56.2798548  76.6688967  21.4275265
  55.8493280  75.8282661  21.5831423  56.8273354  76.5185738  20.6568766
  52.0553398  81.0181618  23.7301326  51.4066601  80.5574226  23.1979966
  52.8941774  80.8097649  23.3188415  65.0751543  69.4447708  30.4285502
  64.2887020  69.2326736  29.9258161  64.9806023  70.3733540  30.6407380
  21.8076397  53.0392000  78.9005642  21.7508484  53.5984156  79.6753387
  22.7224661  52.7587912  78.8741104  81.5720009  10.4474176  35.7033205
  81.8960117  10.2897657  34.8165321  81.5358375   9.5784582  36.1031175
  18.1181800  68.1331301  34.1565061  18.8062429  67.5386190  33.8575864
  17.3290110  67.5920773  34.1830254  35.8476377  63.0588818  33.8305545
  35.0166559  62.7295685  34.1729760  36.4604449  62.3334026  33.9504719
  36.6980886  55.3146744  26.2870860  36.6511011  56.1947536  26.6605687
  35.7994008  55.1185846  26.0222411  70.4499696  11.6667284  33.5104156
  70.2803849  11.1007417  34.2634988  71.1881922  11.2540925  33.0621004
  30.0037479  78.4539700  33.1927824  29.9640083  78.2288885  32.2632718
  29.1566396  78.1777239  33.5425377  62.3031187  93.7056732  49.3698263
  61.5867424  93.5630512  48.7512016  61.9895267  94.4059277  49.9421263
  69.6317625  87.3025990  31.3903761  70.3635836  87.9080105  31.2714362
  70.0106573  86.4364529  31.2404943  31.4551520  77.0780754  56.2255669
  30.8613348  77.5033140  56.8442583  31.2806153  76.1427689  56.3303375
  59.6782827  63.4931803  28.4858918  59.5123577  64.4146013  28.6851048
  59.0940142  63.2975245  27.7533770  34.2124867  89.7758198  30.5716538
  34.4395757  88.8817692  30.3160334  34.6205926  89.8905277  31.4298630
  21.5620685  79.4881392  54.9900055  21.7963982  78.6288452  55.3406334
  20.8452463  79.3109274  54.3809175  57.2418499  94.9480724  22.6763415
  57.1614790  94.8440647  23.6244726  57.7070570  95.7771683  22.5649285
  50.3361273  79.8321295  26.0140514  50.9151602  80.3677082  25.4717326
  49.4543123  80.0567150  25.7170749  40.3112078  87.0839500  32.8047705
  40.7767725  87.4579906  33.5528159  40.2466869  87.8046227  32.1781015
  53.1341934  96.5614319  45.5694389  52.4776983  97.2364235  45.7415819
  52.9268312  96.2442684  44.6904421  27.8714705  88.7634087  39.4006848
  28.1920385  89.4486332  38.8142252  27.0619154  89.1202736  39.7660589
  74.9165295   5.5516733  38.0453539  74.4607066   6.3660444  37.8325915
  74.2290138   4.9701513  38.3699799  82.7574444  74.0586138  16.9275820
  82.9098701  74.5132303  16.0991359  81.8201160  73.8645840  16.9253862
  53.4001684  90.9424496   7.8771728  53.7748289  91.4700603   7.1718472
  53.0773783  90.1539516   7.4409240  66.6557287  12.0841325   7.3021239
  66.5525006  12.0619119   6.3507658  66.7718552  11.1674226   7.5519174
  42.5979233  57.4161577  23.2688856  43.2847595  58.0376005  23.0274439
  42.1131325  57.8546953  23.9680934  40.3481960  96.4237309  14.1357744
  40.6795645  95.8947182  14.8614299  40.8696318  96.1490917  13.3815122
  23.0680776  99.1340160  17.3463619  22.9277968  98.3540630  17.8832304
  23.1243968  98.8012600  16.4506292  39.7157741  87.2393322  54.4856548
  39.3595886  88.0286884  54.8934364  38.9620924  86.6565323  54.3932629
  31.7263150  86.2509155  22.9379725  30.8355904  86.1410904  22.6051402
  31.6879463  87.0480824  23.4664369 108.2299499  75.2519321  29.3369985
 108.2620374  75.4613543  28.4035397 108.8883932  74.5666790  29.4515014
  42.1664810  88.8412380  25.7123971  43.1082487  88.7340450  25.8458734
  41.7676401  88.1795979  26.2775397  29.4402480  93.8182259  41.4296961
  29.8051786  94.5244312  41.9629192  30.1479864  93.5800076  40.8308697
  33.9131331  82.0566654  26.9256091  34.2376757  81.3048649  27.4212909
  34.1674781  81.8749046  26.0208964  46.0564184  81.3677692   0.3451857
  46.3585901  80.9200191  -0.4450308  46.4275360  80.8585644   1.0657487
  58.7784529  86.7607975  38.1748176  59.5465708  87.3298645  38.2237315
  59.0538454  85.9495068  38.6016703  76.8080400   1.4021409  41.7677593
  77.4577974   1.1113656  41.1278391  77.2552561   2.0826448  42.2708988
  30.1699901  63.4144926   4.3351701  30.5883718  63.5123873   5.1905096
  29.2324138  63.4723139   4.5191243  49.7051048 102.7686214  12.8658652
  50.3786564 102.1294117  12.6335359  49.1569042 102.8338432  12.0839107
  76.3011979  32.0279897  21.5877461  75.4391502  32.4390138  21.6522598
  76.6612791  32.3548139  20.7632732  47.3388910  93.3854580  32.8845000
  47.4964571  93.9928818  33.6072946  47.5912285  92.5297642  33.2314205
  58.5782670  13.7318529   1.0296339  59.2693805  13.4458841   1.6269761
  57.8772615  13.0913175   1.1502432  21.1127090  78.0609322  30.1191545
  21.2685537  78.9765072  29.8874903  21.7073941  77.8943491  30.8504748
  65.6776379   3.9081205  17.9188395  64.9598287   3.5209859  17.4177337
  66.3766431   4.0346921  17.2772753  37.5362301  86.0935307  45.6402349
  38.4542656  86.2400723  45.4122782  37.1403956  85.7577705  44.8359823
  42.4240208  66.8358850  13.8696551  41.6191721  66.9837379  13.3730745
  42.4815416  67.5860262  14.4614446  46.5651035  71.1781693  27.5747395
  45.8053589  71.7016077  27.8297615  47.2593164  71.8202066  27.4261165
  34.2930508  85.5178356  17.4021137  33.6650658  85.8269310  16.7491794
  33.7529182  85.2468395  18.1444430  35.0303102  64.9684906   0.4885674
  34.9465346  64.0397692   0.2724970  35.9650040  65.0926971   0.6533509
  29.3959093  69.4245863   2.0837979  28.5934591  69.9339437   1.9704019
  29.8125172  69.8031712   2.8579715 103.1630491  13.0208696  33.9050603
 102.3976969  12.6569570  33.4600568 103.1065773  12.6786722  34.7972155
  99.8342539  70.3269815  17.6445949 100.0672741  70.9710550  16.9759381
  98.9341487  70.5464411  17.8851759  50.3770447  95.6385899  36.3960314
  49.9224377  95.0830078  37.0291901  51.2719393  95.2993298  36.3787723
  27.1388578  65.6034088   6.2575191  26.7481709  66.3225746   5.7611370
  27.5218415  66.0240269   7.0273477  45.8807373  67.7757549  14.0547121
  46.7266273  67.9007244  13.6244965  45.5344105  66.9694281  13.6724448
   7.1067381  82.3425770  22.1037197   7.3186255  82.8318977  21.3087988
   7.4052089  81.4512348  21.9230103  86.5328621   1.1439908  41.7035294
  87.2128795   1.5291799  41.1508656  86.8779920   1.2162984  42.5934124
  39.7037196  76.5200663  46.3282394  39.1001725  76.5776825  47.0689440
  40.5701923  76.4552212  46.7297983  34.8507261  82.8481483  23.0371523
  35.7349491  82.5252247  23.2106590  34.8247719  83.7101746  23.4524393
  57.2280359  78.2780886  28.6157703  57.4045229  79.2188740  28.6175966
  56.6480112  78.1446648  27.8661036  54.9797678  82.8736210  18.4429502
  55.4709339  83.5359097  17.9567790  55.5884171  82.5706959  19.1167545
  31.1148716  61.3474199  80.5913858  31.9578482  61.0048315  80.2942984
  30.9232069  60.8536074  81.3886623  67.8900789  21.8495286  46.8404579
  67.9565238  20.9056104  46.9847965  67.0280741  22.0842756  47.1840763
  77.7260469   1.8034471  31.8374205  78.0616878   0.9233201  32.0076036
  77.2948145   1.7347730  30.9856248  27.5258708  55.1295614  24.4895411
  28.0115581  55.7034922  23.8971400  28.2027030  54.6430540  24.9601150
  24.9055386  77.8059959  15.4002404  24.9692869  77.8996134  16.3507164
  24.4337058  78.5879660  15.1136625   6.8470985  88.5980034  21.8635893
   7.6323295  89.0635204  22.1515751   6.1322874  89.2155266  22.0183253
  22.4554157  91.5601444  17.7792931  21.5479398  91.4944744  18.0766213
  22.3879337  91.7282772  16.8393946  31.7292285  92.3400021  12.6819980
  31.2959933  91.6864491  13.2309985  32.5219417  92.5717735  13.1658626
  32.4482489  90.5593395  44.7998428  31.9816566  91.3801098  44.9575233
  32.6531029  90.5760765  43.8649702  73.6140728  84.3780136  42.6260805
  73.8022757  84.4864559  43.5583115  72.6826000  84.5827579  42.5443888
  31.8375564  68.0110312  30.7190728  32.3332334  67.4068499  30.1663518
  32.3049593  68.0097771  31.5543962  50.1795340 102.0465660  61.2696648
  50.2880716 102.7735519  60.6565332  49.9905014 102.4669552  62.1085787
  70.5969476   1.5567125  19.4764507  70.2535509   2.4500860  19.4905531
  71.4655184   1.6401685  19.0829396  11.9185030  56.2951183  51.0137987
  10.9904909  56.4208364  51.2118435  11.9272780  55.6496096  50.3070641
  16.2927377  90.1793194   8.3147854  17.2272706  90.1389790   8.1116796
  16.1716688  89.5370197   9.0140903  19.0546703  94.4823170  39.8385453
  18.6360574  94.2556000  40.6689644  19.1012001  93.6546612  39.3599558
  40.1532650  64.6248484  43.9634323  39.5466542  64.0071249  44.3716812
  40.9835529  64.4806385  44.4173670  36.9887337  23.7590898  38.7316585
  37.8125729  24.2434419  38.7857056  37.0838602  23.0526746  39.3705297
  82.1408008   1.8378366  44.6047592  81.7155765   1.0320009  44.8980951
  82.9064058   1.5395940  44.1137028  24.2942643  81.7751217  51.8201494
  23.3407903  81.7533779  51.7386389  24.4577694  81.6467285  52.7544975
  33.7227869  60.2931786  64.0172577  33.3478856  60.9244108  63.4030724
  33.5638499  60.6753588  64.8803377  58.1157206  17.5504030   4.6382675
  57.7132581  17.6920236   5.4951221  57.3779200  17.5198759   4.0292105
 104.8163977  42.2541830  85.6991737 104.8671498  42.5830862  86.5966581
 105.7282438  42.1165964  85.4425834  90.1156067   5.0962747  19.3771708
  89.3398689   4.8447240  18.8759851  90.3436683   5.9648050  19.0456963
  26.7174006  61.1671543  14.6836078  25.8870268  60.7357788  14.4820404
  27.0986056  60.6375790  15.3839386  46.6779900  89.9186707  48.5525942
  46.9180393  89.0990257  48.9847898  47.5040770  90.2594090  48.2095098
  29.5117831  64.3307924  56.0748053  30.1621413  63.9463711  56.6625834
  29.9114895  64.2761660  55.2067709  84.1118644   2.6368726  29.1837692
  83.5707735   1.9347871  28.8224983  83.5069345   3.1579317  29.7117758
  45.5444860  71.5168476  55.4380846  46.1536217  72.0684433  54.9472427
  44.6817541  71.7470789  55.0932312  74.8655318  27.5090707  15.2791679
  75.7647012  27.7044786  15.0154579  74.5398067  28.3306898  15.6467128
  27.3010874  73.0020952  37.0549726  27.6423764  73.6729431  36.4636040
  26.4266419  73.3124447  37.2900534  94.7631873  65.4908037  23.9194393
  95.4794706  65.0571442  23.4556413  94.6784152  65.0031900  24.7387576
  88.4763168   3.7690557  21.7579889  88.8766598   3.0291761  21.3013220
  87.6676773   3.9394868  21.2749839  32.2949910  86.0736656   7.9434943
  32.5122142  85.1439571   8.0118930  31.9433713  86.3014221   8.8041461
  31.4244604  91.5057945  62.8196764  30.7975364  90.8448792  62.5257635
  31.0555220  92.3363209  62.5190926  67.1024799  70.8214140  35.5942369
  66.2866592  71.1731482  35.2379274  67.2642517  71.3419199  36.3810873
   4.7258021  58.6988756  84.3262597   4.9629904  58.7012503  85.2536048
   5.3677918  59.2764494  83.9133559  57.9275131  71.8494749  50.7324553
  58.1474781  71.9013071  51.6625977  57.0509529  72.2292519  50.6721067
  33.6189699  54.5004129  16.4103651  32.9653788  54.8269749  15.7919717
  33.9403963  55.2845192  16.8554473   4.2315313  55.7918644  24.1742539
   3.6098814  56.1185455  24.8246861   5.0917625  55.9874725  24.5457006
  46.3291836  82.3923492  19.0675879  47.1764803  82.1313477  18.7067580
  45.9523582  81.5799999  19.4057024  60.1786748  90.3731187  86.1160518
  60.8335892  90.6726583  85.4855032  59.3817774  90.8463129  85.8767374
  35.8655357  76.2958956  27.2200370  36.1140943  75.7381725  27.9571915
  34.9802542  76.0117292  26.9925380  58.8853741  96.5635586  17.8591704
  58.6386824  95.6416225  17.7856064  59.2117262  96.6534615  18.7545168
  59.5128298  72.9842281  45.2532864  59.0781879  73.7957382  44.9910593
  59.7373009  73.1194305  46.1739159  24.5390415  58.9406538  26.6260314
  24.6407986  59.7871685  26.1909580  25.2452350  58.4017229  26.2695575
  95.2783512  10.9019006  21.7795777  94.9325346  10.3834070  22.5060773
  94.5463203  10.9740938  21.1670828  71.7223501  96.0439491  37.3679090
  71.5156078  96.9204044  37.6924324  72.3580837  96.1915874  36.6677141
   2.9706535   7.8831209  38.2299662   3.1449947   7.9772485  37.2934961
   3.0985842   6.9507802  38.4048867  20.5404305  82.0307541  21.5108728
  21.2268353  81.4145088  21.7664671  19.8542440  81.9107533  22.1673656
  34.0103602  97.8134441   9.6658516  34.8363447  98.2431507   9.4437492
  34.2543173  96.9064808   9.8506051  27.7446222  70.5971289  35.7361698
  27.6638317  71.3454628  36.3275266  27.3344755  69.8728991  36.2089252
   8.1724524  91.8591881  34.0318274   8.3395463  91.3856506  33.2169199
   7.3802209  91.4549255  34.3856287  40.0349522  89.1812897  14.2176616
  40.8368492  89.3386459  14.7160959  39.5875931  88.4842396  14.6974778
  40.3168917  83.4875870  11.2534678  39.8470807  83.3645535  10.4286230
  40.5655193  82.6030254  11.5217435  48.0839682  83.9711380  26.2704849
  47.4686193  83.5418606  26.8648744  48.9460421  83.7836266  26.6418314
  21.7347312  77.6398277  32.9231620  22.2671723  77.8210545  33.6976886
  21.7245722  76.6849279  32.8575778  69.1831303  65.8469009  34.6217179
  69.4746494  66.4207602  33.9132428  68.6915064  66.4215565  35.2084923
 106.5528409  74.9620342  18.3874261 105.7238988  74.9035120  17.9123867
 106.5355171  75.8286572  18.7935042  58.6858463  93.2973289  20.7681251
  58.0057526  93.2547665  21.4403510  59.5041561  93.3690929  21.2595105
  62.7029419  79.5779228  42.2968006  62.4727249  80.4258728  42.6765490
  63.3440781  79.2094326  42.9045725  35.7072234  95.3003979  40.3750372
  35.1733828  94.6322250  40.8048964  35.5082631  95.2033710  39.4437838
  47.6836252  74.1022730  17.8260231  47.6397896  73.1966209  18.1327856
  47.5169706  74.6283913  18.6081088  35.5519414  68.1586838  29.4467974
  36.0709047  67.4020338  29.7195411  34.8699713  67.7912569  28.8845301
  95.3202556   7.6525701  30.2125120  95.5316662   7.3843111  29.3183231
  95.1342415   8.5890211  30.1439834  -0.1281069  49.7344351  32.5766373
  -0.4848807  50.1193190  31.7761350   0.8048134  49.9469185  32.5494075
  50.8109093  90.7768631  30.0005078  51.2776327  90.3190136  30.6996322
  50.6811285  91.6626358  30.3393054  63.2802795  19.6882928  16.5897524
  63.3935927  20.1645196  17.4123144  64.1662191  19.6055139  16.2369215
  40.2710390  98.3506966  23.0514860  39.3572998  98.6135197  22.9408550
  40.5987835  98.9132214  23.7531853  16.6752923  95.2002716  29.0327525
  16.0360825  95.4361439  28.3604383  16.1661530  95.1553631  29.8420691
  60.9059000  55.6286621  14.5518696  61.3161182  54.8309278  14.2178416
  61.0084009  55.5709982  15.5018175   2.3625256  28.7547133  85.5993749
   2.9891564  29.4326899  85.8522003   2.7286316  27.9452774  85.9557621
  63.5013676  72.8238678  22.3985291  62.8125048  73.4287310  22.6739240
  63.5664511  72.9499626  21.4519048  27.0136118  89.0661240  42.4670506
  27.8489637  89.2020130  42.0198917  27.2498202  88.9588928  43.3884287
  34.7140884  84.1951561  37.0972419  35.5513358  84.6350670  36.9498444
  34.5109630  84.3685722  38.0164242  75.6111336  75.8368206  38.3634853
  75.5970144  74.9355650  38.6856198  76.4211082  75.8974934  37.8570366
  39.6930742  97.4661922  32.7711344  39.2592049  98.2908630  32.5522399
  39.8598814  97.0513058  31.9248056 105.7699966  90.9912682   5.4608518
 105.3175735  90.8134842   4.6362662 105.1311016  90.7676411   6.1376357
  45.9952164  98.4077930  62.7598810  45.9944582  97.9562378  61.9158840
  45.4506874  97.8598881  63.3251429  48.1343089  13.8112462  41.3318777
  47.5200402  13.8495553  40.5987787  47.7995967  14.4526781  41.9585800
  42.7417326 102.4109459  17.6916718  41.8524075 102.5541210  17.3678839
  43.2917404 102.4575138  16.9096541  51.4856815  64.6185589   5.6665176
  52.2625160  65.0162506   6.0597062  50.7814932  65.2421379   5.8439928
  62.6132679  83.9687729   8.5497832  61.7181730  84.1458416   8.8390636
  62.6663065  84.3638611   7.6795393  55.5317842  21.3110174  45.8962107
  56.0989820  20.8317483  45.2922106  55.0114893  21.8837465  45.3327322
  51.2447356  12.3264516  27.0269442  51.5197693  11.4643968  26.7147660
  50.3930591  12.4700941  26.6143346  70.1390696  82.5129128  46.9704008
  70.0191975  82.0282459  47.7870798  70.6984615  81.9484711  46.4368153
  54.5049286  96.7996502  50.3505468  53.5531139  96.7773247  50.4494429
  54.6464396  96.8470573  49.4050550  60.3169346  84.9284744  32.7325153
  60.1758480  85.0517082  31.7938256  60.9458828  85.6092739  32.9715991
  24.1325927  95.6447220  37.4012351  23.6204028  95.3994656  36.6306877
  23.4829021  95.9557533  38.0316210  54.9442101  87.0954323  17.5444603
  54.0810776  86.8696117  17.8912246  55.0414371  88.0287933  17.7331674
  51.4770746  76.9489336  26.0998607  51.2158012  77.8684902  26.0509801
  52.4265528  76.9756842  26.2182069  59.8770428  83.6154079  54.9955797
  59.4555426  83.7360573  55.8464670  59.2546272  83.9796448  54.3661690
  85.3820038  86.7172813  25.1185346  84.5992947  87.2036552  24.8596191
  86.0960579  87.1419334  24.6431112  98.6560811  81.6347980  28.3386612
  98.4670855  81.8108559  29.2603517  99.5329244  81.2509251  28.3430481
  88.5979961  15.0780691  30.8100128  88.0136894  14.8126234  31.5201902
  89.0745090  15.8306039  31.1605287  79.7081398   2.5751604  22.7817893
  79.9023365   2.3892416  21.8631220  79.2903255   3.4362615  22.7687550
  46.0950422  41.3313246  30.6454468  45.2339888  41.6673660  30.3966475
  46.2362051  40.5821991  30.0665569  22.2517037  89.9977016  34.4599652
  22.5299072  90.3981400  35.2836657  22.0353127  89.0950203  34.6935582
  60.9595156  59.1088247  28.2026768  60.9165192  58.4026718  27.5579047
  60.2665472  58.9028358  28.8300514  71.6199349   4.8041166   2.6372299
  71.5489196   3.9059843   2.3138928  70.7186888   5.1263727   2.6490858
  60.9854673   7.6522268  38.1516981  60.0930809   7.8621210  37.8763366
  61.5411686   8.2143415  37.6118255  45.6618834  92.5573921  28.4162188
  44.9559069  92.9319096  27.8893733  46.4456081  92.6642990  27.8771687
  44.9988556  73.3525658  35.3145504  45.1071167  74.2726040  35.0736308
  44.1738129  73.0930710  34.9044394  57.2053003  77.1667337  61.3346672
  57.4078417  76.4531946  61.9397068  56.9778490  77.9039240  61.9012737
  76.3447618  89.9874973  37.4690127  75.7100248  89.4220448  37.0290089
  77.1240854  89.4406986  37.5685263  86.0826133   2.8234018  68.6823606
  85.1509308   2.9669870  68.5162830  86.2532209   3.2839979  69.5039272
  17.8799210   8.0772413  23.2095098  16.9588242   8.2274545  23.4222603
  18.0524788   7.1846975  23.5091996  31.9366837  42.3732233  34.6593785
  32.8435898  42.5783205  34.8867273  31.4225817  43.0624342  35.0799870
  46.6224194  71.0204268  22.3909664  47.3457336  70.8566999  21.7857862
  46.9157314  70.6460428  23.2216501  35.6901455 102.5823307  10.5528235
  35.2042484 102.0219421  11.1578870  35.4980445 103.4733963  10.8449268
  38.5944557  84.3498898  28.5328531  39.3539286  84.3625641  29.1153240
  37.9591250  83.7905979  28.9798164  61.6659737  72.6951551  24.9301028
  61.7398691  71.7410660  24.9521399  61.1680126  72.9150629  25.7174444
  50.9540367  87.1977425  19.2176592  50.3938103  87.7197647  19.7920036
  51.0994244  86.3838577  19.7000396  97.0192733  12.7401135  79.5990466
  96.3035073  13.2638142  79.2389886  97.3556366  12.2474167  78.8504879
  52.7953480   0.2985967  38.0390954  53.2848989   0.9263814  37.5076199
  53.2990276   0.2270616  38.8499117  68.8555193  77.4733210  27.4885583
  69.1441345  78.3679390  27.6690817  69.5658731  77.0919991  26.9725919
  36.6552782  46.0042953  30.9638858  36.0303926  46.7284775  30.9277248
  36.6094613  45.6933260  31.8680048  28.8843989  79.8402977  43.6373854
  29.3980026  79.0354109  43.7051964  29.0942097  80.1859188  42.7697706
  74.4357729  59.8845434  35.2212906  75.0920916  59.5497274  35.8323359
  74.0547752  59.1005659  34.8257518  20.0088787  53.5355854   5.8133930
  19.8673677  54.2580891   6.4251059  20.2455115  52.7935314   6.3698035
  23.9162803  85.1808739  21.2995458  23.3692837  85.2193356  20.5149770
  24.5421457  85.8968639  21.1905074  43.4212065  74.0438032  37.7547574
  43.5365200  73.7354422  38.6535597  44.2907572  74.3451548  37.4915075
  25.5520582  80.6757736   0.2706897  25.3869700  80.0535965   0.9791173
  24.6907449  80.8317375  -0.1166654  66.5213680  91.6681862  38.9610267
  66.9114447  90.7941628  38.9487958  65.6074476  91.5260601  38.7144828
  64.6124077  83.1475449   3.8770166  65.2997637  82.5588608   4.1888365
  64.4177532  82.8406525   2.9914901  61.1631012  76.2641478  36.5968943
  60.2415419  76.0245514  36.6946268  61.1453724  77.0966482  36.1248136
  64.5269156  77.0571184   8.2256651  65.1395607  77.7398252   8.4991759
  63.7837982  77.1492910   8.8219136  77.2430944  71.9461155  14.5580292
  77.7254009  72.7721071  14.5213401  76.3639545  72.1682835  14.2514539
   1.8797646   5.2482427   7.7727991   2.4741087   5.1312364   7.0316529
   2.2381172   5.9956659   8.2515126  21.1296488  52.6913282  87.8341001
  21.4739777  51.8015501  87.9113175  20.2011801  52.5723288  87.6340592
  38.9855957  81.8911648  15.0322986  39.4226098  82.7404976  15.0945425
  38.9112210  81.7284107  14.0919733  91.9311403   0.3843988  77.2175980
  92.7319883   0.8518518  76.9801998  91.2973903   0.6391252  76.5469980
  59.1727638  37.9989457   3.0582801  59.0113211  37.1761513   2.5965708
  59.9688530  38.3468461   2.6564869  72.6661061   8.0704988  10.0827563
  72.0589970   8.0148424  10.8206952  72.5145243   7.2660173   9.5867044
  47.7442884  97.7437592  14.8957157  48.5816097  98.1944942  15.0050807
  47.6356983  97.2409725  15.7029653  47.1851683  89.6342468  37.7501345
  46.8712854  90.1842690  38.4678984  46.5326691  88.9374924  37.6793075
  66.0962747   8.6509717  38.9888930  66.1588668   8.8930524  39.9128580
  66.8958520   8.1536592  38.8168979  45.1871252  76.9443846  52.8617096
  44.7115517  76.2877798  53.3705616  45.6921768  77.4320030  53.5123920
  68.0425358  71.6876221  64.0811729  68.2676411  72.0554829  64.9357128
  68.8230133  71.2004900  63.8169909 102.4821686  13.8859952  41.2997389
 102.7098726  14.4401372  42.0462751 102.3686241  14.4982732  40.5727911
  78.2407188  88.6466026  67.2355509  78.1093168  89.1745853  66.4480209
  79.1313982  88.8547993  67.5176382  81.4325022  33.7163938  48.9019918
  80.5405353  33.6123098  48.5706377  81.5846704  32.9328931  49.4303894
  73.8928843  78.1868505  53.6766291  74.5363855  77.5705051  54.0262842
  74.3873978  78.9937782  53.5332441   6.2439514  78.9493868  87.8440619
   6.7771555  79.4003126  88.4987299   5.3996540  78.8145182  88.2744146
  58.2644939  79.1211462  49.4456339  58.6766911  79.2455101  50.3005362
  57.3320675  79.2665195  49.6058941  96.3711357  94.8001575  48.4974337
  96.0638618  94.9954319  49.3826962  97.2124195  94.3623543  48.6270380
  88.0648111   0.8601106  24.0007472  88.6365341   0.6058038  23.2763910
  87.8312944   1.7693532  23.8137293  59.8123741  60.0378609  20.7686949
  59.4384003  60.5200720  20.0312352  59.1874170  59.3321896  20.9350681
  12.6867828  29.0444101  17.5007033  12.2249565  28.4386362  16.9210649
  12.3826370  29.9114431  17.2324204  73.2274246  91.7939663   5.8546358
  73.8024378  92.5146866   6.1118448  73.5402298  91.0451508   6.3622385
 100.8953928   8.2283128  66.0685730 101.6816591   8.6021245  66.4664316
 100.8008693   7.3713220  66.4843321  17.8588034  59.2739508  82.8458928
  17.6385523  58.9398977  83.7154482  18.5626627  58.7015650  82.5406300
  41.9288778  79.4425726  31.9487429  42.4976826  79.2011595  32.6797771
  42.2984219  78.9818811  31.1954618   2.8112351  84.2363739  55.5220556
   3.6118161  83.9542198  55.0796890   3.1156479  84.6326733  56.3384581
  92.4241756  21.9075216  18.6463320  92.7054571  21.7134965  19.5404613
  92.5762771  21.0939325  18.1655276  22.5991211   3.9375890  55.1413584
  22.8672752   4.6240056  55.7522154  23.2890568   3.9243902  54.4780016
  58.7142467  75.1602650  29.1744161  58.5912037  74.4839191  28.5083461
  58.2259369  75.9140635  28.8433981  59.3646240  90.1914406  17.5609052
  58.9688778  90.8669186  17.0101357  59.1554022  90.4591274  18.4557831
  72.2098541  71.5453482  19.4064033  72.6608562  71.8763876  20.1830888
  71.4874029  71.0222101  19.7537076  83.6741756   6.9908155  37.4034953
  84.5382952   7.3513235  37.6023889  83.5526584   6.2917150  38.0459332
  50.2606201  86.7606449  59.2091894  49.5170307  86.1812878  59.3754721
  50.9286451  86.4782619  59.8338747  51.3933372  89.1649437  48.5201979
  52.1517277  89.3076706  49.0865088  51.7675304  89.0153027  47.6519680
  16.5779934   5.3173841  39.2405367  16.8515358   5.3291715  40.1577425
  16.3236580   4.4089998  39.0781069  82.8749775  12.3750986  28.2784820
  83.2554697  13.0309404  28.8627100  81.9349407  12.4139131  28.4547162
  68.4616709 101.0202026  58.7159348  68.6900091 100.3098965  58.1163025
  67.6205206 101.3443279  58.3940077  32.5671983  91.6403675  71.2089729
  33.0756879  91.4448261  71.9960117  31.6608310  91.6828346  71.5138149
  40.6081724  95.1065922  40.2403498  40.4143476  95.6419277  39.4708800
  40.8693361  95.7373333  40.9113216  79.5937109  88.0993748  35.0753593
  78.8873482  88.3256531  35.6804061  80.2021694  88.8361931  35.1312375
  91.5897465  89.0898514  54.6408033  92.2390461  89.3874931  54.0035820
  91.1477470  89.8902512  54.9240541  56.3754654  82.5246143  21.7756033
  57.1069765  82.4006081  21.1708355  56.7900133  82.7164459  22.6167822
  75.8137512  98.5116100  10.7905531  76.3114309  97.9687023  11.4019430
  76.4355993  98.7181759  10.0927961  92.4711345  64.8588098  22.6877618
  93.2025932  65.3050340  23.1144595  92.7701734  64.7131074  21.7902231
  57.7029276  87.8379631  16.1390424  57.3502445  87.8657532  17.0284665
  57.9451370  88.7442970  15.9489989 100.8089994   4.5642484  56.5776062
 101.7597936   4.4855894  56.6552401 100.5226063   3.7067426  56.2631178
  32.1479107  38.6096880  87.0098588  31.5698792  39.3509123  87.1906962
  32.8651930  38.9844534  86.4987002  29.2141223  99.7882557  25.7897091
  28.3671880  99.4095039  26.0252571  29.1789579  99.8800468  24.8375678
  54.3340492  79.7254276  40.3481817  54.8917580  79.4717216  41.0835934
  53.4556913  79.4457531  40.6060696  17.3926998  82.3876497  67.4439614
  17.8174235  81.6706106  67.9148071  17.6937128  83.1789515  67.8905742
  70.1805352   3.8776792  30.9406042  69.6363114   3.2973875  30.4083323
  69.5700310   4.2766965  31.5605283  24.5480394  87.0080185  46.8734932
  25.1651740  87.5861740  46.4250278  24.9817371  86.7880726  47.6979685
  92.7417158   3.2574666  36.5112305  93.4861778   3.3614553  37.1038437
  93.0930828   2.7651132  35.7693648  32.3505020 100.7646751  32.3353195
  31.7535758 100.3710365  31.6989517  33.1785655 100.3026485  32.2046280
  82.0359586  13.5908617   6.7618191  81.8096803  13.6464323   7.6902270
  81.3324426  14.0618719   6.3152212  49.1487551  77.3872614  24.4224501
  49.4350004  78.1290483  23.8894916  49.9528790  76.9035721  24.6112871
  25.9557629  92.5420475  52.5439548  25.6489825  93.3078289  53.0294466
  25.4467416  92.5526237  51.7333889   0.7503471  38.1363595  49.8968983
   0.6387529  37.3427881  50.4203796   0.4800997  37.8813470  49.0147591
  37.2179651 101.7083740  17.5087392  36.9054341 101.1273861  16.8151927
  38.0206728 101.2937450  17.8249228  86.2919782  10.0430120  27.7043676
  86.1832594   9.6439756  28.5676098  87.2386764  10.0547422  27.5634408
  85.8322906  87.7448273  50.6706381  86.7831993  87.6582146  50.6036186
  85.5394745  86.9043922  51.0230112  47.7509546  86.8132782  13.7961161
  46.8704128  86.4445496  13.8662159  47.7097082  87.6285648  14.2959464
  17.4438751 100.1413918  50.1250696  16.6843009 100.0624657  49.5479679
  18.1191361  99.6074200  49.7065878  85.4267025  95.2284908  19.5626402
  86.1739349  95.8039761  19.3992722  85.3358459  94.7194195  18.7571406
  68.2216215  98.1215477  65.0437975  68.4142256  97.1840191  65.0565910
  67.3985958  98.2035828  65.5255985  48.3880997  96.8504429  20.4654169
  48.5404205  96.0068130  20.8912253  48.1636286  97.4435520  21.1824012
 101.1360087  55.6622049  78.1204443 101.8787351  55.0741980  78.2576995
 101.0233798  56.1060450  78.9610104  98.8991140   4.7419847  22.8924060
  98.2704567   4.0919317  22.5786304  98.6030887   4.9535955  23.7777448
  12.7768288  20.1384271  34.5319796  12.2493229  19.3626989  34.3416619
  12.7439079  20.2225603  35.4849052   4.3617951  94.4545364   8.6761981
   4.8156105  93.6710072   8.3657742   5.0477635  95.1190376   8.7403160
  58.8802147  97.7229691   6.7072350  58.6980152  97.3707390   7.5784212
  59.7307444  97.3521519   6.4720237  68.0026388  97.8297234  24.8905015
  67.8042936  98.6862278  25.2690506  68.9526176  97.7457905  24.9725318
  53.5235390  79.1278831   1.1226709  53.3157238  79.1103641   0.1884611
  53.5632595  80.0588218   1.3417776  27.6928402  60.0000784  81.1051093
  28.3745695  59.8216173  81.7528914  28.1383349  60.4976961  80.4194401
  80.3199482  82.5256157  16.7283559  79.5220280  82.0766830  17.0076573
  80.0350094  83.1011295  16.0185468  58.7788916  82.9330063  11.5956652
  59.1822910  83.1683636  12.4311936  58.9638472  83.6769295  11.0224235
  77.7759504  63.8159800  34.5689869  77.2164869  64.4110823  34.0699029
  77.2852659  62.9946661  34.5990729  40.5511665  81.9840813  34.3772674
  40.4241800  81.4799023  33.5735822  39.6643853  82.1732521  34.6839666
  99.2037843  22.7051652  25.4291868  99.1802191  21.7718900  25.2178097
  98.4105371  22.8543104  25.9437203  85.2255272  35.1814092  26.4666224
  84.9107097  34.5339693  27.0974588  85.7267784  34.6716226  25.8301497
  78.9984512  95.8896828  26.8844533  79.9556303  95.8929539  26.8797851
  78.7562275  96.8112469  26.9754362  99.1676925  31.2897314  74.0448523
 100.0706123  31.2144578  74.3535614  99.0823196  30.6022848  73.3842850
  91.8390297   8.2397283  39.1884136  92.7105306   8.4637083  38.8619995
  91.2728046   8.2977880  38.4188366  67.3096561  96.8774605  45.1629925
  66.7645502  96.4565945  44.4981909  67.8105021  97.5353241  44.6807098
  52.0296239  10.2717794  61.7715025  52.1615814   9.5728219  62.4120235
  52.2752999  11.0718454  62.2360182  68.0149508  80.7126999  39.5803547
  67.8891325  81.5504837  39.1348076  67.1280766  80.4076099  39.7716784
  75.7367395   2.8474058  33.8108039  76.5182232   2.8037656  33.2597947
  75.4589986   3.7620462  33.7605214  33.1606270  27.8555414  83.4248762
  32.6699806  28.6729929  83.5100989  32.8052593  27.4439070  82.6371555
  95.5104374   0.6890882  42.1617842  94.9014114   0.6865991  42.9002380
  95.0013231   1.0431875  41.4326382  24.8485470  99.1508865  55.2082825
  24.9102330  98.5754776  55.9707308  24.2633343  99.8553658  55.4866076
  62.6015853   1.3304819  13.5462344  62.1961402   1.7316831  14.3149281
  62.0570205   1.6150201  12.8122568  74.7064686 100.3798008  19.0971434
  74.4495296  99.5919037  19.5761287  75.3645325 100.7950592  19.6545839
  81.0095787  81.3446045  28.1212068  80.3829956  81.7869568  27.5485396
  81.6108131  82.0361328  28.3978653  62.8400707  93.7572384  27.1481514
  62.2569752  94.1857529  27.7747369  62.2714996  93.5195446  26.4157176
  85.1170515  46.0966028   8.4620559  84.4847320  46.2082399   7.7521658
  85.0304674  45.1782430   8.7177038 103.0270361  21.6284955  19.7257280
 103.7355636  22.2594465  19.5987189 102.2746395  22.0208944  19.2828321
 100.2498792  34.6204484   6.6269612  99.3726038  34.9803461   6.4962029
 100.3639816  34.0000165   5.9070534  52.6622438 102.3287964  40.0309563
  52.8392696 102.6303291  40.9220076  52.3686790 103.1127167  39.5667076
   9.1207176  97.9817295  11.3386393   8.2240057  98.1867695  11.0738754
   9.0632194  97.1062183  11.7212760  96.0994505  11.6123212  60.6499434
  96.1131548  11.4620508  61.5951729  96.8222545  11.0830797  60.3127766
  43.4832811  78.4217024  48.7919998  43.1228781  79.0010023  49.4633818
  43.3656073  78.9023495  47.9726315  27.2090316  83.1394100  45.5013514
  27.5163555  83.4777641  46.3423681  27.4599671  83.8108158  44.8669434
  46.6581964  82.9338169  55.7262802  46.2538671  82.4295807  56.4323187
  46.4779663  83.8467979  55.9503841 103.4147238  15.7774175  20.0886250
 104.1458057  15.8129514  19.4717884 102.7060674  15.3628553  19.5965087
  48.2732784  22.5663770  42.2969532  48.5173153  21.8925584  42.9314947
  47.3170065  22.5344289  42.2694969  65.5473922   0.3744329  44.3834639
  64.9529933  -0.3415572  44.1592550  66.2041186   0.3674997  43.6871243
  52.9172659  81.6093922  71.0768366  53.6308002  81.0218906  71.3257217
  53.3550406  82.4156284  70.8037615 105.4863619  16.6406167  14.2472672
 106.3109707  16.1681283  14.1332090 104.8295139  16.0787309  13.8360894
  64.7473049  82.5854874  46.4809179  64.8666143  83.4267426  46.9216967
  64.6633625  82.8103733  45.5543041  53.7061167  82.6530933   7.6186633
  53.3744097  82.3001289   8.4442627  54.4948721  82.1413803   7.4391031
  78.4027599  33.7759317  32.4245334  78.7317871  33.2453741  31.6989422
  79.1844438  34.1849721  32.7958655  58.8518476  79.3488264  23.5748935
  59.0677881  79.5375061  22.6616573  59.6689892  79.4991207  24.0502095
   6.4096747   0.3727926  51.9272423   5.7751999  -0.2412211  51.5575600
   7.2580681   0.0563730  51.6168642  88.3546947  12.7841867   5.8618128
  88.4540914  12.6243986   4.9232936  89.1948580  13.1548322   6.1319649
  53.2064629  85.2404881  58.5196400  54.0401030  85.4617023  58.9347839
  52.6248264  85.0268364  59.2492151   1.3054237  44.2417348  33.8846684
   2.1829901  43.9502061  33.6374569   0.7205210  43.7708295  33.2910609
  58.0869293  93.1257439  51.2951660  57.8506327  94.0509510  51.2290096
  57.2485828  92.6685905  51.3616514  73.0935453  25.3766836  24.7022581
  73.7195109  26.0555852  24.4502831  72.3796128  25.4627717  24.0704989
   9.2574440  80.0171757  37.3434424   9.9440609  79.5571184  37.8262711
   8.4472214  79.7794008  37.7942586  98.9826097  66.1682627  83.6634289
  98.5212936  66.8374750  83.1578826  98.3152451  65.8057806  84.2460607
  85.6518959  19.6006692  14.5578241  84.7999119  19.2040647  14.3759811
  85.5283808  20.5308164  14.3686044  81.1695194  90.9236050  42.8986645
  80.7887363  91.2184715  43.7258863  80.4853821  91.0852242  42.2489929
  44.0550709  88.2035255  75.9069061  44.0229797  89.1601658  75.9002638
  44.9875355  87.9955673  75.9659719   9.3810902  12.9390253  15.8324182
   9.6993790  12.0980371  16.1605287   9.1035519  12.7563680  14.9347329
 100.5547428  82.2094059  65.7292843 101.3069248  82.1788406  65.1380825
  99.7934151  82.1913624  65.1493740  86.7799972   5.5226148  59.1830254
  86.1043333   4.8854745  58.9511871  87.5614427   5.2227224  58.7186527
  83.0746651  78.4039211  31.6260552  82.7988148  78.5908318  30.7287240
  83.1544304  79.2650270  32.0363879  13.6989033  89.7345257  68.6323261
  14.0353632  89.3857765  67.8068542  12.7471030  89.6948528  68.5388708
  60.6274723  17.2117723   7.2291058  60.6836008  16.2563528   7.2455257
  59.7385620  17.3942770   6.9245404  84.1225218  19.2340387  30.5482292
  85.0398515  19.3793119  30.7798243  83.7926506  20.1030744  30.3197885
  75.3003979  95.6118488  33.5130739  76.1717606  95.6373405  33.1177139
  74.7452688  95.2118778  32.8436780   5.9233151   4.8289884   9.9510670
   6.5313253   4.5819295   9.2542762   5.9128628   4.0735639  10.5388188
  20.2796698  66.9853210  32.3684573  20.4772902  67.8331089  32.7664995
  20.9227633  66.8951607  31.6652274  68.3580278   6.8107427  38.7046027
  68.2349824   6.4526571  37.8254724  69.2902278   6.6888727  38.8845515
  55.5702305  77.1983719  38.8635421  55.5528498  76.3701153  39.3430376
  54.6566010  77.4832344  38.8443494  35.2702332  73.6567974  39.9471593
  35.5192232  73.2250357  39.1299558  34.3462968  73.4352255  40.0632572
  65.6978105  22.7726568  38.2229733  65.3263425  23.6536516  38.1773043
  65.6157898  22.5255884  39.1440940  60.7545710  86.8852043  56.8232965
  60.0434685  86.3666725  57.1997118  60.4375410  87.1312714  55.9542847
  16.9471098  42.9966662  87.9203096  17.4477173  42.1877024  88.0261479
  16.1646248  42.8659174  88.4558919  95.5349483  73.5655329  85.5159070
  95.9277716  73.0453131  84.8149832  95.9505715  73.2427618  86.3154759
  85.6762956  22.9308427  51.0295582  85.9658264  23.8019384  51.3008499
  85.3705810  22.5177682  51.8371105  50.3730392  86.7928982  47.7920198
  51.0155106  86.1185646  48.0127907  50.6937599  87.5816250  48.2293701
  60.7454872  66.8232155   7.3403573  60.3943634  66.1779451   7.9540098
  61.1858845  67.4667645   7.8954524  95.3746437   9.0932764  27.4482393
  95.5607437   9.7562707  26.7833805  95.9044288   8.3392347  27.1894336
  59.6388960  70.6327105  43.8309097  59.0566158  70.2026224  44.4571733
  60.2951908  71.0686874  44.3744421  98.6424183   9.5784677  65.4578924
  99.5071338   9.2616189  65.7188749  98.4173321   9.0545000  64.6891069
  52.5425768  93.3714485  41.3682508  52.3527575  94.0181065  40.6885195
  52.1763372  92.5541973  41.0303211  74.4048309  57.9744244  23.4208941
  73.9091206  57.9289579  24.2384744  74.2147589  58.8459539  23.0737066
  38.0711460  86.3245678  50.2348185  37.1576285  86.3381100  50.5203581
  38.4433603  85.5516243  50.6593847  29.9919344  59.3711397  62.4734585
  30.7569815  58.9943335  62.0387761  29.5259835  59.8355982  61.7781870
  66.2607788  11.9271959  60.4643631  66.8661283  12.5902475  60.7962561
  66.7285322  11.0993398  60.5743170  45.8061934  79.6446037  37.2493219
  44.9128056  79.3747330  37.4620795  46.3596964  79.1121960  37.8206396
  53.9983702  86.4899731  37.2218800  54.2973948  86.0691929  38.0279541
  53.1034136  86.1717892  37.1033573 103.3438848  28.2891668  29.8497343
 103.9164470  28.8938917  29.3778062 102.5379013  28.2704652  29.3337202
  89.4144176  17.4641336  11.2550199  88.7707828  16.9041074  11.6889966
  90.0190471  16.8527330  10.8344913 107.3330282   9.8121561  16.8472028
 107.1883320  10.5325807  17.4606335 107.7396702   9.1255201  17.3757827
  16.7061306  51.5569613  87.6273932  17.5938059  51.2109873  87.7199514
  16.2528874  51.2686750  88.4196618   4.5867310  14.6748270  35.0056791
   4.6344957  15.2404417  35.7764149   5.3764591  14.1361536  35.0545931
  96.4821529  96.3620090  58.6255550  97.4263287  96.3185978  58.7767935
  96.1151695  96.6137695  59.4730043  48.5278856   4.7564519  26.8577170
  48.2670461   4.3026842  27.6591468  49.4824277   4.6867383  26.8428516
  74.9271561  55.2536795  83.2114755  75.0016190  56.1722586  82.9528164
  75.2349545  54.7643206  82.4485724  70.3615999  97.2716045  14.7974336
  70.6542873  97.3346424  13.8882625  69.7660732  96.5222645  14.8059261
  62.8796291  73.3637667  19.6906602  63.5644770  73.9658260  19.3995547
  62.3825979  73.1647015  18.8972092  75.2332400   5.7567991  15.9082568
  74.9995207   5.4396451  15.0358939  74.9652098   6.6757120  15.9087849
  46.6140770  15.7048715  51.4374447  47.4727534  15.7464231  51.8583727
  46.0454731  15.3003610  52.0926476 107.8855457  77.9542181  75.7315259
 108.8384309  77.8648588  75.7475881 107.6665916  78.0179045  74.8018842
  20.3275166  25.8855165  50.3097153  20.3049622  26.3902582  51.1227131
  20.8809528  26.4010156  49.7230339   1.5371904  25.5008615  10.2702594
   0.6999168  25.7560743   9.8828655   1.6578827  24.5901979  10.0012755
  90.9684181  97.7069569  23.7218261  90.7371521  97.3047924  24.5590901
  91.9189835  97.8123379  23.7611961  99.7188352   1.4231027  40.6587410
  99.5109295   1.4261068  39.7244000  99.7278761   2.3480142  40.9050846
  64.7739458  72.1282434  35.4894042  63.9389181  72.4553633  35.1548100
  65.1773643  72.8875160  35.9101081  39.0347743  81.6368580  29.9499607
  38.9299154  80.8913803  30.5411458  38.1402278  81.9196129  29.7600412
  77.8721046  97.7359200  71.3037491  77.6567602  96.8100452  71.4161015
  77.5150061  98.1612015  72.0833921 103.4549809  56.3602114  71.0891819
 103.1663704  57.2711086  71.0325813 102.8013515  55.8704138  70.5900764
  62.0378445  21.3546003  23.0479765  62.2816609  20.5167593  23.4414339
  61.7176079  21.8795312  23.7815475  50.5943203  99.5885181  55.6919670
  50.7429552  99.5616531  56.6371775  50.1507854 100.4235554  55.5428934
  28.0228456  85.2456848   3.8252123  27.6695999  85.2737514   2.9360254
  28.8962587  84.8673145   3.7241228  86.6678737   7.2590364  34.5559549
  86.5364622   6.7707361  33.7432265  85.9145855   7.8474725  34.6062994
  97.6499628  23.8768590  36.7007256  98.4001325  23.6461557  36.1527705
  97.8459238  23.4856904  37.5520897   9.1734943  19.1421140  26.0758042
  10.1256619  19.1943181  26.1587954   8.9002762  20.0391592  25.8837438
  94.1595720   8.1805051  19.2624056  94.1026901   7.7097810  18.4308887
  93.3246254   8.0032171  19.6956015  71.4633369  77.5122261  42.4785280
  71.6429663  76.5861702  42.3160982  70.8678579  77.5128317  43.2279539
  76.9823908  18.6745180  16.0947824  77.8035282  19.0421403  15.7679451
  76.9490265  18.9419855  17.0132482   5.2201233  11.8290437  44.2147446
   5.9404287  12.0921339  43.6418819   5.2945480  10.8763994  44.2710304
  26.3045750   0.6082357  58.5795403  26.7201576  -0.0666319  58.0428219
  25.5187569   0.8527864  58.0907440  60.3214716  18.7302316  63.2092571
  60.3414820  19.6301568  62.8837395  59.6238374  18.7280477  63.8646460
  34.9998736  92.5228500  20.4113245  34.1238594  92.8067875  20.6725025
  35.5542231  92.7349663  21.1622810  78.0546259   7.7055658   9.4789290
  78.7391018   8.3224119   9.2196655  77.2497438   8.2235731   9.4707274
  66.6724730  80.5011654  33.5551119  67.4273968  80.2542305  34.0892887
  66.7136097  79.9171638  32.7978253  60.1220179  79.4216156  41.1667681
  59.7023201  79.2455578  42.0088434  61.0581875  79.3237543  41.3406420
  81.6316818   8.3495153  31.1217856  80.9100031   7.8197683  30.7830048
  81.7277597   9.0582384  30.4856157  36.3946295 100.4377365  26.8504786
  35.9066796 100.2801514  27.6587510  37.3134756 100.3532219  27.1050596
  49.6339369  97.6425362  32.5492263  49.3381834  97.8478622  31.6623211
  48.9570379  97.0633602  32.8993630   3.5770370  18.6933777  85.0465904
   2.6519800  18.4485218  85.0699400   3.5745980  19.6138784  84.7840972
  49.9039316  94.6059227  27.8696179  49.7234917  95.5159092  28.1053996
  50.5557680  94.6642208  27.1710896 103.5749744  15.9331239  43.2824469
 104.1405414  15.1679243  43.1783915 103.7113689  16.2103475  44.1884136
  34.6129061  50.7693789  84.4894998  34.8223711  51.7017576  84.5445003
  34.2760779  50.5479452  85.3576861  82.2520062  54.5105669  80.0528877
  81.3711002  54.1870424  79.8642932  82.8102853  53.7355539  79.9903552
  13.1453741  85.1358891  35.8510208  12.4045086  84.9949169  36.4404941
  13.9107049  85.1437283  36.4258599  60.4761362  70.4910755  60.8726406
  61.3414097  70.7568359  61.1839294  60.6458044  69.7363520  60.3088713
  53.5965395  85.4878712  66.0834408  54.2897797  86.0582447  66.4155912
  54.0534544  84.8495102  65.5357599  95.0313543   1.2039960  28.1453347
  95.7235836   1.6057886  27.6203513  95.4506277   0.4479612  28.5562563
  21.4137341  66.3650915  84.5734681  20.9850241  67.1232626  84.1764622
  20.7053686  65.7376597  84.7176622  96.3924574   1.5871633  61.1044693
  96.8140529   1.9328321  61.8912363  95.7595562   0.9485258  61.4328098
  77.9781103  98.5968494   9.3292129  78.5673094  99.0541363   8.7292379
  78.5203838  97.9133606   9.7229224  42.8725719  98.1874752  45.7326794
  42.7482843  97.2550869  45.9099770  43.5606909  98.4572887  46.3408947
  11.7459259  15.7017244  42.0309639  11.4745102  15.1395238  42.7565622
  10.9491406  16.1681665  41.7783737  23.9608979  89.3525124  18.0851305
  24.8317909  89.7494602  18.0997217  23.3597469  90.0900269  18.1896579
  70.2069569  93.9746380  48.0627251  71.1424685  93.7937355  47.9714918
  69.8857212  94.0344810  47.1630287  55.4507993   7.2340215  41.9006395
  55.3780078   6.5556062  42.5719690  56.3035213   7.0785821  41.4945173
  85.4248238  80.6235790   5.1216608  84.5641899  80.9284210   4.8342592
  86.0428333  81.0722542   4.5446172  64.7405481  87.4108124  40.6442165
  64.8901749  87.1145439  39.7463989  63.8734531  87.8156090  40.6214905
  73.2301353  56.0893453   9.7994888  74.0945100  55.9970296   9.3987781
  73.0757855  57.0337594   9.8211044  73.4045814  18.9176858   9.5394140
  74.2577409  18.7201036   9.9258244  73.4701132  19.8338045   9.2698491
  86.4489673  14.0069498  36.5931082  86.9365333  13.2044328  36.4074063
  86.9986795  14.7077383  36.2424755  56.6491175  88.3477688  37.4578691
  56.0181427  87.6295757  37.4098587  57.4165869  87.9643440  37.8823733
  74.5114921  12.0729078   7.8271854  73.7951778  11.7251123   8.3583736
  74.5285915  13.0080141   8.0309129  77.5781631  67.2310686   7.0579028
  76.6766357  67.1603107   6.7441022  78.0908537  66.7214346   6.4304841
  69.6103382  94.3013477  50.9362411  69.8479176  93.4580326  51.3217306
  69.5175123  94.1195679  50.0010538  10.7678280   2.0910371  20.2517247
  10.5880127   1.1716665  20.4483461  11.5509758   2.0696081  19.7017658
  32.2801495  85.1443195  19.4948316  32.0634508  84.3481445  19.0096748
  32.0895815  85.8562946  18.8840926 100.7771181   2.2274602  31.2846136
 101.3407205   1.6581071  31.8084574 101.3146709   2.4679674  30.5300117
  97.5806236  76.0402250  19.5054507  98.0757427  76.8580675  19.5526206
  97.7987480  75.5810642  20.3165150  43.7511326  53.0947897  83.4542321
  42.9951359  53.3375189  82.9196422  44.4093014  53.7605211  83.2546143
  79.7942423  16.8879617  63.4385967  80.3219293  16.8775571  62.6400566
  79.9708675  16.0435976  63.8534164  96.8399547  13.3568395  20.5637836
  96.9752382  12.8128446  21.3396716  97.2010158  12.8404058  19.8432589
  68.9127350 102.5181866  44.6508074  68.8100719 101.5718174  44.7511816
  69.8145056 102.6912880  44.9211407  34.9462090  29.3016637  64.6236467
  34.4016514  29.9249376  64.1427898  34.5729885  28.4456361  64.4135189
  46.5227318 100.7916164  37.1993947  46.8712091 101.0840988  38.0415630
  45.6933260 101.2605286  37.1075082  77.3126268  92.9320145  77.2732592
  78.1975937  92.8652191  77.6318645  76.9086218  93.6475372  77.7642155
 104.9944757  23.4977926  23.3791137 104.4947551  24.1818632  22.9335046
 105.4131531  23.0075944  22.6715565   7.6337299  26.3826574  50.9265089
   7.0705519  26.1652959  50.1836634   7.7987251  25.5431379  51.3556957
  10.6016502  25.8249677  19.3943906  10.6756363  25.8730043  20.3475165
  10.2581177  24.9477876  19.2247307  17.2801266  28.2827962  31.4588714
  16.4823303  27.9502882  31.8702102  16.9692764  28.7926782  30.7107878
  86.0525392  24.7326768  14.7489500  86.0299467  25.6380762  14.4391572
  85.1363443  24.5155443  14.9212241  27.8749809  32.2456468  74.6781874
  27.9021225  31.6482080  73.9308167  28.2106075  31.7285837  75.4104662
  84.3319916  24.5729745  24.1680741  85.1883053  24.1925729  23.9725065
  84.4252371  25.4994882  23.9464617  80.0807667  89.1114426  21.8054295
  80.6352806  89.5899487  22.4216890  79.6465778  89.7941780  21.2939739
   2.0032559  36.9861234  30.7261610   2.9536543  36.8751443  30.7517505
   1.6834889  36.2081922  30.2692127   1.6222916  19.0536893  52.1052980
   1.0541925  19.3025697  52.8343773   2.4957428  19.3382085  52.3743153
  95.2701353   2.5735868  18.8831234  96.1095213   3.0247701  18.7931299
  95.4009317   1.7341436  18.4421515  93.4732746  25.7304681  36.1313701
  93.1908392  26.5920938  35.8246899  94.2380451  25.5238355  35.5940938
  89.3999981  -0.1201903  43.2429171  89.2511009   0.7513345  43.6096764
  89.9727987  -0.5520712  43.8766432  64.7684574  70.1397419  47.8542614
  64.2053223  69.9338961  47.1081114  65.6133127  70.3614473  47.4627256
  99.0982698  18.8461507  37.5813532  99.3337892  19.0257181  38.4915829
  99.8785709  18.4358324  37.2085261  56.1916876  98.6970520  27.4372530
  55.5495071  98.4916687  28.1167078  56.5952206  99.5147514  27.7283931
  12.5647522  28.9847681  83.5176192  12.3748614  29.3795893  84.3686690
  11.7039849  28.8173124  83.1338613  82.5372887  83.2990932  35.8299375
  82.5793362  82.9885387  36.7343831  82.0872879  84.1419983  35.8868003
  75.3760815  99.5717621  30.8736968  75.7907867  99.4944000  31.7329216
  74.5491076 100.0217342  31.0465288  12.3185597   4.3389333  33.0668879
  11.5923748   4.2217363  33.6793852  12.8536472   5.0289644  33.4590197
  85.0870823   8.4919179  29.9768734  85.3635668   8.0976118  30.8041000
  84.7564863   7.7572168  29.4600129  19.0093399  66.6956541  87.6154240
  19.9645020  66.6415045  87.6464158  18.7105347  65.9797976  88.1762229
  10.1385746  19.9030698  37.6853967  10.9887371  19.5194257  37.4703050
   9.7395954  20.0926031  36.8362045  85.5909634  79.2303514  44.0760946
  85.0037098  79.8380518  43.6265802  85.1663017  78.3771086  43.9873886
  73.0134391  34.8586954  37.8628254  73.6134099  35.3139223  38.4536147
  73.5386609  34.6730627  37.0844197  24.4226050  96.0330582   2.7578443
  24.2886901  96.7871475   3.3319923  24.1850352  96.3502502   1.8865319
  87.6537704  96.4715290  41.8155718  88.1250763  97.0768452  42.3880243
  88.3150482  96.1644173  41.1953878  78.8095926  24.2764677  49.5567560
  78.7788128  24.7000802  50.4145670  78.5806202  24.9704755  48.9385605
  26.3636541  74.4292402  28.9812255  27.0718431  74.0927219  29.5302749
  26.7857575  75.0757647  28.4154773 109.0118622  20.4237569  22.3938036
 109.3903850  21.1855329  22.8327298 109.0250944  19.7339357  23.0572820
 105.9463381  25.9863294  53.0872250 105.7636951  26.9136728  53.2385969
 105.8447956  25.5787099  53.9473248  56.3383960  15.8457006  70.3425217
  56.7669557  15.3350080  69.6556711  55.9862386  16.6107858  69.8877096
   8.6340866   4.9213994  39.1732597   7.8655396   5.1080430  38.6340618
   9.0338669   5.7777608  39.3250632   7.2375164  25.2619375  20.6439209
   7.9433498  24.6617712  20.8844256   6.7629395  24.8069967  19.9481905
  85.1782011   6.7671884  12.2478282  85.8299898   6.6054834  12.9299247
  84.8669790   7.6558984  12.4197984  69.0886043  24.4662012  23.3395362
  68.6928200  23.6431039  23.6260653  69.3839072  24.8843111  24.1483736
 102.2516346  96.4731216  43.7080622 102.2929478  95.5193710  43.7779617
 102.3495770  96.7837143  44.6081591  67.8411674  79.5105076  22.4291635
  67.4591827  79.8624659  21.6251469  68.7833691  79.6430874  22.3247075
  96.6978573   7.8991807  40.0317717  97.4576353   8.3671678  40.3781176
  95.9715627   8.1744016  40.5912256  81.9869518  54.5262337  36.5782714
  82.2708893  55.4374027  36.6516328  82.6355267  54.0321398  37.0797229
  61.9412159  10.3402246  52.0890951  61.8714546  11.0974134  51.5076923
  61.4334296  10.5847276  52.8627872  39.2506815  54.5140955  89.2167295
  39.5177962  53.6141512  89.4037897  38.6815430  54.4406721  88.4506200
  20.9269772  38.7410272  76.9654703  21.4356670  39.5517457  76.9514561
  21.4693794  38.1097330  76.4927101  40.0338888  63.6351299  53.1417131
  39.1665578  63.4731627  52.7705908  40.0655174  63.0860853  53.9251566
   2.7309189  28.7719930  36.0382080   2.5918398  29.2408098  35.2153468
   2.8926144  29.4613946  36.6822696   4.2242584  14.2553915   3.5010752
   4.7118054  14.9355901   3.0364668   4.8902474  13.6194433   3.7623525
  67.2153664  86.5277290  36.3360810  67.5801802  85.6875801  36.6141152
  67.6077747  86.6869164  35.4776478  77.4440718  85.7925510  28.0001116
  77.6397276  85.1288700  28.6615252  77.1922064  85.2909946  27.2247148
  72.2738409 101.9039345  20.3065515  72.3644733 101.8696404  21.2588334
  73.0993891 101.5511417  19.9745286  34.6548700 102.9236984  67.0846367
  34.1911316 103.4810352  67.7095842  34.1465878 102.1128750  67.0637178
  54.8717451  82.9883957  28.8291144  54.4922590  83.0945683  29.7014380
  55.3439045  83.8061237  28.6721730  84.8919605  32.3623003  44.0494585
  84.3070816  31.7214120  43.6452293  84.3571161  32.7838720  44.7221041
 102.5416349  22.8913988  29.0983868 101.7144369  22.4182046  29.1881609
 102.8354286  22.6935972  28.2091212  56.7073679  67.8974867  49.8102522
  55.9596205  68.4915161  49.7452068  57.4410582  68.3956480  49.4500256
  83.5656452  90.7637501  30.4863501  83.1063938  90.0035477  30.1294208
  83.5187244  91.4200783  29.7911739  95.5821680  18.5964216  32.2314453
  95.9902643  18.2444299  33.0225134  95.6288122  17.8797258  31.5986705
  72.5339746  95.2061272  57.4544048  72.0177698  95.6777763  56.8007135
  72.5947618  95.8111477  58.1936502  25.7409916  15.5840600   2.0286910
  26.2736759  15.6423486   1.2355421  25.0343666  14.9806703   1.7988275
  89.8543190   1.6043294  48.4278345  89.6431469   2.5367177  48.4756422
  89.6260046   1.3526166  47.5329876  65.6221056  83.2992268  22.3171830
  65.4001141  84.1715813  22.6426792  65.1822901  82.6996136  22.9198933
   7.7046928  35.0985349  32.3208857   7.9120598  35.3359140  33.2246995
   6.8206749  35.4378904  32.1809268  85.0876522  91.8337631  10.5804753
  85.7231903  91.2802505  11.0342777  84.2963696  91.2975788  10.5294478
 101.3815403  92.6131630  37.1213007 100.8610821  91.9946575  37.6339436
 102.2042847  92.6917171  37.6041579 106.5046310  70.0382662  46.5025425
 107.1623898  69.9011803  47.1843052 106.5969372  70.9602976  46.2626076
  33.4503231  10.1941408  62.1816540  33.5360107  10.9448160  62.7693510
  33.7876091  10.5073083  61.3423681  25.0251732   4.6771062  74.8988628
  25.6573448   4.3153585  74.2777920  24.2410240   4.1406835  74.7822762
  81.2568092  91.9309139  16.1867917  82.0268440  92.4085712  16.4952040
  80.7837486  91.6977882  16.9856048  67.9872370 102.6948166  25.8750534
  67.8379202 102.3633289  24.9895883  67.1109772 102.8825569  26.2114477
  72.1203350  20.1735223  56.0368347  71.1642312  20.1404108  56.0051966
  72.3756312  20.5361951  55.1885891  54.0443230  89.6491051  51.6424894
  54.6410418  90.3196526  51.9749355  54.2136765  89.6233940  50.7007408
  69.5864462  13.0563177  20.0616860  69.6766113  13.7751306  19.4360542
  70.4513787  12.9794324  20.4644442 106.4233135   4.2714227  22.5861049
 105.9688734   3.5111154  22.2232652 107.3510526   4.0905202  22.4350691
  57.3299551 102.4919415  36.6366935  56.6805124 103.1829453  36.5064120
  57.3041201 101.9830990  35.8263588   7.3110066   4.1838563  22.6362562
   6.5172920   3.7028230  22.4020338   7.1084747   5.0959505  22.4281836
   8.8893658  60.6576681  47.1426439   9.0846825  61.5941858  47.1744967
   8.1608289  60.5440474  47.7530193   2.5671440   0.3599913  32.2376943
   1.6787708   0.0716465  32.4471736   2.6461104   0.2256680  31.2932611
  72.4806293 100.5713584  45.2512217  73.3471647 100.3075801  45.5606890
  72.4565324 100.2887731  44.3370008  15.3822781  98.4198805  36.8339562
  14.6879412  99.0300869  37.0825100  16.0598303  98.9733355  36.4455748
   8.4600998  98.2301419   3.7765267   9.1644503  97.8839391   4.3244907
   8.1777550  97.4829852   3.2490134  41.2866354  33.9904499  24.1595387
  41.3108587  34.6573043  24.8457980  40.6897497  33.3220673  24.4960189
  53.2384852  76.3928207  77.7760701  53.8548592  76.0763177  77.1156614
  53.3692673  75.8104523  78.5243862  59.6592617  19.7594309  26.4461899
  59.4120502  19.7836661  25.5217814  58.8307142  19.6503019  26.9129157
  81.3083293 100.1709544   7.9264438  81.4585801  99.4901459   7.2705805
  81.4591553  99.7336771   8.7644607  82.7525475  72.4827920   8.0290151
  82.9709628  73.0984890   8.7286180  83.5782220  72.3450290   7.5647789
   6.7193867  18.9087507  88.3927253   6.3244463  18.2616970  88.9771730
   6.6911007  19.7274944  88.8877885  37.8253222  28.9188218  22.2897220
  36.8967628  28.7255740  22.4188018  37.9562926  28.8444686  21.3444448
 103.1543596  33.0705357  20.1938224 102.9714031  32.9382277  19.2636323
 102.4475707  32.6088595  20.6449723  27.9040956  79.7312975  16.2144852
  27.4181509  79.4408369  15.4426551  28.4183908  78.9672709  16.4752460
  53.5590172  38.7331653  21.2971282  53.8232994  38.9663386  22.1870804
  53.6867905  39.5356917  20.7913041   3.4082741  15.4638946  12.6710916
   3.4066534  14.9193847  11.8838573   3.2034338  14.8570752  13.3824575
  74.5267411 102.5879691   8.1654453  74.3638263 102.5426141   7.2233021
  74.5891411 103.5245566   8.3529079  21.1321473  33.7433076  54.0558529
  21.9594932  33.5347414  54.4897127  21.1981082  34.6757579  53.8499022
  31.3914800  61.0059309  34.8286891  31.2006354  60.2333212  34.2968225
  30.8305454  60.9112787  35.5985093   7.2443938  57.6140547   5.6955117
   6.4694130  57.0686340   5.5607927   7.9716378  56.9926214   5.7296944
  27.8322935  75.6996822  22.2539902  27.1798539  75.2412510  22.7835131
  27.3268175  76.3382816  21.7510819  96.2285269  48.0637455  29.8301530
  95.8404673  47.2358847  30.1135063  96.0742928  48.6629486  30.5604935
  41.8259811   5.7175630   3.5818475  41.0196686   6.2264979   3.6660060
  41.5284204   4.8235068   3.4134653   5.7845777  52.8706121  57.8899956
   6.1940736  52.0652437  58.2061052   6.4913154  53.5161638  57.8939295
  23.6657143  28.2328773  13.1802928  23.9871550  27.6386237  13.8583565
  22.7123904  28.1831646  13.2505441  39.7864628   7.1585035   3.9411604
  40.0221014   7.9079813   3.3943611  38.9217353   7.3776782   4.2882064
  22.8814268  46.9519711  11.1182141  23.7278533  47.2436333  10.7794976
  22.8885150  46.0027122  10.9953856  34.8287368  26.0798359  32.9116607
  34.1551113  25.4090786  33.0236554  34.6687436  26.7009449  33.6221957
 108.6116580   3.0872819  25.4716206 108.4096757   2.2679791  25.0197601
 108.2595178   2.9674938  26.3535953  72.9712478  83.4573086  77.9502694
  73.3018390  84.2715486  78.3296828  72.2429291  83.7312111  77.3928099
  68.2240049  51.8818338  83.1283681  68.4022299  52.8135782  83.2561205
  69.0830222  51.4635340  83.1862204  10.5823708  33.3856940   2.5515357
  11.4613986  33.0536342   2.3691125  10.0286424  32.6049733   2.5611994
  21.4699984  15.9138644  10.7789147  21.1643076  15.3528035  10.0661767
  22.3914552  16.0766053  10.5772591  40.4955101  29.2206383  22.8585649
  40.9534788  30.0276208  22.6234627  39.5671606  29.4469571  22.8021741
  78.2553879  91.1184271  88.8196423  78.0828444  91.2994846  89.7435892
  77.4712149  91.4257630  88.3648408  12.1207201  31.3154745  16.2184310
  11.6844201  32.1617770  16.3166475  12.5028682  31.3433862  15.3412676
  74.0561668  68.6096498  88.6991449  74.2900983  68.4874304  89.6192375
  74.0808216  69.5577284  88.5696423  22.5103402  44.2120647  10.2019596
  22.7337646  44.1356945   9.2743379  23.1719875  43.6865616  10.6517363
   8.8675433  50.2887392   7.4677253   9.6150386  49.7808504   7.1522385
   8.9219844  51.1167049   6.9905007  34.9707508  48.5650206  54.4583511
  34.2133522  48.6395025  53.8778067  35.2186227  47.6416636  54.4114113
   5.9735090  21.4227247  28.4560180   5.1562142  21.7607594  28.8220716
   6.0658443  20.5511284  28.8407588 107.4606576  97.3634355  22.4849367
 107.2250476  96.9554519  23.3181643 108.4066095  97.4977242  22.5430274
  45.7567406   0.4104479  28.2983398  45.9685946   1.3406858  28.3758450
  45.6196642   0.1200813  29.2000771  40.3262949  13.9458609   4.7835043
  40.6749010  13.4106207   4.0706071  40.2317667  14.8191655   4.4031963
  89.5215453  26.5708709  39.5507002  90.2073110  25.9063601  39.6168876
  89.0901459  26.5557742  40.4050398  29.0088940  25.9355807  24.1596723
  28.8045311  25.7609415  23.2409930  28.6725283  26.8179369  24.3163157
  28.0783367  39.1651416  25.8676171  28.3503795  38.5710526  26.5671015
  28.5583591  38.8630080  25.0965619  13.8599873  38.2103515  36.8162060
  13.7581539  38.4556937  35.8966041  14.2167401  37.3225307  36.7891407
  25.9939361  14.5532942  15.1373994  25.6057310  13.7607110  15.5079925
  26.7939901  14.6881664  15.6452918   9.7810185  20.9700322   9.7488916
   9.3788564  21.5406728  10.4037714  10.0725925  20.2048659  10.2446079
  50.4722205  65.4213461  83.1216864  51.1697332  65.9286626  82.7065514
  50.9171907  64.9117788  83.7988673  40.6180763   8.9771026  47.8758049
  39.9943280   9.6939009  47.9914427  40.0711823   8.2015383  47.7507544
  41.7954063  21.7332149   1.3871478  41.1539364  22.1679163   0.8252057
  42.5662518  22.2996831   1.3533886  95.7646025  34.2541933  32.7555227
  94.9157609  33.8160920  32.8169084  96.4052845  33.5486388  32.8446913
  86.8447033  86.4251169  80.6815253  86.5479485  86.9896206  79.9677305
  86.1326996  86.4528783  81.3206755  33.7365532   4.7687846  20.4901767
  33.7491179   5.5213112  19.8987556  33.5580039   5.1445991  21.3522172
   9.6732450  74.2562485   6.2216401  10.5365181  74.3449545   5.8177549
   9.8571002  74.0100670   7.1281850  26.4348769  63.1979132  26.8099713
  26.2986493  64.1376877  26.9303942  25.6185341  62.7973270  27.1088815
   7.5464010  24.7870326   4.8569873   7.0692277  25.6167221   4.8692742
   6.9244879  24.1478848   5.2047610  12.9073453  40.5611086  13.3165801
  12.6314890  40.7170868  12.4133611  12.4239218  41.2084770  13.8298476
   6.4029729  24.2485023  33.2060623   5.9162647  24.3346310  32.3863482
   5.7734388  23.8699603  33.8197589 103.6020316   9.0681982  30.0333929
 103.5097094   8.1589901  29.7486997 103.9659823   9.5215094  29.2729449
  92.5858942  77.2533973  85.8536326  93.2733837  76.8653878  85.3123020
  92.2789541  76.5327819  86.4038460  40.7086745  91.2356146  81.3871341
  40.4890806  90.3273352  81.1796741  40.9118450  91.6323861  80.5400644
  43.6414518  83.7365233  29.1070700  43.3249011  83.1995176  29.8334670
  43.8053646  84.5949649  29.4975066  93.1442226  19.3877149  29.2719531
  93.3068491  18.4994876  29.5895052  93.8610817  19.9072015  29.6359301
   6.8102497  48.6282110  42.2088242   6.7756373  48.9916277  43.0936766
   5.9473014  48.8151217  41.8392086 103.7497069  54.8853445  33.4095526
 103.3582164  55.2644396  32.6226282 103.2686932  54.0692854  33.5470605
  31.5110731  12.1173668  24.5868039  31.2884808  12.6742244  25.3328562
  31.4281368  11.2243605  24.9213076  29.7131133  48.0909967  26.1603332
  29.2909741  48.9302874  26.3436913  30.0669050  48.1889105  25.2763200
  98.9007296   6.3085959  67.5738065  99.7627249   5.9718105  67.8182881
  98.3397832   6.0948345  68.3193772 108.6592032  51.6799021   3.2868671
 108.8679896  50.7839537   3.5512948 107.7128876  51.7520285   3.4114319
  16.9990528  43.9684868   9.9524081  17.7381754  44.0880680  10.5487537
  16.3377047  44.5864916  10.2637291  34.7699904  51.9977522   6.2074125
  35.2049017  52.3254347   6.9946271  34.4371247  52.7831507   5.7731533
   1.5473975  40.3147459   7.7065426   2.3799419  40.2554226   7.2379458
   1.6826597  41.0124111   8.3477914  58.0372707  66.7663714  89.2346415
  58.1765643  67.4505671  88.5798853  57.2382060  67.0304199  89.6907165
  88.9868082  79.4375372   8.2809150  88.8357319  79.8103952   9.1494697
  89.8747934  79.7129583   8.0531836  25.2447319  77.3753548  39.0753698
  26.0618353  77.2876787  38.5845661  25.5031419  77.7896023  39.8986864
  35.8300757  14.7450376   2.9860765  35.4611492  14.7845006   3.8684410
  35.1874185  14.2481720   2.4797696  26.8418217  57.4648857  31.6852999
  26.5173769  56.6784906  32.1241021  26.2234116  58.1512642  31.9356728
  16.4407086  16.5975654  31.7347383  16.5957499  16.1792672  30.8878493
  17.1831465  16.3270700  32.2749686  19.1172099  22.2145510  42.3896122
  19.9044180  21.8123746  42.0224762  18.4169865  21.9641852  41.7869234
  75.6762194 102.0235641  54.3851137  76.4605480 102.5177861  54.6234512
  75.9221792 101.1074509  54.5134592  24.6619010   0.4343809  28.8944006
  23.8170004   0.8841969  28.8881135  24.8503470   0.2916278  29.8219442
  19.9361980  68.5382223  25.9318662  20.0077748  68.3046579  25.0063634
  20.2312183  67.7569151  26.3995743  10.6543756  52.3954678  30.7058644
  11.4776707  52.5661421  31.1633444  10.7182348  52.9066277  29.8990989
  41.8156290  26.1356616  17.6513910  42.7068663  26.4186931  17.8558874
  41.2875652  26.4620280  18.3799970  34.6446109  51.1841965  14.0846658
  34.7060370  51.9665527  14.6327353  33.7057066  51.0652924  13.9413238
  13.2000768  24.0842080  31.1918473  12.3611033  24.3269825  31.5835285
  13.1861782  23.1273627  31.1698294  33.6529255  14.8806429  44.5048380
  34.1148686  14.0472019  44.4141817  32.7991390  14.6431506  44.8666096
  62.0202938  72.9049166  83.0778979  61.9045225  73.8544592  83.1125252
  62.2843686  72.6632961  83.9656566  17.7635765  14.7883952  -0.2009121
  18.2869852  15.3913128   0.3270717  16.9312763  14.7209156   0.2670133
  26.7101455   8.3407557  31.9426870  27.1387529   7.7356374  32.5479650
  27.3976588   8.5880280  31.3242888 103.3391864  57.7852917  20.2482605
 102.5694669  58.1304789  20.7006001 103.1328971  57.8797197  19.3183362
  50.6343508   7.5070417  30.0722003  50.3960705   6.7165756  30.5565739
  49.8097277   7.9817522  29.9679208 100.7016219  51.9042349  37.4972773
 100.1913853  52.1560192  36.7275405 101.6122783  51.9474649  37.2056150
  40.8880281  27.3658156  19.9636734  40.3910351  27.8949738  20.5875492
  40.9474754  26.5035152  20.3749371  26.3594866  24.0555453   3.0192325
  25.6410718  24.1220427   2.3901924  26.2246990  24.7921181   3.6154941
  27.3729610  33.0441189  46.8811321  27.4479437  32.8024530  47.8042841
  27.6287603  33.9660883  46.8533659  22.7302027  27.8845119   0.1914265
  22.9174709  28.1548119   1.0903703  22.3178005  28.6504221  -0.2079938
   0.8759275  21.7668986  12.2859991   0.2243133  21.5090251  12.9380214
   1.7138702  21.5077567  12.6693141  35.4032564  27.3645496  11.7244756
  34.8314738  27.4610591  10.9629095  35.6750560  26.4469528  11.7051649
   3.0711213  26.7216825  12.0442176   2.6018316  26.2246919  11.3741446
   3.5210600  27.4129725  11.5585160  60.6897155  71.0035845  68.0177348
  61.3333026  70.4961046  67.5232713  61.1576620  71.7979153  68.2752197
  13.2861149  48.4723806  27.3850274  14.0166557  49.0592766  27.5802088
  13.2685602  47.8592253  28.1198454  44.7025681  49.9643469  31.8604708
  44.0517330  49.5920229  31.2654757  45.5093384  49.9918747  31.3460732
  29.0788293  50.2952385   1.6087757  28.2843804  49.9305105   1.9987154
  29.3963885  50.9245062   2.2563985  16.8589282  57.1529198  29.8501015
  17.6335859  56.6368866  29.6268320  16.5080094  57.4357653  29.0056586
  12.0455408  54.0903759  34.8205161  11.6987073  54.7842360  35.3813148
  12.5802577  54.5502853  34.1733718  33.4685111  81.2960148  37.9163527
  34.1942620  81.8428993  37.6156211  33.3663535  80.6355476  37.2310972
  80.3783861  87.9985150  68.8422744  80.1614777  88.6819895  69.4763439
  81.0782257  87.4970730  69.2606263  33.6123419  67.5137091  32.6953197
  33.0830503  66.8853569  33.1865025  34.2480898  66.9749212  32.2243977
  36.5377829  90.4938372  85.0815432  36.1288899  89.7447046  84.6481414
  35.9193298  91.2127312  84.9513956  43.9056206  31.7563152  24.7850823
  43.8075924  32.5960755  25.2338862  44.8272657  31.7282033  24.5281577
  42.8539705  49.6806955  33.7936711  42.2371721  49.1150665  33.3290720
  43.4870434  49.9442244  33.1258345  85.4111639  96.1391505  85.5508854
  85.1691071  95.2168521  85.4671689  86.2998072  96.1222514  85.9062232
  27.2075176  24.9299216  17.7551663  27.7769160  24.8862123  16.9869828
  27.6498795  25.5385542  18.3468699 103.7429501  45.9505272  43.1368923
 103.3031721  46.7552090  43.4113264 103.2147921  45.6256580  42.4076843
   5.1075770 102.2307256   8.8538694   4.6260382 102.7455682   8.2063442
   5.5972935 102.8793852   9.3594885  25.3401495  91.6012393  10.1098084
  26.2605263  91.3402056  10.0781846  25.2457453  92.2330212   9.3969482
  23.0205655  17.8683543  29.4760227  23.5485411  18.1616998  28.7334466
  22.1353531  18.1723368  29.2754531  65.8294787  99.4796728  22.9902005
  65.3468409  99.4187745  22.1658301  66.5229806  98.8247212  22.9106665
  14.5544302  29.0274763  34.5715618  15.0175357  29.0593886  35.4086685
  13.8438523  29.6617293  34.6666169  21.9798899   2.9361522  42.6807165
  22.8793287   2.6423788  42.5360203  21.9937301   3.8675153  42.4602556
   5.6489159  11.4897320  88.7427770   4.9399496  10.8549044  88.6398813
   5.2053143  12.3351595  88.8113578  19.2001295  17.9296780  36.3059449
  18.5680115  17.3783314  36.7671132  18.6642349  18.5792708  35.8508849
   6.0370559  31.3576865  29.2006373   5.1985085  31.3007283  29.6587062
   5.7999742  31.4666724  28.2796884  19.0629208  35.8353472  23.1599808
  19.9761283  36.0472703  22.9666615  18.5704243  36.2092519  22.4293137
  37.9589272  30.3974605  15.0049579  38.2882023  31.2326336  14.6728468
  37.2991872  30.1288104  14.3655825  34.6480799  43.9343596  16.8751931
  35.2706814  43.9092207  17.6018059  35.1842666  43.7912560  16.0952854
   3.4392959  35.5174160  57.5320053   2.5833660  35.6273913  57.9461527
   3.9649150  36.2413001  57.8725100  15.4591036  32.9879832   9.4004315
  14.8004079  32.8355145   8.7228584  16.2171447  33.3283305   8.9252800
  14.3711483  14.1642606  37.3050261  14.7738957  14.3055713  38.1617975
  13.6481655  13.5609210  37.4768043   2.9459494  60.2589178  13.2984400
   3.2322916  59.4951773  13.7993813   2.4418040  60.7799864  13.9233828
  54.0729332  30.1172519  10.3976595  54.8471498  30.5614591  10.7433474
  53.9715528  29.3449259  10.9539568  36.8775892  41.4213991   3.6444542
  36.6346455  42.3469687   3.6215168  37.5578094  41.3356924   2.9764819
  53.5890579  35.7501340   1.7171639  53.9928579  35.1314783   2.3258063
  54.3260956  36.2296700   1.3389352   8.7691748  91.4863873  20.7179594
   8.7390280  91.2712860  19.7857285   9.7014987  91.4821339  20.9347200
 103.4245075  38.3302665   3.3337596 104.0261246  37.9732180   3.9870632
 103.7019796  37.9311347   2.5091779  58.5907936  46.8531466  19.3638504
  57.9437113  46.6248798  20.0312400  58.9677763  46.0141516  19.0988874
  97.5229301   7.8497336  63.1618874  96.8706479   7.1681711  63.3238499
  97.4795690   8.0033276  62.2180860  12.6430070  49.3074465   4.8524252
  13.4139407  49.0236902   4.3611249  12.7712727  50.2477646   4.9772471
  41.9062424  40.2232456   2.5933084  41.6750860  39.7123790   3.3690757
  42.8063726  40.5070305   2.7528751 104.6639628  37.6666856  33.0458331
 105.3393747  37.5913739  33.7199092 105.1483477  37.8500819  32.2408676
  72.4409533  72.0745564   7.9225224  73.0957890  71.6932535   7.3376846
  72.9220343  72.7328110   8.4240150  39.8806689  81.4258822  86.5486778
  39.6907843  80.6287774  87.0434511  39.5779935  82.1365198  87.1140228
  54.6873188  52.7361441   2.2704288  54.5251131  52.7626753   1.3274455
  54.3629408  51.8785334   2.5452211  24.6765400  26.0989449  84.1883122
  24.0652586  25.7587978  84.8416628  24.2499424  25.9271309  83.3488332
  33.8353729  35.7814145  27.5998330  33.1315088  35.9949517  26.9872880
  33.6890173  34.8618603  27.8217173  22.5471115  66.1685896   7.3777509
  23.1682611  66.6297913   7.9413974  21.7055798  66.5891933   7.5542301
  23.2927012  37.5580740   5.5240136  22.9066849  37.2445869   6.3419074
  22.5430012  37.8257132   4.9924588  39.2041779  35.2270532  46.0934114
  39.0965176  35.5276585  45.1910400  39.9691820  35.7040381  46.4151001
  19.7338892   0.3500197  80.7970457  19.6845366   1.2945149  80.6496363
  19.4708754   0.2360794  81.7103218  74.0450708  93.4481486  75.7545893
  73.6623899  94.0401324  76.4021592  74.1845528  93.9959963  74.9821644
  13.5436893  78.4206915  19.2382884  13.9164937  79.0258980  18.5972130
  12.6665330  78.7635183  19.4094586   7.0074081  51.0895300   9.2183095
   6.4435685  51.4920712   8.5577971   7.8413737  50.9513283   8.7692738
  33.7198853  54.2576027   4.9504933  33.0333543  54.9238586   4.9186626
  34.4322848  54.6224976   4.4255471  39.2652702  37.7083874  68.1691551
  38.7620926  38.1420779  68.8583231  39.5540619  36.8860364  68.5648489
  68.6703626  84.0627845  71.8420093  67.8871599  83.7558111  72.2987311
  68.4365383  84.9353798  71.5255623  13.1712472  40.8804607  75.1075220
  12.5153005  40.3347969  74.6736813  12.7238929  41.2232304  75.8812237
  52.9024696  95.4677200  37.3368144  53.5766888  96.1084366  37.5629950
  52.4366522  95.3101730  38.1580472  20.1673102  75.1003265  16.4815676
  20.1663375  74.8935890  17.4161744  21.0925722  75.2071238  16.2608540
  67.1497072  36.4649773  18.2895970  68.0159439  36.8679142  18.2303774
  67.3013986  35.5408168  18.0917382  20.1722265 101.7014397  10.1507628
  19.9739767 100.7734144  10.2760541  19.5141722 102.1596326  10.6735015
   7.9771352  46.3273621  24.9256325   7.2295451  46.7995596  25.2922010
   8.2466906  46.8531990  24.1725922  51.0450029  27.6541924  23.1095672
  50.6839037  28.0704236  22.3268867  50.9348726  28.3072972  23.8006210
  11.4067793  65.9527206  40.9455633  11.1739826  66.6410351  40.3224564
  12.3496819  66.0553169  41.0745525  12.0481575  16.4126945   3.9774257
  12.6323140  15.6546032   3.9944598  11.1694038  16.0368049   3.9251742
  59.1435305  86.7381700  76.0394995  59.8905531  87.0295962  76.5622418
  58.7736837  86.0083636  76.5363185  27.6516557  44.8216438   8.4017622
  27.8537869  45.7229042   8.6529619  27.6681161  44.8303127   7.4447429
  19.1660202  34.0170002  14.1092312  18.8977420  34.9215674  13.9479220
  18.7568748  33.7911773  14.9445963  18.5981584  34.2290497  52.2583103
  19.3566525  33.6832857  52.0507956  18.1353641  33.7457013  52.9427290
  69.3456522  62.6323982  79.4764649  69.1953746  63.4219357  79.9963491
  68.8671604  62.7872308  78.6620288  25.0604939  52.7025175  42.8750944
  25.7836270  53.3193064  42.9885912  24.4755459  52.8811264  43.6114120
  22.1785593  23.3132339  42.9896164  22.8991556  23.7846994  42.5716496
  22.2518349  23.5373926  43.9173079  68.3848572  52.9116440  10.4327059
  69.2745686  53.0007887  10.7743144  67.9962921  52.2109699  10.9564424
  59.1360903  48.4965181  22.7289438  58.5700560  48.7516689  22.0004296
  59.8687744  49.1112232  22.6896548  12.7644050  22.2520161  28.1031442
  13.0973363  21.8291140  27.3115993  12.6587343  21.5367937  28.7304592
 100.1457180  76.0966301  40.5962181 100.0091596  76.6554260  41.3612890
 100.1987750  75.2101851  40.9534740  31.6476655  47.0618153  30.1217985
  31.3364649  47.9640484  30.1950669  30.8583856  46.5497923  29.9454546
  24.0573621  77.2751999   2.9292119  23.9802480  77.8056049   2.1361427
  23.8953567  77.8896999   3.6450189  71.6336679  21.4756703  40.7010603
  70.9884834  21.1219978  41.3133383  71.3892031  21.1031985  39.8538685
  48.0048398  82.7777918  83.0387639  47.7010552  82.6451930  82.1407859
  47.2285167  83.0760892  83.5126536   7.7626926  49.3345404   4.7880438
   8.2116741  49.9224043   5.3955483   7.5148982  48.5806656   5.3233021
  30.6753922  21.6647506  38.8223100  30.3599000  21.2789965  38.0050635
  31.3013864  22.3338270  38.5453606  11.8689489  60.8553886  10.2539802
  11.8689167  61.6329670   9.6957642  11.8751585  60.1203775   9.6408331
  76.3686562  79.2975616   0.9044498  76.7166185  78.8539696   1.6779998
  75.4827261  78.9486122   0.8064868  24.8805666  81.5888405  30.7391238
  24.5988297  80.7495594  30.3751636  24.0658379  82.0609951  30.9109187
  41.5363979  82.2416592  30.8764625  40.6467104  82.2037792  30.5253863
  41.8024492  81.3254642  30.9541368  22.0192647  60.5161142  32.1801448
  21.2251544  60.5139256  31.6457129  22.3910546  59.6422529  32.0602679
  56.5691710  14.9946511  27.3431993  57.1993113  15.4363894  27.9124260
  56.8762350  15.1809585  26.4559364  25.9246182  13.6243761   5.4881883
  25.6048989  14.3674719   4.9765041  25.3376603  13.5831940   6.2431836
  24.8485686  18.6860487  86.8994187  25.4268004  18.4775326  87.6331771
  24.4181038  17.8569958  86.6905978  70.3269354  79.6124824  76.3213520
  69.9124995  79.0694340  75.6508510  69.9943772  79.2660793  77.1493881
  10.7743561  43.3302593   9.1757625  11.4676404  43.9651346   9.3560988
  11.2389719  42.5401020   8.9000601  18.5048091  55.2143812  36.7887354
  17.8894854  54.8757935  36.1383748  18.0205226  55.9063101  37.2392178
  52.1032381  18.6822593  10.9558523  52.0831966  18.7998855  10.0061178
  51.1868668  18.7474000  11.2246490 108.7763468  68.4615883  80.3923689
 108.0827061  67.8376111  80.6062548 108.3913437  69.3190464  80.5733906
  55.1261282  56.2014580  29.4985247  54.8425388  55.7836819  30.3117108
  55.5018806  55.4888773  28.9815426  55.1624155  12.0063210  37.2376084
  55.1070261  11.5988541  38.1019783  54.2511225  12.1231806  36.9690657
  40.1610992  98.9751729  51.3782017  40.2473608  98.7187537  52.2963755
  40.8146766  98.4471615  50.9196489  50.8662128  56.2516212  21.0768127
  50.8442545  56.3427734  22.0294094  50.4813957  57.0646381  20.7494783
  14.1705227  42.2570229   2.5852454  13.9908624  41.6117096   3.2689989
  13.9445376  41.8105984   1.7692386  71.4831535 102.7025946  88.1158294
  71.0233680 103.0769929  88.8672638  72.0867649 102.0653018  88.4975957
  15.2930522  42.5582743  34.7651696  14.4823337  43.0570221  34.6640968
  15.5116594  42.2740889  33.8776565  19.4799328  49.2566204  21.8842030
  19.6662593  49.2199039  20.9460330  18.5300457  49.1547346  21.9439077
  75.3823757  52.8886080   6.4495844  75.6881046  52.1120501   5.9808421
  76.1434174  53.4686470   6.4741081  20.5195284  67.1541834  51.2311888
  21.3213229  67.2306871  50.7139778  19.8159194  67.3511934  50.6128454
  43.6893654  89.7644424  22.6182985  43.2213879  88.9723492  22.8825259
  44.5721531  89.6496582  22.9700661  85.2246096  11.4930794  74.4971304
  85.5127325  11.0372946  75.2879994  85.9353580  11.3578865  73.8703983
  13.6781144  47.8568316   9.7017199  13.0258822  48.5357714   9.8745239
  13.8631248  47.9350901   8.7658364  94.2338346   5.4604066  34.7517753
  93.5492538   4.8012174  34.8659754  94.6626447   5.2205671  33.9302969
  22.3158240  26.6034031  18.8311934  22.8650951  27.3453307  18.5780597
  22.0603561  26.7916393  19.7342634  23.1390762  20.0085735  27.2811651
  23.2045341  20.1482725  28.2258511  23.9048457  20.4546595  26.9194531
  74.9880695  15.7363498   3.2113984  75.5779982  15.4308403   3.9005157
  75.3994131  16.5348375   2.8805733  21.4453102  18.0739662  64.1107552
  21.8515898  18.2262728  64.9639671  21.7087103  17.1843168  63.8754361
  93.7803808  79.5382269  68.9287822  93.6023871  80.3885468  69.3306594
  93.5289875  79.6493276  68.0118887  58.0184070  75.9113988  77.9668646
  58.8734046  75.4820546  77.9964261  57.7026955  75.7553824  77.0767979
  46.4705467  32.0760512  42.3463535  46.4983511  32.2327232  43.2902384
  47.3813200  31.9080138  42.1045256  47.2418308  31.4311075  14.0294135
  47.2896051  31.3564587  13.0763257  47.3722696  32.3632669  14.2034853
  50.8873749  49.4021225  27.0604897  50.7888651  48.9218760  27.8826165
  50.2782822  48.9742374  26.4586949  95.3881086  32.4364924  26.0278916
  95.8529140  32.0693302  25.2759743  95.2226700  33.3476257  25.7856154
  18.0907249  57.8631783   6.8393362  18.0573571  57.8844929   7.7957165
  17.4087572  58.4750128   6.5621901  73.0566597  33.3518410  22.4816132
  73.1889248  33.0784559  21.5738678  73.7515116  33.9900470  22.6432061
   0.3275178  78.2991076   1.1957602   0.3527083  77.7969360   2.0102651
   0.6135330  79.1773701   1.4469247  94.0492822  49.8237896  47.5984240
  93.5671331  50.5481434  47.1995878  94.0033830  49.9946880  48.5391235
  59.2303991  22.5666332  41.8325853  59.5240784  22.4900579  40.9247732
  59.7749996  21.9437170  42.3138523  34.0224957  31.2642860  30.0623798
  34.6592093  30.6160259  29.7614026  33.2298064  30.7575297  30.2386570
   5.8184839   4.0141604  86.9324310   5.0343872   3.5469601  87.2207800
   6.5051485   3.3473322  86.9241306 104.6353807   4.3647358  88.0345601
 104.2441573   3.5450527  88.3367061 105.3114929   4.5608065  88.6831437
  35.8508873  39.8056245  33.8629246  35.0770354  40.1696777  34.2928648
  36.2525487  39.2453861  34.5270252  23.3288288  54.6629000  45.4888248
  23.5449958  53.7319756  45.4351091  22.4227715  54.6809959  45.7969904
  98.4169079  76.3882160  14.2543590  97.6034309  75.8837509  14.2543483
  98.5157050  76.6833448  15.1595497  44.1810617  75.2235612  64.8848216
  44.4429240  74.8540743  64.0415327  44.9481258  75.1078399  65.4455821
 100.1012523  45.6286955  40.4490709  99.9407865  46.1166573  41.2567663
  99.8562808  46.2351322  39.7501755  48.9592981  40.4944992   9.4048363
  48.6981440  40.4308462   8.4861541  49.7884130  40.0184679   9.4516790
  36.2187934  52.2923851  20.9825253  36.8855929  51.8956852  21.5430951
  35.6091046  51.5789843  20.7939196  19.5297980  66.3697720   7.3748887
  18.8437426  67.0251083   7.5017405  19.1181552  65.5413723   7.6209313
  21.0463142  66.6135454  29.5474195  21.6648340  65.9510279  29.8552132
  20.9707308  66.4521122  28.6069655  42.4871778  76.2027454  46.6568708
  42.9266262  76.9952774  46.9651079  42.6547861  76.1870050  45.7145882
  34.2777562  34.9816060  13.4401536  33.7704754  35.6865263  13.8426280
  34.2558813  34.2732668  14.0835893   9.2211330  59.4467354  13.2233036
   8.8804609  59.7218752  14.0744638   8.4837985  59.5574665  12.6230454
  62.8536931  81.7320260  88.9073871  62.6804153  82.0056041  88.0066309
  62.3049608  80.9577402  89.0323007  11.6682971  71.7724085   4.7272569
  11.9683969  72.6768398   4.6368337  10.7238710  71.8460274   4.8646337
  19.8834968  67.8851795  43.0820704  20.6808043  68.3799028  43.2712269
  19.9975133  67.5824690  42.1811819  46.8869734  55.2652168   1.0849891
  47.2137880  56.1647654   1.0695481  46.8957567  55.0230598   2.0110098
  33.5296416  40.6947994  25.3842831  33.8454771  41.4611816  25.8629632
  33.4862781  40.9829998  24.4725323 104.9064760  83.3254337  48.5064793
 105.0508572  82.6488590  47.8449440 103.9600320  83.4683895  48.5002661
  39.4505526  16.6183207  73.8147478  39.8515631  17.4476883  73.5547881
  39.1192461  16.7790243  74.6982865  37.9750347  29.1771889   4.6251881
  38.1771016  29.7634244   5.3543860  37.2527814  29.6060133   4.1661772
  35.0715470   3.2841763  27.6515603  34.4752383   4.0264609  27.7498484
  34.5134711   2.5667256  27.3514819  22.0433831  47.0695353  36.4288187
  22.3293495  47.3333406  37.3033834  21.1058164  46.9017029  36.5238690
  44.3916512  41.4983702   0.4060056  45.3242397  41.5200996   0.1914255
  44.1696310  40.5673218   0.4152184  24.1170597  65.6488132  31.7737985
  23.7137866  65.6835365  32.6412058  24.2052984  66.5657949  31.5138078
  46.1312914  70.8768082   6.0631585  45.6608582  71.5838575   6.5047538
  46.6603184  71.3191557   5.3993124  34.1553092  68.6557436   6.0690391
  33.6808801  67.8566217   5.8397901  34.9238420  68.6500549   5.4984629
  35.0449944  48.1704855  46.4388418  34.5261836  48.6802006  45.8165407
  35.8728909  48.0103540  45.9858751  28.8309932  71.4661598  39.0434170
  29.0352845  72.1549320  39.6759415  28.3841300  71.9212866  38.3296895
  21.1991310  15.6329501   7.5544590  20.5992126  15.1045012   8.0808336
  22.0562696  15.2291346   7.6904017  32.9484868  57.0499659   9.3786395
  32.9056239  56.2217331   8.9006984  32.9365540  56.7950249  10.3011870
  51.2532663   5.0204366  19.3219686  50.5486059   4.7297499  18.7430131
  51.6699362   5.7408655  18.8491035  19.4386697  57.6705647  32.7436686
  19.6550667  57.6985121  33.6756682  19.2890668  58.5853767  32.5049829
  53.9697742  18.8000309  38.3740449  53.3025885  19.3249369  38.8162804
  54.6991158  18.7686849  38.9931655  36.6025054  92.6831683  80.9750252
  36.1204859  93.4924086  81.1453735  37.3806230  92.7467641  81.5288489
  36.9925141  75.7986069  38.6608481  37.3389292  75.4279280  37.8491688
  36.7202878  75.0381041  39.1744256  33.0585575  63.1509495  27.7226949
  33.4968424  62.8946733  28.5341501  33.3049273  62.4733543  27.0930910
  85.9188929  20.5521414  70.4433100  85.8484282  19.7670672  69.9002426
  86.7219224  20.9788248  70.1444487  24.6096230  44.6142626  35.1007032
  25.1987815  44.7809935  35.8364511  24.3356681  45.4845524  34.8112559
  19.8657274  61.2047911  30.3918648  19.3662190  61.8671083  29.9143100
  19.8047721  60.4199839  29.8472571  47.6076651  30.9307361  11.2480986
  47.8162813  30.0178218  11.0498548  48.3914518  31.4166689  10.9916210
  53.3764855  90.8152541  87.9455165  53.3376530  91.3275298  88.7531668
  54.2611817  90.9622606  87.6109505  44.1937828  24.4157887  11.7060483
  43.9847946  24.3867970  12.6397049  44.4008875  25.3346014  11.5353870
  21.1628938  70.3610229  27.8389525  21.1821032  69.6832991  27.1632648
  20.3972721  70.1463223  28.3718324  41.7654467  90.4811382  28.7749028
  42.3108435  91.0356331  29.3328571  42.2222042  90.4646873  27.9338717
  99.5887343  58.8000127  77.4816029  99.7433535  58.5442957  76.5722446
  99.2521444  58.0073055  77.8993993  44.9779320  26.2137246  22.1907258
  45.1387167  27.1572590  22.1798348  45.8502054  25.8216333  22.1503210
  10.7218194   6.5592331   5.6388533   9.9014288   6.6671377   6.1200476
  11.1627448   5.8315277   6.0773301  81.8447319  83.0509385  83.3419953
  81.9689957  82.1021780  83.3673720  82.7194563  83.4110626  83.4882830
  25.4726195  19.1039360  57.3032761  24.9827218  18.5131192  57.8752613
  25.6115079  18.6003113  56.5012121  33.6690879   2.9969302  11.9204342
  33.6635375   2.0864242  11.6251719  32.8249955   3.1123653  12.3567986
  45.7622480  36.9842052  10.9305489  45.6060600  37.0903254  11.8689394
  45.9971809  36.0617852  10.8296537  12.7537894  57.0354509  23.3053112
  11.8985212  56.6278315  23.4416842  13.1234109  56.5710926  22.5543237
  14.4551861  83.3944893  23.4486556  15.0760233  83.1928253  24.1487432
  14.9977946  83.7384415  22.7390742  79.3361987  66.0015202  44.7157526
  79.8866953  66.2746716  45.4496288  78.8637127  65.2359629  45.0427246
  44.1158438  23.5665822  17.2408509  43.8060665  23.9818501  18.0457246
  43.3429813  23.1283569  16.8846536  70.3146696  82.5470638  51.3855171
  69.6479893  82.2856522  50.7503510  71.0246992  81.9174480  51.2603378
  13.8285053  68.6680412   0.3146179  12.9603410  69.0092659   0.5292972
  14.3258393  68.7495184   1.1284059  43.8318539  49.2725945  11.8719041
  44.3673468  49.1573763  11.0869193  43.3869410  48.4324884  11.9837642
  29.6615815  29.0117025   6.5102577  29.5257545  28.1128168   6.2106144
  30.4044890  29.3262243   5.9950912  37.2007751  84.8450375  15.0028360
  36.7305756  85.1072788  14.2113996  36.8606520  83.9736366  15.2058458
  61.9717041  89.1163500  41.0354512  62.2396723  89.9005445  40.5564301
  61.8088952  89.4242533  41.9270365  69.3973323  11.4570496  87.6315595
  70.2099388  11.0185310  87.3793617  68.7055221  10.9201738  87.2450434
  22.2137046  55.3161764  11.9838369  23.0235744  54.8104525  11.9161117
  21.5182734  54.6588230  11.9615209  34.6403384  38.3322692  24.9249959
  34.4661283  39.2676330  25.0297832  35.0191212  38.0639338  25.7621050
  51.2867498  45.3027916  21.0120320  51.6254997  46.1560726  20.7411218
  52.0539236  44.8337078  21.3401127  80.8231894  90.0396856  82.6974009
  80.6520907  90.9771284  82.7877180  80.0359074  89.6182283  83.0420743
  32.5001311  70.8070517  26.4472151  32.0981598  71.4768457  25.8940196
  33.0869198  71.2944794  27.0254254  45.1403466 101.7768248  88.6436644
  44.3571482 102.2509249  88.3642654  45.0192163 101.6475018  89.5843212
  67.0798254  39.5607877  11.4466047  67.2250128  38.6247849  11.5846252
  66.8934011  39.9055767  12.3198736  17.5284004  55.2857685  45.4517746
  17.5987613  54.5500422  44.8435068  17.7400398  54.9108219  46.3066769
  15.4121590  64.6146250  17.9653442  14.4970131  64.3366861  18.0039644
  15.7242990  64.5369959  18.8668847  17.4147022  96.3304710  21.4843917
  17.2147381  95.5540562  22.0072842  17.4783206  97.0399666  22.1237707
  70.8348370  78.3867407   2.4746928  71.5077496  79.0668535   2.5042406
  70.9574080  77.8931427   3.2856011   1.3131070  31.3804746  15.4049492
   1.5621659  32.2971988  15.2874064   0.7589762  31.1840796  14.6495676
  16.2628603  39.8626137   6.4047033  16.8446553  40.3196430   5.7973540
  16.2020159  40.4448462   7.1620238  41.0967731  27.0833349  31.1701059
  40.3742552  26.7431450  31.6978121  41.7358303  26.3709521  31.1513948
  26.1082029  40.3875685   2.9650173  25.5043364  41.0640860   3.2714504
  25.5422497  39.7157145   2.5848377  46.9913427  89.7742733  85.2936243
  47.2664205  88.9404853  84.9123617  46.8595925  90.3501590  84.5404773
  12.8239393  60.1261902  41.1843061  12.2924066  59.4922066  41.6657305
  12.6336706  60.9655142  41.6033173  58.6904955  42.8086662  15.9953249
  59.2669964  42.4449062  16.6673028  57.9421949  42.2121859  15.9732437
  73.8643781  88.0707081  83.7176280  73.7580649  87.8052600  84.6311198
  72.9707543  88.1289943  83.3795922  78.0631781  81.3695145  17.5962925
  77.9870415  80.4986191  17.2064602  78.5671377  81.2298393  18.3980072
  70.7166258  82.3830017  76.4481239  70.4723779  82.9352149  75.7054024
  70.6444756  81.4884003  76.1153905   0.3633272  86.8388653  40.6591463
   0.5835468  86.6129017  41.5628481   0.5870523  87.7664185  40.5828714
  51.1672449  44.0918636  37.1235561  51.5591717  43.2528400  37.3657727
  51.3960791  44.2057037  36.2011123  57.2576904  56.2715340   9.7571075
  56.3270807  56.4403963   9.9043620  57.2740173  55.5879641   9.0872580
   5.6777281  38.1143522  51.5147829   5.9621382  37.2010803  51.4790726
   6.1269522  38.4753990  52.2790289 107.3850933  98.8606747  75.7592075
 107.4566523  99.4810589  75.0337903 107.3165861  99.4111594  76.5392737
   6.4674658  52.3146677  18.3075929   6.9582462  51.5262747  18.0756402
   5.8280200  52.0170164  18.9546978  34.2062879  46.1837101  24.7652078
  35.0459266  46.5439606  25.0506163  33.5865331  46.4554453  25.4421830
  42.3023891  43.8855076   7.7225292  42.7874374  43.7047148   6.9173741
  42.9750156  43.9323950   8.4019494  71.1154964   0.3045294  88.6026700
  71.2357927   1.1386416  89.0565670  71.4552178  -0.3508833  89.2119731
   2.6963522  87.9388889  72.3271875   2.5099900  87.9264959  71.3883870
   2.4612572  87.0616873  72.6296430  37.2168112  49.8066425  27.3407364
  37.5271583  50.3435469  28.0698776  37.2499561  50.3900576  26.5826058
  38.3756328  46.1700869  18.5099196  39.0295911  46.5241671  17.9072595
  38.1241941  46.9153929  19.0553796   4.7477859  52.2245264  23.0387759
   3.8843140  52.6249266  23.1403971   5.2361453  52.5090408  23.8112974
  15.2862453  45.7430840  11.2890255  15.8290482  45.7623339  12.0772052
  14.4992530  45.2657700  11.5517926  10.8981014   5.2395269  80.4189156
  10.0898291   4.9243948  80.8234094  11.3043000   5.7873270  81.0905914
  29.2075944  78.9310217  40.3963900  29.2908812  77.9819107  40.3043175
  30.0868893  79.2268705  40.6320667   9.0820181  67.7525663   6.5699005
   9.8896086  67.7533913   6.0560638   8.6375201  66.9436932   6.3161695
  30.7314801  68.7482166  26.8745852  30.8187819  67.9757214  26.3161421
  31.4374375  69.3293810  26.5915537  31.6575527  37.6677251  16.8052709
  32.3947811  37.6235652  17.4141848  31.0778880  38.3316159  17.1787262
  37.3229098  58.6078596  13.9144135  37.9280591  57.9045057  14.1496146
  36.5524244  58.4537029  14.4610584  43.7338591  62.9988098   9.0896606
  43.2940340  63.6554956   9.6296102  43.1131983  62.8134584   8.3849216
  50.5665159  23.2077098   5.6516576  50.4083109  23.8117361   4.9261537
  49.8050642  23.3136654   6.2219167  12.6980770  21.8566465  42.3136330
  11.8208110  22.0159912  41.9654274  12.8115189  22.5231409  42.9912376
  16.3268673  50.6839228  10.4727030  16.4097524  50.5540037   9.5279908
  15.4899931  51.1360359  10.5797803   0.9061052   4.7087071  88.7092740
   0.7877446   5.2733109  87.9454383   1.6500450   5.0897142  89.1757690
  17.5694728  40.6730175   1.0226403  18.0212581  41.2971449   1.5906087
  17.0196712  40.1626348   1.6171676  53.5544729  34.6045256  20.7840228
  53.0715084  35.0368047  21.4883780  53.4917212  35.2090240  20.0445127
  29.3540716  74.5585394  27.9488730  29.8662448  74.3825245  28.7381291
  29.8807025  75.1887274  27.4571872  15.9941435  48.3641005  25.6390858
  16.0339546  47.4258184  25.8242083  15.5256867  48.4243011  24.8065257
 102.5582472  85.4219898  80.2516286 102.0744530  85.6342705  79.4534354
 103.1096235  86.1885389  80.4085218   2.4701143 100.3632819  11.2842786
   3.0474807  99.9907081  10.6178951   1.5993882 100.3390737  10.8874381
   0.0128444  48.1936312  44.2407274   0.9229209  48.2959509  44.5191574
  -0.1808140  48.9957142  43.7555599  45.7207060  58.3281660  12.4065340
  46.6697168  58.2069302  12.4367666  45.5866957  59.2371225  12.6749921
  22.9823351  68.1618643  10.0081587  22.2035241  67.6431847  10.2098024
  23.6500573  67.8358459  10.6115592  11.6367364  22.1178627   7.9876542
  11.0412991  21.4155984   8.2493997  11.5108943  22.7977371   8.6495948
  48.3185959  30.9905839  37.0442843  48.2833958  31.2943029  37.9513383
  47.4534416  30.6136131  36.8841839   2.0180999  30.2617073  33.5846472
   1.1553785  29.8609281  33.4782553   2.4802843  30.0544477  32.7724504
  81.4674759  50.0839424  13.9470994  81.7850780  50.9814453  14.0463221
  82.1060658  49.6664190  13.3690739 108.6419550  87.6522478  64.6664874
 109.1525475  87.0231112  64.1568677 108.2638518  87.1342071  65.3770559
  86.5374104  93.5609110  83.9926236  86.4411751  92.8987464  83.3081453
  85.6786553  93.5964163  84.4139503 106.1125777  63.2848883  20.3244042
 106.9001242  63.2716656  20.8683062 105.6978972  62.4368238  20.4827189
  41.8426895  91.6103268  33.9121771  41.2657166  92.1788502  34.4221950
  42.6538610  92.1105576  33.8227105  51.3103724  63.0295086   8.7981731
  51.8441534  63.8159800   8.9112163  50.4417276  63.3604002   8.5696995
  41.3599087  12.7682755  78.0348234  41.7479159  13.4252855  77.4568777
  40.4178168  12.8411743  77.8818958  30.9645033  66.0930395  25.8033061
  30.2908826  65.6185055  26.2904239  31.6077757  65.4236603  25.5701375
  62.6457357  18.2366717   8.4237891  63.3126116  17.5833285   8.2124889
  61.9289351  18.0522335   7.8168160  13.6962248  11.9806120  82.5108026
  14.2243410  11.1867449  82.5950329  13.8412167  12.2702906  81.6100817
   9.2373043  65.8417797  27.7643991   9.6599209  65.0809622  27.3659229
   8.5923755  66.1244535  27.1160197  92.3564864  34.1824055  51.1211586
  91.8038536  33.4023428  51.1694384  91.8347109  34.8154306  50.6279469
  33.9519049  20.0746939  72.3456042  33.4862305  19.3384621  71.9489448
  34.4022585  20.4957316  71.6133873  28.3883452  61.1572695   0.3901636
  27.4691153  61.1934328   0.6546211  28.8687634  61.0380745   1.2094452
  18.4746624  29.0333006  80.2115219  17.9069830  28.4240076  79.7395729
  17.8711439  29.6430513  80.6360297  18.6066319  23.5736582  70.4331117
  18.2139803  22.7650663  70.7621066  18.7735106  24.0955040  71.2180047
 106.0931053  32.5458262  71.8490987 106.1171188  31.5889666  71.8586879
 107.0068755  32.8094408  71.9575589  69.2710114  33.5215640  38.1857634
  68.8008881  33.8723135  37.4293303  69.4678307  32.6158714  37.9465628
  35.6820059  72.5611067  37.3937988  35.6725287  72.6433516  36.4401865
  36.0928202  71.7120743  37.5569034  50.2671794  95.2405461  80.3985988
  49.9510554  96.0246047  79.9496578  51.2153236  95.3607520  80.4515629
   2.0575812  90.5179962  70.0900774   1.5750697  90.3069099  70.8893626
   1.4446499  91.0383209  69.5706467  75.6168795  26.9877434  23.9138889
  76.2825918  26.4203000  24.3025661  75.9541702  27.8744936  24.0409398
  33.7240911  64.3625212  46.2767553  34.4012666  64.7842503  46.8057251
  33.1120324  63.9990425  46.9166803  31.4724708  56.9497538  39.5033717
  31.1653471  56.9492912  40.4099655  31.4886022  56.0253477  39.2554879
  76.9418526  48.2999420  15.1853883  77.3873520  48.1146002  14.3587029
  76.0820389  47.8899527  15.0912774  55.1804447  62.4388313  25.7316732
  55.2411985  61.5189457  25.4740882  54.7983599  62.8759336  24.9706316
  14.6484375  50.5798149  29.3783998  14.3790555  51.1651897  28.6705828
  14.9762011  51.1648798  30.0614119  62.9571438  46.9335985  32.4901867
  62.9501200  46.3342857  33.2365179  62.4439287  46.4851522  31.8180704
  36.9123769  39.1832209  40.3165960  36.5605736  39.1470194  41.2060642
  36.6225314  38.3661103  39.9109483 109.2809760  37.6636028  23.0702567
 108.3901559  37.9964519  22.9612565 109.4423287  37.1479130  22.2801542
  19.8108327  74.8698807  42.8185511  19.8604715  75.6624031  42.2840643
  19.5953274  74.1747665  42.1967697  58.5566686   3.9995779  34.2753959
  58.1063603   3.1839288  34.0559077  58.3957027   4.1176046  35.2115536
  55.6821966  68.3683300  21.3960910  55.8257580  67.8101206  20.6318736
  54.7710752  68.2081509  21.6419244  21.7320251  54.9407387  36.4679337
  21.8295097  54.3648911  35.7095599  20.8902168  54.6928740  36.8502355
  17.8795792  20.0171206  86.7362949  18.5965325  20.5780527  86.4403831
  18.1609465  19.1302368  86.5115728  66.8382168  45.0829649  14.6064651
  67.3297453  44.6336269  15.2940142  66.0633707  45.4263449  15.0513685
  25.0293303  71.5730381  19.6793497  24.2230630  71.2500954  20.0816846
  24.7721839  71.8173170  18.7902856  80.4463593  97.1351966  73.2399385
  80.3020493  97.0227965  72.3003785  79.7342793  97.7079304  73.5248046
 105.6198759  69.2584705  18.3796990 104.6712382  69.3805265  18.3420122
 105.8483047  69.4371891  19.2919004   8.3906591  59.3749666   2.6334098
   8.1331021  58.4908724   2.3721127   8.8027143  59.7449875   1.8526883
  15.8381201   7.2986099  87.2121477  15.7346369   7.9753515  87.8811313
  15.0688292   7.3968145  86.6511001  39.9342632  46.4036560   2.6811916
  40.4630661  46.0308456   3.3866072  40.0544405  45.8007812   1.9474828
   5.8933437  43.8029480   7.8845680   6.1416918  44.3778467   7.1606559
   6.5421367  43.9811945   8.5653967  33.3979154 100.2506638  42.3778391
  34.2688847 100.2686882  41.9812012  33.4779215  99.6314716  43.1033945
  32.3516393  44.6223879   6.5349036  32.9036832  44.4570732   5.7706064
  31.5995026  45.1020575   6.1878562  30.6203437  55.7994795  42.5967598
  30.7388282  54.8943472  42.8847313  31.3855815  56.2617493  42.9387426
  57.4121618  86.0230064  12.0131826  56.5347385  85.6424141  12.0519912
  57.3319435  86.7469978  11.3921821  36.9104600  50.0086594  24.2166424
  36.6154480  49.4869471  23.4703088  37.6871943  50.4672098  23.8962555
  45.8446074  52.6079702  21.0280800  45.3702974  52.2167540  20.2944517
  46.4386749  53.2381630  20.6204438  18.5331249  41.0129690   4.8208722
  18.4522748  41.9663906   4.7947428  19.3850410  40.8338404   4.4228965
  66.0417843  57.4363375  32.5276423  65.9814024  57.3924971  31.5733528
  66.9707298  57.3018551  32.7152824  38.9465954  87.7973803  47.9502194
  38.7123253  87.7827486  48.8781969  38.1319096  88.0227049  47.5010531
  47.9131031  70.4996872  15.1324272  48.7725973  70.7691431  15.4562974
  47.7031040  69.7132874  15.6361175  16.0410452  56.5795183  42.1395826
  16.0447872  57.5247192  42.2906303  15.1232457  56.3252497  42.2356272
  51.3765907 102.8607178  19.1577148  51.1305952 102.1868801  18.5239518
  50.7939863 102.7129745  19.9026823  44.8609734  52.6337624  30.0530267
  45.0220394  52.4826097  29.1216588  44.9606991  51.7714405  30.4563737
  28.3051682  59.1637135  15.6478894  28.9977741  59.4483232  15.0516284
  28.2290435  58.2219648  15.4944444 107.1826544  17.7037832  57.2360794
 107.4008479  17.3232147  58.0868380 106.4818730  17.1467659  56.8971579
  44.0426445  87.7551651   5.6355715  43.6526966  87.2927666   6.3774365
  43.3131838  88.2331276   5.2410215  81.7085233  11.6947958  60.5880301
  80.9762874  11.8291685  59.9863617  82.2589984  12.4692413  60.4721014
  27.4205137  29.2289564  83.4860759  27.3621870  28.6851904  82.7004902
  28.2683350  29.0051100  83.8699053  35.6899285  65.2074385   6.4203668
  36.3878083  65.6128550   5.9057456  35.0156450  64.9869394   5.7777536
  69.6827602  82.2066402  25.3255939  69.3370438  82.9478741  24.8283195
  69.8065186  81.5173149  24.6730971  61.0989857  46.2459087   2.8004348
  61.1569595  45.3274202   3.0635792  60.4969168  46.6386080   3.4325227
  81.9288921  46.3397408   7.1519941  81.9695759  45.5900145   7.7457005
  81.3131523  46.0719061   6.4698207  61.5458822  71.5656567   8.7994438
  60.7473135  71.8772125   9.2254168  62.2199249  72.1898270   9.0683514
 102.8395715  13.1456492  60.4030053 102.9250851  12.1926186  60.4285138
 102.2541847  13.3139202  59.6646039  47.6012877  54.5192995  87.0749811
  47.1124235  55.0894713  86.4815600  47.6299790  55.0017350  87.9012162
  58.9916325  45.2763414  30.9230971  58.2199812  45.8023024  31.1332273
  58.9779902  44.5647287  31.5631390  68.5257498 102.8236827  62.5141613
  69.0650669 102.1558627  62.9377024  67.7001420 102.3787888  62.3226635
  50.1124525  49.0599108  13.2695138  50.4265594  48.8495493  12.3901296
  50.8314419  48.8054657  13.8479054  14.4651711  24.7513509  17.9823494
  14.7707260  24.2916131  18.7643409  15.1313221  25.4197073  17.8218126
  19.5732714  28.0222151  83.0654352  20.2978493  28.4985563  83.4707956
  19.4788862  28.4207365  82.2002743  38.7163782  37.3190498   7.8025264
  38.1832933  37.1851134   8.5861790  38.8185167  38.2688451   7.7417874
  75.8192431   6.4984390  84.2766611  76.6164225   6.1140749  83.9119677
  75.9962615   7.4388096  84.3011512  33.3946371  73.3652020  51.7117262
  32.9362392  73.7378168  52.4648952  33.3877969  74.0639019  51.0575056
  25.6743979  67.2015190  73.5823727  24.7987461  67.3938465  73.2469988
  25.5702209  67.1943426  74.5338583  47.8412199  95.6627846  17.0699131
  48.2902336  94.8391628  17.2603452  47.0928478  95.6711292  17.6666558
  45.8527422  54.8074198  17.4692190  45.5085325  54.9521303  18.3505881
  46.5296412  54.1402674  17.5829923  42.6910400  54.6974039  17.3277879
  41.7971468  54.3783140  17.2038317  43.2000399  54.2534733  16.6494977
  26.3798500   3.2441494  84.1547452  25.6223656   2.6703808  84.0397106
  26.0553290   3.9635584  84.6963792  14.1457140  64.4651175  11.3855600
  14.4235158  65.3707981  11.5226722  13.3260083  64.5374346  10.8965969
  69.5305967  58.2364607  11.3815320  68.6927366  58.3718395  10.9389293
  69.6119356  57.2855330  11.4546871  30.1813531  48.4729385  23.2992363
  30.5998993  47.6193428  23.1877661  29.5444727  48.5223246  22.5863695
  43.4360933  98.8566685  25.8551884  43.0646658  99.7285748  25.9895897
  44.2064857  99.0063858  25.3071737   7.7086998   8.4552738  86.5616529
   6.8085314   8.2360670  86.8022309   7.7387072   9.4115135  86.5922545
  39.0961957  27.8825355  40.7199478  38.2525921  27.8369975  41.1699343
  38.9204764  28.3987856  39.9332809  43.5612297  24.6591973  14.3711591
  43.0121565  25.4330826  14.4970751  43.7316847  24.3397212  15.2572238
  21.5051794  81.3584137  51.6715574  21.2665057  80.4584789  51.8937492
  20.8215594  81.8938923  52.0742464  32.8892779  55.3898239  30.2119613
  32.0055819  55.7546043  30.1645255  32.9511499  55.0260830  31.0951924
  51.0594702  62.3222208  13.5333049  50.3869057  62.1591759  12.8720164
  51.8829489  62.1063042  13.0957079  24.0655541  92.6924706   5.0085521
  23.5417891  92.8073025   4.2156360  24.4796109  91.8362904   4.9001870
  15.3824139  80.6876755  32.7676225  14.8048484  80.2392292  33.3853197
  15.6264508  81.4987659  33.2134938  38.7274289  96.2297726   9.1814226
  38.7272024  95.6823540   8.3962047  39.4542766  96.8383503   9.0489125
  25.2881503  50.5446625  10.4201198  24.4146562  50.8778429  10.6256247
  25.5756235  51.0705709   9.6737885  29.5167136  86.9099998  30.5215907
  29.6633697  87.6960182  29.9953747  29.7230005  86.1849308  29.9317169
  84.4496883  82.5002193  22.8939271  85.3962220  82.3606014  22.9224539
  84.0861286  81.6371346  22.6961184  12.0415497  87.7507687  35.4715824
  12.6110280  87.0058441  35.6639624  11.1733258  87.4692822  35.7599998
  69.7986269  63.8217163  17.7517176  70.6014585  64.3300533  17.8669584
  69.3571329  64.2360497  17.0103371  70.5997181  71.8272448   0.9416425
  69.6992207  71.7057753   0.6406734  70.5214357  72.3945427   1.7086351
  55.4126120  50.9710741  21.5001011  55.3513765  51.8988466  21.2726879
  55.5610371  50.9655476  22.4457073  72.4188423  53.9364576  26.6676021
  71.8236780  53.9279747  25.9179759  73.2374239  54.2900038  26.3195229
  32.9095721  80.9171104   4.4292870  32.5644326  81.0346317   3.5442460
  33.8587737  80.9869385   4.3274391  27.4602246  62.0151854  24.3846750
  27.8423619  61.4232111  25.0325704  26.9541597  62.6418161  24.9018478
  43.9412117  61.9533682   1.9610113  43.5400820  61.0919142   2.0760018
  43.4882498  62.3296928   1.2064020  18.2085396  26.5695641  67.9440896
  18.5834385  25.7329199  67.6689403  18.9627196  27.1522305  68.0332177
  52.1436357  96.7046833  21.9207883  53.0037022  96.8994999  22.2930264
  51.5307617  97.2061634  22.4585056  52.7601814  35.0019169  15.5800247
  53.4596062  34.7451735  16.1809576  52.3869371  34.1734815  15.2789974
  77.7350235  46.6008139  22.3702478  77.7201700  45.7271862  21.9793653
  76.8194389  46.7849064  22.5801182  43.3091021  89.7933483  19.9378717
  42.8537273  88.9570713  19.8404562  43.4615850  89.8748016  20.8793330
  57.4526739  50.8816624  29.5902729  58.1312180  50.4749012  30.1291156
  57.7197456  51.7981863  29.5203543  73.4959459  92.8592777  28.5359645
  73.4071398  92.3923874  29.3668461  74.4311810  93.0515194  28.4680247
  87.5910011  95.4364928  77.7829115  86.6466061  95.4678401  77.6300578
  87.6952091  95.7084664  78.6947243   7.3502666  53.7609911  23.5846138
   7.2637230  54.1694641  22.7232814   8.2762420  53.8613701  23.8053489
   1.9489567  49.7295332  26.0411406   1.4798267  49.5037222  26.8443584
   2.8712967  49.5885420  26.2547803  66.1130238  59.2359447  26.4936709
  65.3976011  58.6042500  26.4204597  65.7218885  60.0714445  26.2383556
  39.5731878  58.0497265  30.7654715  40.0865507  58.8426542  30.6106949
  39.8974800  57.7137375  31.6010427  53.1416273  71.3755608  11.3474727
  53.6669827  70.7817888  11.8838191  52.8007364  70.8240128  10.6433272
  91.5263309   6.1766359  85.3918885  90.7962933   6.3634369  85.9821297
  92.0093694   7.0013830  85.3398998  47.3131062   8.1997797  82.2454576
  48.1236054   8.0471489  82.7312796  47.4035050   9.0886519  81.9019948
  59.3756390  65.5003786  15.6044447  59.2614031  64.5516109  15.5494750
  59.3816566  65.6869030  16.5432763  57.9254770  11.4322126  37.6930690
  57.1380472  11.6300619  37.1860743  58.5804605  12.0506096  37.3693156
  84.4198027  12.4272415  88.4406392  85.1437154  12.9274437  88.8174459
  84.4305136  11.5959808  88.9151073  53.4857035  44.1312313  21.8086052
  53.5338449  44.3960476  22.7271843  54.3984556  44.0885448  21.5234923
  84.0572848  20.6251165  72.7833311  83.9722731  19.7336456  72.4452786
  84.8765685  20.9468147  72.4071436  55.4459333  49.0847731  29.5946407
  54.7807264  49.3992329  30.2068901  56.1162663  49.7680569  29.5975590
  20.8974409  66.1868763  14.2882562  21.7390132  65.7449913  14.1754377
  20.9737325  66.9846392  13.7648165 106.1668888  49.3260401  77.0842807
 106.9267908  49.2517609  77.6615732 106.5387741  49.3710699  76.2034254
  79.3143940  40.8437729   6.3526124  78.7538624  40.7795620   7.1258610
  79.5397425  39.9371266   6.1441910  64.1637222 102.4178704  83.2378350
  64.0780083 103.3512314  83.4320431  64.1702977 101.9942483  84.0961670
  30.9824014  75.4941654  17.1117902  30.3202462  75.0613165  17.6507020
  31.3872576  76.1338234  17.6975834  58.7210798  89.7846985  28.7797999
  58.9934826  90.0978661  29.6423292  59.5065975  89.8610973  28.2381797
 101.5537896  36.3148615  85.7653131 102.3786559  35.8817503  85.9849523
 101.4698257  36.2040255  84.8182665  28.2977486  37.2662663  41.9509459
  28.3769178  36.5795636  41.2888241  28.8770628  36.9843364  42.6588631
   6.0099198  46.5662596  87.3074474   6.1624552  46.0059378  86.5465288
   6.6829516  46.3050959  87.9359791  21.4239526   7.8692174  15.0372946
  21.6725206   7.5839102  14.1580653  20.9650850   8.6978698  14.8994243
  20.7273936  49.7529650  11.4842117  20.1219559  49.1045427  11.1247325
  20.9602284  49.4106627  12.3472595  51.3118029  88.3578682  10.9594643
  50.6963921  87.6361561  10.8305001  51.4473772  88.3907127  11.9064450
  25.6898260  63.0559158  20.9175563  26.0505772  62.1993542  21.1464429
  24.7415948  62.9407215  20.9793448  39.3720222  53.6232185  22.1271157
  39.2377734  54.5643711  22.2386312  39.7773814  53.5397100  21.2640142
  54.7208738  78.2833767  13.3044720  54.8069525  77.3444986  13.1391525
  53.8760281  78.3724356  13.7455368  61.1802474  95.5127009  79.1131263
  60.5697790  95.0274333  79.6681683  61.7283574  94.8377522  78.7128143
  51.1398506  56.7087269   7.0209110  51.2884760  57.2349453   7.8065574
  51.9467783  56.2051201   6.9137615  57.5695324  49.1694021  33.2559347
  57.1370506  48.3577490  33.5212851  56.8517923  49.7827911  33.0983543
  52.6257359   1.7104448  21.0765934  52.9530154   2.2352804  21.8071151
  53.3385443   1.1025346  20.8801699  46.7524433  66.9672823  22.5666785
  47.2674751  66.8166113  23.3593154  47.2817373  66.5930462  21.8623853
  69.2710495  98.6009884   9.2261577  68.7305403  99.3770409   9.0784138
  70.1428223  98.9485836   9.4143730  31.2399411  59.4511747  16.6570127
  30.3475976  59.1540575  16.8349934  31.6142368  59.6169519  17.5222588
  46.9169092  63.3164740  27.4595046  47.6989317  63.8561535  27.5753713
  46.2304449  63.9382553  27.2178817  42.4955082  84.0432739  32.5819111
  42.9624796  84.7368240  32.1159077  42.1675062  83.4687424  31.8901324
  19.9798870  79.6953154  33.2267928  20.5109739  78.9202881  33.0437326
  20.0845599  80.2461052  32.4509645  50.9514666  64.5895243  20.0993609
  51.8419456  64.9143171  19.9659741  50.9806776  64.1532707  20.9508657
  46.2622452  54.7848129  23.2707024  46.4699984  54.8515701  24.2026973
  45.3077221  54.8456955  23.2331276  86.8614949  17.9854786  62.5096178
  86.9790734  18.8525999  62.8975725  87.7057232  17.5514996  62.6328039
  44.9099731  49.4124651   9.3847394  45.8092690  49.4887304   9.0658677
  44.4831753  50.2179384   9.0926951  39.1192746  55.8729553   4.8115826
  39.5234680  55.7177591   5.6652647  38.1855249  55.9636736   5.0016212
   4.9118826  90.3792191  65.1810455   5.5198252  91.0799026  65.4170084
   5.3678572  89.8860741  64.4990396  61.2253801  85.6357297  65.2009098
  61.7084519  86.4334496  64.9852364  61.8668762  85.0792750  65.6425779
  39.4605470  65.6453180  16.0870159  39.6878386  66.3162470  16.7307770
  38.6886454  65.9933949  15.6406546  95.9536839  64.0757847  29.6814609
  96.8104649  63.8968706  29.2939925  95.7938194  63.3324194  30.2629089
  57.0146656  61.2358999  16.0459626  57.2803640  60.3455639  15.8158791
  56.1861515  61.1255932  16.5124726  55.6858015  80.5775261   7.5042707
  56.0045910  81.0648537   8.2639557  56.3427448  79.8955822   7.3642677
  45.8659887  51.9850588  24.0434098  45.6884670  52.8105402  23.5925245
  44.9997377  51.6282845  24.2397523  49.5761728  18.9279521  11.7089617
  49.2681932  19.4915748  12.4186885  48.9624405  18.1934273  11.7029285
  23.6083723  48.3525774  72.1061652  22.6853920  48.2512304  72.3386960
  23.6411549  48.1641981  71.1682563  12.7055991  71.4861298  11.2568986
  12.8348732  70.5723333  11.5108633  11.9767070  71.7850065  11.8006074
  61.0264111  76.3504982   3.5267788  60.3123093  75.9734488   3.0128485
  60.6498814  76.4865732   4.3962258  63.2841984  91.2558516  82.2434186
  62.7474681  91.9888409  81.9419633  62.6807347  90.7072958  82.7445667
  35.8787465  67.5263786  44.9131298  35.5079079  66.8718672  45.5050135
  36.0205293  68.2954550  45.4650784  32.2521758  69.7908497  20.5318356
  31.9856405  69.5361423  19.6484816  31.9601440  70.6983519  20.6178164
   3.1404854  35.7725260  84.4349407   2.3628975  36.1556074  84.8409359
   3.3831288  36.3940069  83.7485628  29.6276379  58.6601973  27.6750994
  29.2446089  58.9144039  28.5146809  30.0404835  57.8138161  27.8466439
  33.2034469  69.4484377  23.1196022  33.1430888  69.5174360  22.1668029
  32.6741338  68.6814499  23.3382106  30.6718469  57.7824831   2.3027836
  31.2548232  58.2325983   1.6914187  30.3096223  57.0551157   1.7968565
  18.3638370  62.7475262   1.4325234  18.5455763  63.4693480   2.0343339
  18.9059174  62.9327822   0.6656718  36.1330986  89.3304253  23.0611634
  35.9328341  88.4559822  22.7272773  35.2985263  89.6543789  23.3999443
   7.6465094  14.3835473   9.1880453   8.2842863  13.6760962   9.0932590
   7.0306671  14.0640652   9.8475158  42.2014952  37.0338202  14.6879542
  41.8329191  36.9392061  13.8096416  41.4443779  36.9869494  15.2717435
  72.9551888  69.9590158  35.2895713  73.8828135  70.0760508  35.4946327
  72.5066376  70.6102037  35.8290076   9.3895811  46.1639595  13.9448464
   9.8217231  46.9489241  14.2814612   8.4760320  46.2593031  14.2142332
  85.6178942  32.0460817  66.2583463  85.1655152  31.3979265  66.7982333
  85.3688791  32.8891203  66.6371577  78.9746014  81.9957789  83.0441629
  78.4889475  82.2462495  83.8300638  79.8632399  82.3157700  83.1996016
   7.7138067   9.8161718  66.2978761   7.3893048   9.1523954  65.6893246
   7.9715468  10.5486748  65.7381933  35.6510615  65.6188774  32.0246887
  36.1158991  65.0546980  32.6426363  35.9596872  65.3365088  31.1637282
  39.8324466  70.8813334  40.3408241  39.2161679  71.4911461  40.7464886
  39.5998073  70.8879280  39.4123459  78.1413380  99.9657782  69.7977965
  77.3191086 100.1068982  69.3284862  77.9663674  99.2168578  70.3676538
 103.2701269  88.0410822  49.9459236 104.2041889  87.9352625  50.1263683
 102.8676287  87.2444185  50.2916949  65.8472291  84.6058591  81.4850842
  65.6400100  83.7991055  81.0134511  65.1332108  85.2033671  81.2628327
  51.5032721  76.7018223  20.8105588  51.1492348  76.7908335  19.9257052
  52.1439075  77.4091816  20.8844876  58.7949276  83.6301899  57.8216791
  57.8692722  83.3947563  57.8846788  58.8285494  84.5458603  58.0985403
  87.9779770   8.0551979  76.1284809  88.0973604   7.9850218  75.1813512
  87.2974541   8.7197754  76.2355201  65.3187672  75.8889063  80.5764328
  64.7753063  75.8812817  79.7885095  64.7641531  76.2891897  81.2460660
  24.0585161  32.3000166  84.1919954  23.7053849  32.0901987  83.3274125
  24.0200783  31.4735911  84.6734269  55.8405113  81.4651203  46.1324596
  56.1997032  82.1048832  46.7472029  56.5903282  80.9244633  45.8840704
  74.3113470  61.3020277   6.4731079  73.6556530  60.6126070   6.3682497
  74.8101330  61.0423708   7.2477186  96.4405430  83.8990879   5.4380244
  97.1838893  83.4344864   5.8224851  96.7290236  84.8102474   5.3850257
   4.9555756  35.1819536  88.5282178   5.5688168  35.8538649  88.8260458
   5.3059412  34.8947165  87.6850245  36.6376042  93.5891628  18.3017039
  36.4944482  92.9695225  19.0170884  36.1221266  93.2392693  17.5750089
  62.2363377  67.0514536   2.7468508  62.6400948  67.1998787   3.6019430
  61.3588810  66.7269802   2.9493770  48.0095911  75.9533548  12.1260309
  48.0770254  75.0385284  11.8525684  47.1137428  76.0405636  12.4517322
  21.6929985  16.7613766  85.7125737  22.6341130  16.6335556  85.5934425
  21.3682581  16.9784567  84.8387017  76.8402100  63.5827255  39.8439050
  76.9730759  64.3427849  39.2774367  76.2503052  63.0147886  39.3482327
  48.7053537  74.5618010  24.2607117  48.6745024  74.8975515  23.3648586
  48.4531784  75.3077936  24.8048949  57.0844078  79.5838547  63.0516148
  56.5918350  80.2779579  62.6136303  57.9631853  79.9468756  63.1620598
  99.4525312   7.3384489  33.2492375  99.9392580   6.5373910  33.0552197
 100.1033996   8.0368818  33.1800413  20.6953583   4.4649518  50.1450968
  20.0368939   3.7719072  50.1936197  21.5021286   4.0506662  50.4512167
  41.3375880  23.5947201  88.4288124  40.9671093  24.3007347  87.8991684
  40.7498671  22.8531477  88.2842548  95.3393745  87.6471901  21.4916492
  95.8476257  88.3907032  21.1674595  95.9580517  86.9168091  21.4936972
  47.6249790  85.1685143  48.3539248  48.3402634  84.6010113  48.6412239
  48.0618238  85.9315586  47.9755592   8.1209255  22.8353760  66.6823547
   8.6574103  22.6478169  67.4525730   8.1180550  22.0161936  66.1872141
  20.8838536  39.9859926  80.8229982  21.5630509  39.4535658  80.4089444
  20.0707985  39.5092222  80.6560688  86.4740899  61.7459986  72.7134304
  85.5471506  61.5541002  72.5713448  86.9353583  61.1482451  72.1250789
  63.6953735  57.3176432  34.2556429  64.4882393  57.4549103  33.7372231
  63.6501837  58.0813122  34.8309660 104.8035923  99.4795235  66.9317739
 105.1316754 100.3389701  66.6673009 104.8769728  99.4784459  67.8861563
  19.3883049 101.5036011  36.0885644  18.6544430 101.1577606  35.5805612
  20.1581216 101.3276100  35.5475974  19.3796517  28.0398342  87.7416189
  19.6142794  27.4147436  87.0557255  18.4312035  27.9494402  87.8338100
  23.5929227  78.9176273  34.6358943  24.4444084  78.8882494  35.0721741
  23.7931108  78.7781668  33.7103081  98.2365417  57.5027752  28.8951635
  98.0826092  56.8316031  29.5600438  98.5729218  57.0195723  28.1404471
 107.6355839  78.5336494  13.1463861 107.1365738  78.3400202  13.9399409
 107.9730034  77.6841116  12.8623724  46.5373278  93.3377457  45.3241253
  46.0547543  93.6943626  46.0699034  47.2455072  93.9643097  45.1753521
  49.5487499  35.8870864  19.4803631  49.5585918  36.7881680  19.1575825
  50.1307344  35.8984995  20.2402306  64.7718191 102.5007915   8.0022645
  63.8203764 102.3967171   7.9894906  65.0600576 102.1731663   7.1503204
  30.4153442  72.2466707  35.5368161  29.9526811  71.4675474  35.8452654
  31.3401699  72.0009279  35.5600190  67.7897406  73.9976358  17.0422697
  67.5908995  73.2331944  17.5829399  68.7207317  74.1616678  17.1925509
  44.5545959  95.0240993  39.8371243  44.7573471  94.2745304  40.3968382
  44.9130106  95.7773972  40.3065014  64.4530487  74.3945074  56.1940908
  64.7831964  75.2047682  55.8058643  64.6526861  74.4770145  57.1265984
  21.2942052  69.0304422   7.3259664  21.6649532  69.2460489   8.1817061
  22.0402694  69.0611982   6.7270750  13.6116768  32.4101374  85.4556628
  13.1552817  31.5797731  85.5913721  14.4286801  32.1661017  85.0207122
  58.2342100  72.3744965   2.4360088  57.7866411  72.9801464   3.0268562
  57.6440763  71.6236973   2.3705760  37.3608279  78.5069990  38.5132384
  36.7363644  78.7640953  39.1916037  37.3116159  77.5512934  38.4921885
  60.6976604  60.6668758  14.7888100  60.5483675  59.9067879  15.3511393
  61.6136694  60.5909109  14.5216179  63.2082319  89.7058868  18.0911791
  63.5061169  89.0192795  18.6878908  64.0072918  90.1708317  17.8430569
  30.4571891  93.8961792  10.8563817  30.8397245  93.5258675  11.6518450
  30.9564495  93.4986210  10.1429975   4.2243029  14.5857069  87.8176348
   5.1476170  14.7108242  88.0368742   3.8057400  15.4105494  88.0639443
  30.9214474  22.6056025  55.0222580  30.8774830  23.2470915  55.7313340
  30.0279261  22.2707722  54.9464481  98.9756368  26.5118898  28.4194183
  98.9076732  25.6204046  28.7612700  99.2543529  26.3993276  27.5106406
  89.4902300   1.3364519  21.2076044  88.9094852   0.6448091  20.8904457
  90.3610157   1.0733808  20.9096766 105.7261767  21.3203976  58.0260246
 105.5885186  22.0480606  58.6324756 106.2508097  20.6915733  58.5215824
  93.9976715   1.1488641  10.8519924  93.1407617   0.8933938  11.1935627
  94.1486143   2.0224870  11.2128687  86.7766832   5.0313199  30.0149417
  86.2699770   4.3885911  29.5185757  87.5463938   5.2007211  29.4717264
  46.0461617  34.7080660  21.6005707  46.3794565  34.7538900  22.4966979
  46.6314316  34.0930319  21.1585045  22.3585391  86.2823200  30.4425526
  21.5846634  86.2198353  29.8826909  22.0274329  86.1267567  31.3270879
  62.0551729  95.1070499  12.0960498  62.2108936  95.5741501  12.9169071
  61.6969013  95.7709885  11.5069234  28.9125872  68.3695745  16.9804025
  28.8410807  67.5154018  17.4064398  28.3604813  68.2959270  16.2019515
  37.8111887  18.8988650  41.1810923  38.6198044  18.7284899  40.6980371
  37.3326254  19.5223045  40.6347132 108.3938875  44.4348452  86.2119128
 108.0115380  44.8113081  87.0045756 108.6258140  43.5398218  86.4596380
  38.4223772  51.8101713  78.1141798  37.5472904  51.4457819  78.2471089
  38.8370587  51.2154791  77.4891929  59.7939825  49.3867636  37.7477336
  59.3153572  48.8901520  37.0840096  60.6662273  48.9926910  37.7590108
  63.1044436 101.3583374  17.8176093  63.7355471 101.1614704  17.1253800
  62.9420519 100.5151367  18.2405460  27.4314070  60.1256514  26.7172933
  26.9215107  60.6267309  27.3538113  28.1881857  59.8104858  27.2114491
  84.0121285  87.2800621  77.7106624  84.8823992  87.4800047  78.0554561
  84.0433088  87.5699338  76.7989414  65.8347559  83.5112667  30.0086808
  66.3787079  83.0917263  29.3420935  66.2409925  84.3671227  30.1454449
  67.3020767  -0.1551901  11.9517565  66.6165160   0.3554738  12.3824072
  67.4228500   0.2728094  11.1041355  55.9134483  84.5714569   1.6879615
  55.1013374  84.2552662   1.2920648  56.5979338  84.0290356   1.2961777
  31.7085409  24.9758410   8.2840377  32.5420308  25.2294922   7.8875679
  31.9239736  24.2216444   8.8326770  78.7279965  21.2808201  72.6967924
  78.9609123  21.4415571  71.7823832  78.6700417  22.1533463  73.0861227
  65.8727312  75.8024454  23.0153918  65.2214575  75.5094051  23.6527300
  66.5878963  76.1518002  23.5471058  83.3785725  61.6327715   4.5908210
  82.8870678  61.3067102   3.8369426  83.6687088  62.5062513   4.3279767
   8.3057747  10.5024160   4.7363344   7.8320465  10.3550447   5.5549318
   8.7153683  11.3603414   4.8477557  39.6194483   4.5822117  86.8871775
  38.7775351   4.9073908  86.5683158  39.4957997   3.6364958  86.9682098
  60.1683521  84.4586563  22.1298933  60.4131842  84.5718765  21.2114859
  59.6831226  85.2543354  22.3482537  99.2507806   3.7829754  79.7388981
  99.3955889   4.7254059  79.6547543  98.4770122   3.7084696  80.2974330
   1.2264825  50.0428984  85.3628783   1.5167428  50.5049154  86.1493381
   1.9732143  49.4971201  85.1163925  84.0927505  96.8448067  25.4984975
  84.4882774  97.1605301  26.3109660  84.8112869  96.8459034  24.8660922
  57.0032740  66.6891623  26.9117999  57.0733833  65.7407188  26.8033028
  56.1489487  66.9101524  26.5409589  22.4385643  85.9211159  23.5572672
  22.7928662  85.9849834  22.6703501  23.2108068  85.8728695  24.1207767
  33.9271474  78.2843924  23.5075784  33.6761570  79.2075396  23.5397696
  34.8596358  78.2820415  23.7236595  11.6614605  56.7599032  87.1152133
  11.8560625  55.8314249  86.9875810  10.7386137  56.7785570  87.3686654
  48.5939360  54.2521763  21.5289235  49.1197300  54.9500608  21.1381221
  47.8085947  54.6952200  21.8501306   4.4937874  23.7442896  83.5773961
   4.2351557  23.8022396  82.6576226   3.9326550  24.3779966  84.0243630
  12.9595448  13.4291765  70.7084851  12.7681519  12.7599260  71.3655286
  12.1933914  14.0028402  70.7207017  60.6152868  57.6208591   2.9161823
  61.1071062  57.0209694   2.3553954  60.5381584  58.4228802   2.3994176
  96.4352131  41.0098505  23.3652544  97.2734737  40.5691767  23.5043812
  95.7809067  40.3826046  23.6729527  76.8403244  62.9079914   1.1344103
  76.6204882  62.0951986   1.5896851  77.0881701  62.6292419   0.2528762
  45.1794004  76.1354256  35.0515556  44.2317724  76.2053108  34.9360156
  45.5101681  77.0113945  34.8527908  33.2005907  25.3908560  74.5249681
  32.8687550  24.6262238  74.9955647  33.5282351  25.0390646  73.6972444
  78.1607914  74.3209076   1.7398940  78.7255096  75.0264311   2.0554245
  77.8752136  74.6118546   0.8738543  72.5540352  96.2281799   7.7672255
  73.0394888  96.0553932   6.9605583  72.6130056  97.1764183   7.8838068
  48.7738037  52.4680567  23.5734415  47.8694391  52.5227356  23.8822579
  48.7664557  52.9197598  22.7295542  72.7926779  74.9358988  23.5581708
  72.0162296  75.1176023  23.0286956  72.6171112  74.0831709  23.9559937
  11.6582991  13.0299780  86.8582824  12.5602032  12.7406666  86.7200980
  11.7288376  13.7348339  87.5020449  35.5341697  60.2675486  52.9380035
  35.7995391  59.5023823  52.4277735  34.6020889  60.3715515  52.7465868
   8.5634003  14.4120611  23.9164019   8.1440220  13.8842786  24.5959687
   8.3566246  15.3160776  24.1535282  97.8486347  62.1307659  36.5341473
  98.0549622  61.2233162  36.7581820  98.5552979  62.6415825  36.9290280
  52.6100327  35.7881949  80.3912454  52.0454766  36.4407084  80.8056556
  53.4467198  36.2372706  80.2707546  77.7171469  96.2017727  32.2074938
  78.4943533  96.0717392  32.7508831  77.9037714  95.7180214  31.4028931
  27.8271747  78.7277460  30.6472254  27.9783273  79.1292953  29.7915721
  28.4329224  77.9871035  30.6745911  45.3054190  60.3643465  14.4183457
  45.7221127  60.1151752  15.2432775  44.4637346  60.7385778  14.6786261
  41.6924047  84.8755836  21.1098289  40.8759546  84.3826008  21.1911535
  41.9053078  84.8342323  20.1775217  56.6609669  87.7983856   9.5584917
  56.3080454  87.3831367   8.7715703  56.0352468  88.4930134   9.7639126
  61.2230730  80.2735233  24.5087266  61.8749332  79.5726538  24.5184135
  61.6919947  81.0319519  24.1606903  34.9636173  38.6175299   8.0290085
  35.3686976  38.7336969   8.8884532  34.4990063  39.4391990   7.8701776
  13.3005453   1.3429472  81.8553744  13.7246252   0.7776091  82.5009631
  12.4542118   0.9267923  81.6917800  28.5202408  96.8186569  20.3061748
  28.0236912  97.3087025  20.9615612  28.0180669  96.9228745  19.4979715
  80.0882839   4.1878808  18.1821036  79.9435877   3.6785425  17.3846900
  79.4359230   4.8871625  18.1413233   6.8808295  16.0858366  69.9655490
   6.3584639  16.0056469  69.1674654   6.5348364  15.4089949  70.5472784
  29.7250628  60.1130629   7.4464077  29.2499971  59.6955395   6.7279243
  29.2646527  59.8278618   8.2356578  55.3222609  93.8234425  13.0551481
  54.6456957  93.3790684  13.5660553  56.0534954  93.9262962  13.6642027
  16.7489411  52.9218313  82.7819024  15.8040119  53.0450270  82.6915775
  16.9159676  53.0286047  83.7183504  46.2418127  71.8387508  10.9938216
  46.7756224  71.0615826  10.8286190  46.3834620  72.0341349  11.9200993
  73.7480141  37.1906969  78.8152270  74.6067311  36.8706534  78.5388200
  73.3565594  37.5459120  78.0172198 107.3492399  94.3509015  84.8326205
 108.2391134  94.6310195  84.6184112 107.4558560  93.4719857  85.1964469
  27.1900345  12.9296085  82.1639674  27.4887587  13.6293528  81.5831445
  27.2812153  12.1312735  81.6437946 105.8662858  80.8851454  73.9150076
 105.5602016  80.8331415  73.0095570 105.2705636  80.3160116  74.4022767
  57.9127121  97.4094009  21.7130709  58.7250042  97.2989178  21.2188959
  57.7753067  98.3563232  21.7394304  36.4660144  89.7780132  26.6082072
  36.2757063  89.9678230  25.6895208  35.9684467  90.4340172  27.0963764
  55.9415436  87.8856850  21.1958909  55.0592613  87.7616119  20.8460140
  56.1059904  88.8241386  21.1036777  62.2840214  53.9166355  40.6065512
  61.7412233  54.0817118  39.8356056  61.6720200  53.9493227  41.3418150
  57.5045109  65.6629181   8.4125620  56.8165159  65.0212193   8.5889405
  58.0764818  65.2323246   7.7772158  72.2332096  99.2966747  38.4130216
  72.7546501  99.6080494  37.6731706  72.0181990 100.0891876  38.9048862
  89.5281814   1.9966520   2.4636737  89.6077751   1.1197484   2.8390935
  90.1579880   2.0066942   1.7429274  77.3529243  60.2562046  31.3349056
  77.0165920  61.1250067  31.1151266  76.6760588  59.6527624  31.0284090
  15.2309109  14.8493692  88.6947492  14.5282007  14.5858738  89.2888897
  15.1121022  14.2958757  87.9228924  16.0455189  45.4847158  26.7117429
  16.6257439  45.6443323  27.4561191  15.2758942  45.0631155  27.0940614
  68.3274555  80.9088993   8.6448640  67.9208755  81.7672062   8.7641805
  68.9758015  81.0449600   7.9539508  55.6155539  90.7915783  21.5377092
  56.1740875  90.8878136  22.3090816  54.8253345  91.2879658  21.7507434
  32.1872784  36.3949129  77.9277973  31.5513159  36.1400816  77.2593324
  32.0246578  35.7937071  78.6546664   4.0329015  36.2630534  16.7603028
   4.5239982  36.7354727  16.0880852   3.6166677  35.5408716  16.2897372
  23.9556694  78.2144976  42.5565577  23.8997674  78.0679941  43.5008240
  24.8514557  78.5203552  42.4142504  45.1455498  70.3028631   1.8470891
  45.1898909  71.2174177   1.5680751  44.5546722  69.8889112   1.2180129
  51.4714622 100.2347755  21.4749599  50.8640814 100.3552055  22.2049046
  52.3263741 100.1229191  21.8906999  61.5789175  81.2858391   1.9413975
  61.8414783  80.4423046   2.3098069  62.3609257  81.8329716   2.0145075
  68.4295511  55.5615520  13.9763653  67.5249767  55.6122494  13.6674762
  68.4234619  56.0269642  14.8127806  52.2044586  56.1753286  11.1347067
  52.7454685  56.3338960  10.3611457  52.6421164  55.4558290  11.5896785
  82.9501127  15.6219972  14.6817553  83.8108896  15.4244722  14.3125999
  82.3425316  15.0844491  14.1736960 101.6917076  46.6940043  79.4769095
 101.5830364  47.3494837  80.1659458 101.8279447  47.2053072  78.6792652
  57.1188164  69.9895668   5.3118879  57.0611286  70.4556513   6.1459565
  56.7223549  70.5856609   4.6764955  51.4498997  72.6296282  13.3907056
  52.0110130  72.2341251  12.7236497  50.5745125  72.6202154  13.0036187
  31.9613099  57.7633095  22.1149039  31.6907716  58.2917690  22.8657508
  32.8834319  57.5667906  22.2801304  75.4984951  46.0960817  17.8587031
  75.2184343  45.8120775  18.7288415  76.3790274  45.7338238  17.7603972
  51.4184093  53.2169676  22.9656100  50.6154346  52.7300882  23.1511068
  51.1959934  54.1279030  23.1578684  75.7606697  43.5447454   9.9629879
  75.9942102  44.4511747   9.7627914  76.5726995  43.0543566   9.8350954
  86.1947250  83.4077072  12.1804774  86.6097736  84.2594337  12.0443809
  85.2848053  83.5393810  11.9141150  51.5574217  84.6201611   7.8477198
  52.2278500  84.0836239   7.4247819  51.8624210  85.5200195   7.7316976
  76.8538967  97.6837405  89.0537491  77.1916548  98.4986981  89.4252325
  77.6110188  97.0984753  89.0321651  41.3124084  71.3732147  27.8797030
  40.8063173  70.7856369  27.3185873  40.6984425  71.6381741  28.5645890
  32.8572321  76.6633558  13.4158707  33.0201674  77.2884226  14.1222525
  32.0774078  76.9992447  12.9739642  65.7554388  79.5656633  13.3674252
  64.9093819  79.4157505  12.9455864  66.3981915  79.2388678  12.7379000
  62.7695704  75.6563997  17.9936194  63.6297083  76.0320187  18.1815076
  62.4060678  76.2200451  17.3106837  21.7111326  45.8528921  79.6574859
  22.2587754  46.3922426  79.0870314  22.3337294  45.3305170  80.1631813
  94.0034412  17.8291810   2.7714521  93.4242080  17.9743112   3.5195544
  93.5558914  17.1649278   2.2473314  57.3920965  98.7930584  44.2627144
  57.3935127  98.0862141  44.9081516  57.8477812  99.5144367  44.6965265
  64.3504690  19.1084493  20.8071399  63.7704514  18.3637537  20.9659982
  64.7741555  19.2662919  21.6508269  41.5097666  66.0096645   5.5526215
  41.4370251  66.0842419   6.5041351  41.3812780  65.0779295   5.3748816
   7.2154770   4.0382112  25.7530665   6.3636742   3.9702333  25.3217268
   7.1251831   3.5099233  26.5461516  76.7039751   1.9741357  18.5694647
  76.2883352   1.4427675  19.2485249  76.5358614   1.4979375  17.7563214
  47.1342230  79.1433334  14.8740423  47.0745373  78.5730362  14.1076016
  46.2864685  79.0500450  15.3086007  36.3992643  53.4081030   8.4130162
  36.3347840  54.1574240   7.8209132  36.1162233  53.7484217   9.2617220
  55.3002739  86.1840820  23.1147242  55.4885435  86.8549347  22.4584174
  56.1530399  85.9770203  23.4970140  82.1880722  97.4954319   8.8864541
  81.4393711  97.1635818   9.3819845  82.5037575  96.7380524   8.3935583
  93.6552595  24.4803918  12.7828789  93.8388418  24.6306528  13.7102139
  93.6192392  25.3572477  12.4007022  50.3743458  58.5111618  19.4293702
  49.4611645  58.7588072  19.2844486  50.6910896  59.1354132  20.0822210
  50.8746052  66.3987923  23.2257485  51.5682888  66.8286085  22.7254581
  50.2964497  67.1124029  23.4954333  63.4462214  61.2513113  37.9510236
  64.3393898  61.4128923  38.2549572  62.9358912  61.9768715  38.3106899
  88.1200981  88.4217358  17.6637828  88.6104774  89.2197418  17.4664176
  87.2019958  88.6748123  17.5675285  90.2165985  69.0854359   3.7121621
  89.9803829  69.9571419   3.3950576  90.5103207  68.6176443   2.9304105
  35.5249430  53.3753893  83.4139960  34.6697451  53.7638590  83.5982792
  35.8039833  53.7874148  82.5963162   1.5363456  29.7194693  77.0589416
   1.8259145  28.8232824  76.8879788   0.6543256  29.6218512  77.4177484
   2.6549056  92.5282582  85.1261898   1.9976809  92.4750861  85.8200650
   3.4856322  92.6309212  85.5904980  71.6191530  69.9415636   2.4098809
  71.4104080  70.2315378   3.2978961  71.4514542  70.7082748   1.8619217
  53.1627703  71.3043308   3.6194363  53.3657646  70.3718710   3.5450020
  53.5971785  71.7048788   2.8663886  43.6633921  86.2807274  35.0643373
  43.0571318  86.7619514  34.5012188  43.1841040  85.4899502  35.3117037
  26.2176205  47.9802057  62.4297039  26.6461636  47.6328013  61.6474669
  26.4481617  48.9091990  62.4365132 103.6938491  41.9822332  81.2200199
 103.1579795  41.7411635  80.4643999 103.6307874  42.9363463  81.2637530
  87.6989809  96.8351945  80.2100979  87.1843353  97.4341830  80.7510142
  87.8931252  96.0973080  80.7880800  55.3108311  77.1634150   2.1184011
  54.9113607  77.9634571   1.7769505  55.0057316  76.4731979   1.5295471
  52.3818302 100.1057720  16.0157013  51.5775728  99.6159458  15.8440435
  52.3210382 100.3499889  16.9392264  50.9996605  79.3166208   9.6091408
  51.9265127  79.1494179   9.7800696  50.7188225  79.8733902  10.3353441
  40.7166077  46.6982290  87.5921399  41.5200545  46.2166521  87.3951726
  40.3904177  46.3000223  88.3991473  86.1272717  77.5715303   0.5283961
  85.2865314  77.9140520   0.2249656  86.6987801  78.3384609   0.5661781
  25.5188537  58.0806923  41.9399548  25.6855488  58.9255428  42.3578930
  25.7231712  57.4345827  42.6159906  47.3192120  74.6242476   6.2673533
  47.7500534  74.5794344   7.1209335  46.9306707  75.4986429   6.2407851
  80.6972145   7.9436220  13.1725168  80.9206222   8.8734640  13.1312644
  80.3680633   7.8156103  14.0621841  61.1529303  54.9295712  24.3861008
  61.4142561  55.6889343  23.8652325  61.6576338  54.2031050  24.0203714
  64.4971037  41.0781431  22.8241229  63.6042356  40.8980083  22.5298929
  64.8327923  40.2270937  23.1056571  40.0812292  45.3714609  14.2766452
  40.8534241  44.8589945  14.5160580  40.2770567  46.2569618  14.5828629
  23.9133382  47.4713135  34.4459105  24.5503640  48.1296730  34.7233820
  23.1790495  47.5787783  35.0504780  27.0777583  50.1223564   7.6262438
  26.6805792  50.9840345   7.7526999  26.3351679  49.5341063   7.4892998
  19.0803410  17.7605650  88.6372795  19.9388338  17.3675797  88.4798479
  18.5110165  17.0185730  88.8411182  56.6876030  52.7795887  13.0791485
  56.3377523  53.5695601  13.4911990  57.6376820  52.8758907  13.1447864
  42.7905321  72.4975777  10.9808314  42.6149654  73.1476259  10.3005040
  42.6006126  71.6571760  10.5638301  22.6323414  89.7147655  41.3191557
  22.1431208  90.1122189  40.5987930  22.1763110  88.8912773  41.4927626
  75.1323462  71.7179298  12.4689007  75.9950876  71.3369656  12.3052633
  74.5450783  71.2420082  11.8816698  51.8172036   0.8382810  25.4303026
  51.6953920   1.7692865  25.2441883  52.4070190   0.5315317  24.7416425
  43.4058739  31.4588568  83.7243228  44.0936543  30.8391020  83.9674209
  42.7306963  31.3416311  84.3926226  59.3971205  53.0725384  13.0293679
  60.0304365  52.3609447  12.9356372  59.5714617  53.6479855  12.2845888
   8.9849640   9.1482946  76.2233190   8.6064554  10.0273630  76.2375789
   8.5174109   8.6975834  75.5201225   3.0429810  90.9554958  11.9146562
   2.8147861  91.8850327  11.9253182   2.5110298  90.5702782  12.6109815
  32.9565144  80.9507465  14.2860496  33.4810543  80.2495861  14.6726692
  33.5943174  81.5110970  13.8439560  58.5330963 100.4792881  27.7197218
  58.5978079  99.8449993  28.4336686  58.9431953 101.2719822  28.0656791
  74.8703861  51.6475582  23.6273694  75.2140522  51.8993044  22.7701926
  75.6492758  51.5029955  24.1646481  12.5441529  17.6052687  84.3201654
  12.8734041  17.0827267  83.5888814  11.7839552  17.1187899  84.6390183
  45.5491495  62.5213242  11.2735379  44.8462152  62.1107101  11.7770362
  45.2698040  62.4397135  10.3616512  94.4563125   7.2459901   6.2062526
  94.5695184   7.9206193   6.8758047  95.2956747   6.7863763   6.1850244
  61.9581555   0.2839101  22.6111388  61.8274401   0.3444780  21.6648412
  61.1552738   0.6445230  22.9873943  84.0208458   7.3550142  62.3997831
  83.8424467   6.6078771  61.8286467  83.8630508   8.1212152  61.8481827
  13.9464626   5.7404340  18.2079589  14.2290936   6.6398633  18.0424845
  14.2693482   5.2455343  17.4549329  35.8774042  53.5524607  34.1118002
  36.2843943  54.3138695  34.5251298  35.1629376  53.3128595  34.7020197
  11.4199520  41.5130827  83.1070529  11.8036104  42.2532961  83.5773008
  11.6939188  40.7439539  83.6066710  15.7379462  23.6220142  44.7097866
  15.2482868  23.7186501  45.5265610  15.1549603  23.9752743  44.0377991
  59.3741894  85.1363754  16.6269803  58.6033344  84.9225044  16.1013699
  59.4588566  86.0868931  16.5522218 106.1980318   2.8678525  48.1926250
 105.8824991   3.4925188  47.5395870 105.4109215   2.5977243  48.6656141
  58.2556573  96.5871247  72.2428887  58.9706675  97.1983822  72.4199586
  58.5139433  96.1440571  71.4346723  72.7719450  98.3763981  32.9120970
  73.0198526  97.7196217  32.2613883  72.7991104  97.9087067  33.7468195
  88.0445741   8.4198774  55.5898190  88.9438509   8.1557001  55.3955364
  87.5912069   7.6000226  55.7861376  77.0646095 100.9960747  28.5339165
  76.5748978 101.7621899  28.8330507  77.3862457 100.5884361  29.3380427
  82.4018383 101.4870930  30.8744407  82.2154808 102.0923328  30.1566720
  82.3878860 102.0348167  31.6593218  89.0492367  14.8136438  47.0379257
  88.0949663  14.8269475  46.9642878  89.3207525  14.0709508  46.4985561
  70.9139633  64.8670864  14.3344092  70.6746101  65.7377291  14.6520901
  71.8173599  64.7455311  14.6265304  59.6271992  80.5436420  63.0789804
  59.7721291  80.3293133  62.1574116  60.4696655  80.8828259  63.3813572
  75.2735949  81.5929794  44.6551561  75.4510212  81.2202454  43.7915468
  74.3868876  81.9467640  44.5857620  68.8281441  99.6539497  11.9457388
  68.7808418 100.3567600  12.5938451  68.0077553  99.1728020  12.0538819
  38.0719830  28.7959025  81.8011944  38.1643702  28.3792564  82.6579945
  37.2931124  28.3902571  81.4203440  90.5893803  75.7353497   4.8327243
  90.8229256  76.5860510   5.2042043  91.4238453  75.3588057   4.5532441
  93.6469746  86.4027309  70.6860638  93.0457878  87.1278381  70.5157375
  93.2098579  85.8825016  71.3602448  93.2386875  83.0163765   1.7576125
  93.9085674  83.2763672   1.1252458  93.6969852  82.9971313   2.5977427
  71.2497950  54.3978405   8.7781340  71.6574240  54.1541576   7.9470569
  71.8007946  55.1031780   9.1174394  66.6147614  70.1502323  41.4525414
  67.0285511  70.9928179  41.6397715  65.7608175  70.3790474  41.0855865
  99.2241287  89.0825081  19.6774542  99.5690632  89.7407246  19.0741336
  99.8362637  89.0879059  20.4133177  93.3813165  10.4940904   9.1207230
  92.8709434  10.3435911   8.3250493  94.2216085  10.0685037   8.9503598
  44.5160818  86.9282722  40.4629469  45.4194450  87.0470333  40.7562971
  44.1390991  87.8078079  40.4862499  45.8425570  86.1107159  27.0426989
  44.9171495  85.9970379  26.8260479  46.2657118  85.3198910  26.7083716
  63.3832598  93.7648678  36.1771011  63.0314970  92.9545212  35.8085537
  62.8616762  93.9156723  36.9654155  83.2255720   5.2890504  35.2575469
  83.5628580   5.8619607  35.9461975  83.6276697   5.6183446  34.4537377
  96.6756557  13.7850774  42.5982666  97.2914528  13.0612482  42.7127266
  97.2290062  14.5644296  42.5467825  29.5650983  74.2091417  23.8309288
  28.8505936  73.8296556  24.3425035  29.1295528  74.6495628  23.1011605
  15.9789715  19.2988695  28.8250303  15.5855618  19.6868528  29.6066475
  15.8431969  18.3572687  28.9307785 105.5733313  22.1176216  86.1495097
 106.4617648  21.8038389  86.3182078 105.0481238  21.3208983  86.0745509
   3.6190233  14.6354211  39.2711020   4.2687855  14.5837415  39.9720788
   3.6426506  13.7720502  38.8584876  51.6813993  65.3397369  13.6596453
  51.8154860  65.3327656  14.6073818  50.9963322  64.6882105  13.5098732
  78.1250000  66.1767912  38.8145638  78.8381386  66.5198708  39.3530416
  77.3712635  66.7222452  39.0394926  58.3133770  93.7140677  88.2665455
  57.4286915  94.0339682  88.4432572  58.3500649  93.6249277  87.3142113
  88.3394337  56.2923431  25.0711131  87.6295853  56.9343615  25.0584483
  87.9563141  55.5198479  25.4866838  93.4385681  79.4826889  29.0245318
  93.7761593  78.8115931  29.6177340  94.0480423  79.4785023  28.2864594
 100.5843830  70.2030659  26.5694451 101.3868427  69.8786879  26.9781947
 100.8655357  70.9627533  26.0594869  32.3061728  77.4851274  34.0973234
  32.5944614  78.1172800  34.7557354  31.4798903  77.8404045  33.7698078
  47.6193691  21.8863127  83.0882631  47.7517010  21.8824360  84.0362649
  48.3878971  22.3390886  82.7410047  41.3869762  91.9172382  19.1872334
  42.1281815  91.8202496  18.5893738  41.5980721  91.3453197  19.9251914
  36.2218547  94.4846916  32.7646685  36.4847970  95.1984215  33.3457756
  36.4444089  94.7958660  31.8872476  95.7709503  81.3103962   7.5625795
  95.0393677  81.7789459   7.9644197  95.7058239  81.5186977   6.6305935
  55.4581785  88.0680370   6.3936007  55.1379871  87.2148705   6.6865402
  55.7110691  87.9285145   5.4810166  53.1440210  94.2138481  15.6110704
  52.8356218  93.7460423  16.3871360  53.8408232  94.7839260  15.9361982
  60.9383965  55.5942440  17.4369586  60.5916119  54.8272800  17.8927445
  61.3504601  56.1160517  18.1255412 101.3575720   9.9026884  20.1330972
 102.2587227   9.7169603  20.3970361 100.9538006  10.2851118  20.9121704
   4.3077523  79.6741676  27.6935697   3.7093392  79.3763590  28.3787274
   4.0572888  79.1684866  26.9204044  30.4008541   2.3720563  52.4335337
  30.9272156   2.4035657  53.2323980  29.5121250   2.1906484  52.7392769
  67.4487829  79.0386391  42.3648310  67.6741695  79.0679073  41.4350033
  68.1700134  79.4927788  42.8005123  72.7199984  95.8342934  23.9490247
  73.2690001  95.5201817  23.2305837  73.0976105  95.4334545  24.7319460
  76.2076664  86.9229126  12.9581165  76.5485954  87.4265194  12.2189403
  76.9157457  86.3196754  13.1838715  78.8776255  97.2453880  64.4191360
  78.2485437  97.3284531  63.7024879  79.3228674  98.0922985  64.4463587
  61.7761660  65.1403379  20.0007248  61.7150211  65.2771187  20.9461284
  62.3344231  64.3685865  19.9059880  10.6708679  18.8567270  12.9782617
  11.0331688  18.7159360  13.8529885   9.7584400  18.5761846  13.0489302
  24.7641588  36.8175242  45.4602854  25.4473187  36.8903753  44.7937863
  24.7550799  35.8892080  45.6934826  71.4936733 102.3404121  55.8716154
  70.9427547 102.8894901  55.3137350  71.7006159 102.8948784  56.6239309
  64.3880415  86.0587406  68.7674999  64.1241932  86.9336700  68.4826946
  64.1043758  86.0083008  69.6803093  17.3980866   1.8352807  39.4041467
  16.7608986   1.4093507  39.9775553  18.0880318   2.1369470  39.9950886
  81.2083817  90.6202984  38.0136824  81.4757347  91.5137577  37.7980876
  81.5074730  90.4913998  38.9137697  81.9420338  95.8511257  23.2009840
  81.7926407  95.1158619  23.7953687  81.4123058  96.5621376  23.5616684
  75.5452989  31.9746603   0.2252965  76.2016605  32.3092569  -0.3858270
  75.6061124  32.5554384   0.9837341 106.9751714  17.7850831  21.3065362
 107.9055237  17.9869379  21.2068439 106.5244173  18.5434068  20.9350634
   8.2986794  10.7404150  11.2464082   8.0944882  10.3765214  12.1078718
   8.6577282  11.6081155  11.4319122  14.4522915  26.8199647  59.9531031
  15.3391705  27.1575082  59.8276997  14.5780621  25.9091199  60.2191401
  71.9894552  96.0890675  43.9844084  71.7849255  96.5355873  44.8060036
  72.5647259  96.6960335  43.5187006  91.9929241  13.9699853  32.5778532
  92.2653698  14.7911371  32.9873967  91.0775207  13.8651479  32.8372359
  51.0065985  82.0976353  61.6305304  50.5602312  81.2513161  61.6035032
  51.0504246  82.3746395  60.7153368  62.5794983  89.0446758  26.9835091
  63.1963062  89.0464306  27.7154779  63.0750513  89.4125080  26.2518287
  71.3565874  96.0334778  18.4683537  70.6509733  95.6136990  17.9762959
  71.1669445  96.9697285  18.4074986   1.0381899   0.2507032   0.8512359
   1.1536465   0.3492177  -0.0938548   0.1057158   0.0641645   0.9604573
  69.2668295  85.0538158  42.9780579  68.9115286  85.9419346  42.9430914
  69.8760509  85.0103760  42.2410393  79.6836996  68.5482407  22.2550797
  79.1284752  69.1900492  22.6978397  80.0896835  69.0364027  21.5387678
  89.6123813  13.0218996  29.0431309  88.8062547  12.8691400  28.5501218
  89.4480203  13.8319124  29.5259261  40.3123617  68.9969397  50.6809235
  40.5560303  68.0747509  50.6007862  39.3860507  69.0216398  50.4409742
  91.7397045  19.9553979  23.8931274  91.3529276  19.0809835  23.9383459
  92.1181368  20.0950826  24.7611761  98.3410381  33.7261499  19.3636000
  98.6241459  33.8998807  20.2613187  99.0699886  34.0257371  18.8203585
  34.3653036  24.9085972  79.5453994  34.5764757  23.9831755  79.6688335
  35.1195790  25.2659437  79.0767805  84.8462391 102.5251198  46.6289568
  84.5615578 103.0298710  45.8671045  85.7960320 102.6416397  46.6521692
  36.1994324   2.1580423  42.9187632  35.7427845   1.3799108  42.5990438
  37.0812187   2.0852483  42.5535297  96.6998838   5.8131803  35.6532431
  96.6780590   5.9478868  36.6006660  95.7880567   5.6474031  35.4138255
  78.9328264  11.9979490  17.6054800  78.2631086  12.1536554  16.9395459
  78.4402441  11.8814958  18.4179032  57.9027939  75.5135489  26.1798382
  58.5925770  74.8506117  26.1491132  58.3660126  76.3333893  26.3516545
  39.5059204  96.4610577  38.0776167  38.5803080  96.2982941  37.8960109
  39.6861076  97.3056126  37.6647258  57.1412849  57.8325796  28.4262967
  56.4508438  57.4399567  28.9604950  56.7295218  58.5998583  28.0288553
  83.3940029  63.0190372  31.9134617  82.5992203  62.5692797  32.2002792
  83.3230305  63.0456924  30.9592676  77.5256943   0.2583326  10.1324975
  77.9174398   0.7219709   9.3923557  77.5927805  -0.6672560   9.8979551
  92.6413368   8.5822881  27.0938206  92.2854780   7.7938283  27.5035977
  93.5714840   8.5705293  27.3194718  80.5973625  66.4030838  26.8952799
  80.8184338  66.5239191  25.9718323  79.6765947  66.6574240  26.9563961
  39.2454934  84.2287064  51.7698193  39.1170835  84.0987110  52.7094173
  40.1191092  84.6133137  51.6984224  73.0712748  95.5775070  10.2553344
  72.8891659  95.7291985   9.3279421  72.9460192  96.4325333  10.6669986
   0.4078270  10.6079218  76.2646072   0.6825067   9.8928568  76.8386023
   0.7889653  11.3920710  76.6596703  60.3579283  87.4660301  11.0310590
  60.1760674  87.4362373  11.9703519  59.8252726  88.1922722  10.7068932
  56.3850069  83.3418465  52.0103121  55.7973671  83.5401154  51.2812042
  57.2632551  83.4139919  51.6365337  16.2030817  54.8823187  86.4603056
  15.9474922  53.9980242  86.7228584  15.4992892  55.4422781  86.7879473
  73.9198612   6.0551847   3.3597857  74.6643947   5.7792581   2.8252134
  73.1888722   5.5233587   3.0450553  79.0711403  76.5377998  29.4427180
  79.2865419  77.4704504  29.4429970  79.4462633  76.2051058  30.2580905
  82.3259544  89.4833088  40.6839561  82.1091747  88.5854530  40.9351540
  82.1783066  89.9965382  41.4783192 105.3586077   6.9015420   0.3843027
 106.2110924   6.9356645   0.8182806 105.0807070   5.9899343   0.4736141
  28.6597228  94.0775681  30.8203387  28.0744791  94.6534061  30.3282714
  28.0794740  93.5875702  31.4029574  32.9261662  28.7384722  48.9713280
  32.9781080  27.9305479  48.4606593  32.2791601  28.5508368  49.6513312
  91.0984230  80.9270954  34.3563080  90.3912640  81.3390923  33.8599062
  91.2413216  81.5122318  35.1002336  99.8703884  17.8351224  61.3880634
 100.2961515  17.3741258  60.6652641  99.7963117  18.7399019  61.0845518
  80.1891136  71.3042784  11.5772402  79.6784735  72.1130705  11.6137302
  79.5330620  70.6076193  11.5549636  57.5919247  70.7343674  11.4477026
  57.6284933  70.2165079  10.6435156  58.1785393  70.2797461  12.0522165
  78.6425686  93.2681370  35.7591701  79.4454861  93.1317043  35.2562356
  78.5384369  94.2191315  35.7907939  18.1246815  14.1790117  21.3576508
  17.7013264  14.9697031  21.0232782  18.8173065  14.5033277  21.9332528
  73.5459042  90.1390362  24.0187478  74.1685247  89.4121456  24.0042233
  73.4845495  90.4201221  23.1058073  86.5021133  70.2215433  24.2085719
  87.1717167  70.6136560  23.6481118  86.4438057  70.8110857  24.9604201
  77.4608469  90.8796215  32.3698783  76.9584084  91.3726616  31.7212653
  77.1019697  91.1575603  33.2126093  63.0203390  97.0887470  21.2148023
  63.2949400  96.1983204  20.9957933  62.6193285  97.0096684  22.0803475
   3.2144581  99.0388775  55.9954119   2.8000294  99.9012089  55.9659624
   3.5397278  98.9599609  56.8921900  70.0218344  89.9223614  18.1745481
  69.9966002  89.2008972  17.5459921  70.7909727  90.4331779  17.9220998
  90.4943060  23.5201372  21.4391780  90.2313827  23.4659494  22.3579621
  91.1949705  22.8738321  21.3520408  71.7890310  99.1807747   7.1631289
  71.4543295  99.7372532   7.8663665  72.5470257  99.6555710   6.8221790
  80.6230164  89.9639511  27.1532345  81.5737820  90.0617504  27.2051692
  80.4922199  89.1086197  26.7439270  55.9639359  88.2077122  49.3203592
  55.5198145  87.8896618  48.5343361  55.7885838  89.1486645  49.3303633
  75.8129358  95.8109188   7.3615503  75.3495979  95.1065922   6.9082618
  75.6743765  95.6293392   8.2910991  62.2724224  69.9989054  76.3829474
  61.7886425  70.2179453  75.5865781  61.9864537  69.1117212  76.6005342
  39.9317241  88.6649895  68.8624763  40.6038189  88.8815975  69.5086956
  39.2625022  89.3396091  68.9775896  33.5281920  93.6532307  41.7565203
  34.0375042  93.1180954  42.3651791  32.6586342  93.2531071  41.7556906
  43.2338333  91.7242718   2.7750251  44.0756035  91.3676643   3.0587220
  43.4346628  92.2000790   1.9691038  93.8235950 101.1297321  26.3424182
  93.0913448 100.5271053  26.2124896  93.8369083 101.2905693  27.2859168
  95.4378700  91.1116982   3.7070003  95.8924007  91.4647961   2.9421747
  96.0826874  90.5426121   4.1272351  60.8323622  71.2392187  15.1734030
  61.2738037  70.3933907  15.0963724  60.5927801  71.4670372  14.2751086
  89.9190019  20.9007181  40.5298853  89.2432951  21.5737546  40.4481888
  90.7443641  21.3794816  40.4537535  53.0336952  85.5756092  48.2998466
  53.8647842  86.0503578  48.2880497  52.9964495  85.1367950  47.4499798
  93.3018780  98.5032845  39.3377304  94.2157650  98.7292099  39.1645241
  92.8311253  98.7938595  38.5565805  24.3188739  82.0061207  21.5406680
  25.2415013  81.8102074  21.7037845  24.2436695  82.9482651  21.6921639
  32.9095078  96.8977737   7.3869121  33.1826949  97.4714947   8.1027585
  31.9551015  96.9695759   7.3733270  70.3198576  89.7034550  34.4170475
  70.0686455  89.8822498  35.3232241  70.9989071  89.0322304  34.4847322
  99.0944099  72.5235891  27.7438831  98.2249737  72.1259212  27.6971960
  99.5362186  72.2275829  26.9480085  62.0690489  69.6837473  25.3249288
  62.2622347  68.8076496  25.6586480  62.5980711  69.7595930  24.5308161
  61.3811588  80.7035160  15.2736759  62.2377205  81.1069584  15.4142654
  60.7581472  81.4234066  15.3728724  83.0021858  99.0692234  10.8213639
  82.8061867  98.4003162  10.1653326  83.8143921  99.4733906  10.5160677
  60.1269890  87.2304079  79.9100839  60.4989220  86.3693163  79.7192465
  60.8750988  87.7576563  80.1903860  89.5758890  22.1572126   6.0877371
  89.3556331  21.4346612   6.6756469  88.8146805  22.2390665   5.5132002
  95.2037071  55.9951032  23.2906437  95.4810308  56.9073976  23.2066965
  96.0186981  55.4937280  23.2652974   6.3027035  90.6849003  35.5516481
   5.6606232  90.0493240  35.2354193   6.7303978  90.2473068  36.2877297
  84.3945566  93.2375630  85.5518203  84.8187605  92.5338181  86.0427596
  83.5031573  92.9221638  85.4029457  16.3914073  53.7507057  24.3393970
  16.9050956  53.8425541  25.1418424  15.5791140  54.2239618  24.5195174
  34.2979383  26.0584497  53.5898924  33.9238787  26.5727901  54.3052721
  33.6607265  26.1367679  52.8799200  66.5091085   7.6102108   7.1350199
  66.8944407   6.7551482   7.3263854  67.0429754   7.9591763   6.4212668
  33.2557964  34.7120142  16.5067351  33.9567971  34.1367078  16.8130887
  33.4715843  35.5691242  16.8741953  31.3020134  12.9615068   6.7608589
  30.4006481  13.2831633   6.7784750  31.6547942  13.1902444   7.6207757
  37.3421526  46.3413191  14.6735418  36.9906306  46.1043262  15.5317354
  38.2888293  46.3882017  14.8071098   5.4136158  93.2924884  28.4165621
   5.5121447  93.1009989  27.4839020   4.9500490  94.1295760  28.4415364
  78.9243237  93.5748728  62.2490613  78.7104574  94.0397748  61.4401357
  79.6248642  92.9717501  62.0006435  56.5623569  45.5242538  15.1891923
  56.1883259  46.4053202  15.1818693  55.9114075  44.9839783  14.7413075
  89.4789187  64.1862079  80.7642745  90.1807800  64.6942743  80.3574650
  88.7991396  64.8309680  80.9602688  51.1814690  24.8721552  23.5713887
  51.0955286  25.7443762  23.1865835  52.1035099  24.8102188  23.8208604
  18.4779775  58.1538296  18.5776711  19.1281450  58.8113499  18.8250148
  17.6945698  58.3935976  19.0726614  78.6709785  60.3000736   4.9773419
  78.6788225  61.1445570   5.4279196  79.5391703  59.9323940   5.1425260
  95.5686537  99.2316540  85.4935666  94.6606032  98.9289530  85.5006509
  95.9847084  98.7246235  84.7963916  53.6590433  66.5524292  12.0725703
  53.0717468  66.1136961  12.6880622  53.0742788  66.9802761  11.4470911
  93.5134283  91.5390118  60.5052082  94.2240587  91.7781314  61.1002319
  92.8391520  91.1679348  61.0743182  54.3074179  17.1210420  24.5379639
  54.0964031  16.4624643  25.1997638  53.6862421  16.9555116  23.8287592
  75.1495544  61.3706943  88.2164053  75.3828446  61.6488918  89.1020768
  75.1988045  62.1707758  87.6932649  69.4734970  84.2841705  83.4213267
  70.0737206  84.4931921  82.7055942  68.9468566  83.5577568  83.0878537
  74.2396498  42.7636671  29.3026614  74.2486382  43.3074617  28.5149837
  73.9862585  43.3630514  30.0046325  43.0109692  48.8480997   6.9581163
  42.3530245  49.4577646   7.2922570  43.6759567  48.8128519   7.6457077
  38.7084007  59.3968058   6.3580906  38.2287502  60.1678562   6.0553569
  38.0355525  58.7255478   6.4717865  86.9033972  93.7377080  60.0862687
  86.8609539  93.7234648  59.1301172  87.2152535  92.8648432  60.3252022
  24.6303248  48.4917068  14.1835082  25.4213238  48.8072729  13.7465084
  24.8284149  47.5831842  14.4106233  56.4525032  38.0123329   4.9434984
  56.8015909  37.9327726   4.0557814  57.2188902  38.1964517   5.4866278
  57.4373531  26.7265773   1.1942918  56.9838810  26.3193178   1.9323543
  57.9510117  26.0172963   0.8078884  32.8506112  54.7502899   7.5298750
  31.9509912  54.4369030   7.6231629  33.2210875  54.2104864   6.8315977
  63.1464386  70.4172945  19.6544325  63.0568266  71.2964249  20.0222993
  63.6555576  70.5434561  18.8537371  82.9034773  86.1581787  65.6208293
  83.7922398  86.4728006  65.4554646  82.3463026  86.9202431  65.4625695
  20.2628638  62.9138695  20.5396819  19.9630285  63.5564362  21.1826754
  19.6959854  62.1549450  20.6772089  19.4444109  10.5863258  88.5435186
  19.2128826  10.3242657  89.4345574  20.4006840  10.6283018  88.5470492
  68.0790043  39.6713018   0.7790986  67.1317101  39.7861147   0.8544835
  68.2351160  39.5796514  -0.1608279  54.7255039  43.2721376  13.6704469
  54.1865015  43.6328650  12.9664671  55.0008154  42.4147272  13.3459747
  34.0503716  55.6638098   0.4504803  33.9617991  55.0460863   1.1762949
  34.9927378  55.8155918   0.3787901  95.4963461  91.9786175  78.2549076
  95.6593624  92.8412446  78.6363904  95.7357517  92.0752200  77.3331790
  50.4142669  80.8507880  70.5344801  51.2819449  81.2207588  70.6972306
  50.4568604  79.9687441  70.9038238  38.8066816  26.1690211   0.0808456
  39.2074633  27.0183420   0.2659334  38.9441252  25.6601143   0.8798166
  40.8240271  43.8478756  21.8408060  41.7533255  43.8620996  21.6118145
  40.3727484  43.7383604  21.0037947  83.4306017  78.9639886  74.4448821
  82.6534525  78.6256703  74.8896401  83.9461533  78.1846317  74.2374210
  43.6086941  81.0907650  15.2560794  43.4776878  81.7029572  14.5319986
  43.8843393  81.6417408  15.9886634  15.8725048  14.0444872  34.9837201
  15.2736927  13.9322493  35.7220023  16.7199684  14.2291329  35.3886216
  80.7951260  30.4528832  11.4304447  81.7403984  30.5891943  11.4945757
  80.4162216  31.1416554  11.9765687  14.2987514  45.8897448   2.3534591
  13.5901594  45.5346632   1.8167606  14.8894453  45.1491594   2.4907251
  47.3087978  66.1506319   2.1349838  46.8913889  65.9554434   2.9739738
  46.9558430  65.4949188   1.5335751  48.9651203  62.8824806   2.2382860
  48.9557314  63.3992720   3.0439353  48.8582420  61.9779730   2.5326806
  55.5299119  60.1851787  80.3487186  55.1939229  59.4156136  79.8892485
  54.7666696  60.7530316  80.4547165 107.5958314  15.6428406  63.9108555
 108.4100475  15.4882547  64.3897931 107.2286334  14.7694513  63.7745111
  62.9955864  57.4414301   9.8054355  62.4209118  57.2569084  10.5483592
  63.6480188  56.7413807   9.8276436  59.3873644  34.6621895  21.6865611
  58.8056183  34.6873903  20.9268427  60.0945139  35.2687764  21.4669657
  53.9549137  84.7078203   6.0644370  53.3783509  84.6312999   5.3042030
  54.0553929  83.8098012   6.3801867   5.5401827   1.6717598  70.3697615
   5.0850512   2.4770805  70.6158213   5.0359799   0.9741661  70.7885401
  44.3079853  41.9987917  19.2683256  43.9962530  41.1612654  19.6112537
  45.2514791  41.9872713  19.4293225  45.8621979  21.2520599  17.1110737
  45.2181196  21.9580722  17.0568776  45.4807520  20.5399323  16.5976501
  49.5130110  11.9448686  12.0392025  49.1758013  12.6727390  11.5169704
  49.0314817  11.1802483  11.7234290  36.4681435   9.7139168  21.3958836
  37.0865870  10.0044882  20.7255626  36.7907834   8.8530415  21.6623950
  37.0096111  35.0634933  12.7275765  37.3056722  35.9737468  12.7323520
  36.0996056  35.1060677  13.0213535  93.5914627  84.9781736  64.1167967
  93.2194105  85.6905874  63.5969155  93.0022684  84.2389353  63.9664309
  47.7417842  94.1530999  61.6650741  46.9388715  94.4600781  62.0861738
  47.5332276  94.1421946  60.7309358  55.4214191  38.5444975   1.3422634
  56.0709143  39.2189312   1.1434589  55.8241940  37.7288675   1.0443458
  87.2227383  64.3838644  25.4423809  87.9480076  64.7804642  24.9597621
  86.5663433  65.0780439  25.5014515  91.3089291  77.8813919  79.1161005
  92.1501557  77.4612054  78.9371805  91.2297693  78.5557946  78.4414558
  38.7354183  23.5283303   6.7834300  38.7436986  24.3825579   6.3516229
  38.7567329  23.7323546   7.7183902 104.1114750  22.1021340  75.7619696
 103.2723989  22.5491020  75.6505840 104.1671410  21.5073320  75.0140779
  83.4656525  48.3229351   2.0237058  82.8806400  47.8258705   1.4519364
  84.1247463  48.6877584   1.4331643 100.7023444   0.6265804  89.1383249
 100.5455770   0.6724903  88.1951664 100.3763404  -0.2364328  89.3935817
  71.2677160  86.9664343  86.5516152  72.0234719  86.3809618  86.5993966
  71.5748516  87.7860983  86.9389790  43.7900019  34.7483349  14.3729043
  43.5923767  35.6449175  14.6436727  42.9345512  34.3239260  14.3071723
 105.8263699  96.9692381  77.4529390 105.7388130  97.7551707  77.9922633
 106.3746849  97.2431382  76.7177122  65.7558886 100.3526171  88.4916008
  65.5100886 100.5594309  89.3932894  66.4009801 101.0207661  88.2599473
  33.0966377  29.6384382  15.7954431  32.6389861  30.2691340  15.2395570
  33.3418298  30.1388240  16.5737295  38.8471770   4.9109179   0.9951240
  39.4049335   5.6874287   0.9485447  38.3021784   4.9600279   0.2097599
   3.0742265  11.6642353  76.9510858   3.7522484  12.1434710  77.4273794
   3.1274868  10.7714674  77.2922068  96.7388741  92.6133259  72.7838318
  96.8546215  91.7571362  72.3717909  96.9389359  93.2419308  72.0902436
  22.6314808  84.0976166  16.4656639  22.7276922  84.4288134  15.5727565
  21.8186117  84.4924199  16.7812729  49.8831272  54.5468187  12.0081198
  49.6756458  54.6982002  12.9302204  50.7051945  55.0165224  11.8673551
  15.0597584  58.3997059  14.7118199  14.1976035  58.8144016  14.7425961
  14.8759353  57.4782562  14.5291495  18.3689034  12.9337072   5.9778702
  19.1931403  12.4993610   6.1974335  17.7831936  12.2209859   5.7225204
  75.9292984  48.8689804  17.7899373  76.2951899  48.7285089  16.9166541
  75.6522942  47.9986715  18.0763984  19.5505977  72.0902395   3.0147979
  19.0073323  72.4123573   2.2955404  19.0940440  71.3097477   3.3288407
  15.5689957  97.1369275  63.3515398  15.9011509  97.5530203  62.5560658
  15.4278328  96.2234124  63.1029646  22.0849133  64.8925972   4.5902362
  22.2447205  65.3281355   5.4274935  22.7154493  65.2897501   3.9894652
  67.6420307  50.8589363  12.2735643  67.0411730  50.2405834  11.8578231
  68.4574270  50.3682375  12.3763859  44.6224403  17.0315874   5.0813526
  44.1893578  16.4983141   4.4148004  45.5566025  16.8740821   4.9443558
  53.3887100  30.6431127  21.7023230  53.0302286  29.8314953  21.3431597
  54.1252899  30.8541322  21.1286044  17.7934433   8.8898108  81.0107015
  17.8117872   9.5983383  81.6540401  18.6997677   8.5855219  80.9636246
  75.2706281  78.0686935  68.8228648  74.3438665  77.9390844  69.0242307
  75.5360285  78.8020452  69.3778329  69.5489597  32.5854683   4.4497013
  70.1065207  31.8368530   4.2377234  70.0945330  33.3501458   4.2657149
  59.0123025  77.6507839  75.1960735  59.6466008  77.6334079  74.4794183
  59.0398351  78.5516223  75.5185048  65.7423925  44.3861294  24.8283672
  65.8664227  44.0145397  23.9550018  64.8030424  44.3033457  24.9926925
  13.5459282  84.4059356  87.0304869  12.9363301  84.8573454  87.6143117
  13.5712960  84.9501833  86.2434788  77.3334074  18.4630156  22.4244952
  77.3486662  19.4065404  22.2639894  77.3983002  18.3808374  23.3759499
  78.0452934  82.6244959  73.6713283  77.8402344  83.3626803  73.0975072
  78.9931217  82.5162967  73.5929625  67.3717070  68.5830116  29.4538474
  67.3097801  68.4474230  28.5083246  66.5417814  68.9965773  29.6913671
  52.7134991  20.2519822  19.0353692  51.9021988  20.2364349  18.5276520
  53.4061193  20.3190756  18.3780968  71.3497686  47.7790642   9.3864846
  71.5551233  47.2060966  10.1252437  71.8346691  48.5845709   9.5661026
  85.2348232  59.7141981   5.8840960  85.3236866  58.8650608   5.4513234
  84.3456459  59.9987841   5.6728745  68.5667530  94.8882826  80.6284087
  68.5126082  95.6779154  80.0900965  67.8705612  94.9923857  81.2770312
  31.2896515   0.9057781  68.6749189  30.6703020   0.9835741  69.4005816
  32.1491171   0.8788511  69.0954249  44.1684675  53.7422037   5.3056586
  43.8725185  53.9073277   6.2008566  44.2974806  54.6137285   4.9314526
  18.7475802  17.6715395  85.6891905  19.6862246  17.5642941  85.8430590
  18.6940266  18.2591602  84.9354874  34.9239063  49.5308065   4.5158330
  35.6516099  49.7041321   3.9186400  34.7520328  50.3740025   4.9350190
  60.5944434  81.7494639  83.8899909  60.6583587  82.5402554  83.3544545
  60.8114663  81.0357913  83.2901548  28.9185548  30.6930757   3.0035487
  29.3637586  29.8933792   3.2837456  29.2085290  30.8249259   2.1009064
   3.7146500  71.2582541  35.6673050   3.6562991  71.7700481  34.8605251
   4.3899128  71.6995573  36.1825776  56.5713596  36.0695052   1.1088431
  56.3124323  35.3083467   0.5893966  57.0363951  35.7001877   1.8595642
  38.2420325  29.9433088  38.5679507  37.9940391  30.8423328  38.7835646
  39.1897511  29.9806833  38.4388638  42.0389605  35.3165793  44.5939827
  42.6659298  34.9259925  43.9852333  42.5148153  35.3763008  45.4223728
  95.0921345   3.9205474  14.9717844  94.3012333   3.7319395  15.4768860
  94.9591732   3.4659845  14.1399634  64.1809940  46.2377501  15.6520879
  64.2718220  47.0685577  15.1854634  63.4829330  45.7768011  15.1868236
  80.0469700  66.5325781  78.0164449  79.8321453  65.7012757  78.4395509
  79.2179171  66.8331500  77.6442079  40.7817698  57.6142216   3.6086673
  40.0789452  57.0812607   3.9804560  41.2835503  57.0049286   3.0671757
 102.6925721  17.1077225  58.4324829 101.7627420  16.9735262  58.2490651
 102.9089847  17.9264519  57.9862945  84.7388617 102.3112305  79.5316212
  85.5820862 102.7627524  79.4951247  84.8972288 101.4726790  79.0980546
  82.4064604  75.6189068  58.9151161  81.4585940  75.6702670  59.0381615
  82.5703493  76.1094149  58.1096523  68.2250500  75.1638746  28.9065480
  68.2037306  76.0062122  28.4524059  68.4411240  74.5289612  28.2235932
  95.8847632  11.6520283  87.3465114  96.1936583  12.5120565  87.0616020
  96.2655892  11.5370962  88.2171393  91.8724251  33.9756632   7.9072392
  91.2309361  33.7768197   7.2251910  92.4046898  33.1828952   7.9738832
 104.6106019   9.4675419  69.2404704 104.9273314  10.0393936  68.5412567
 104.2239871   8.7210676  68.7827222  73.0068961  79.6681985  43.4633057
  73.6033980  80.0925335  42.8465788  72.6505057  78.9239248  42.9782526
  72.2078609  55.3910589   2.4625126  72.7349091  55.5352449   3.2484281
  71.8325615  54.5187187   2.5825277  69.6640921  55.6056929  10.5898356
  69.0577030  54.9808788  10.9874964  70.2414227  55.0675869  10.0482035
  61.2616682  18.7194550  15.1423931  61.3067532  17.8024721  15.4132080
  62.1331787  19.0678334  15.3303540  46.5631151  60.7582235   5.5751503
  46.9125271  61.2765169   6.3000715  45.6685066  60.5463076   5.8416092
  63.5524940  59.9471283  13.6408103  64.1804743  60.6543732  13.4935641
  63.7814856  59.2840528  12.9895592   4.7495987  81.3629635  78.8766758
   4.4703104  81.6428050  79.7484087   5.5686476  80.8911260  79.0275566
  48.5284090  42.2008419  26.0230374  47.9641247  42.6649904  26.6414094
  48.0592394  41.3881731  25.8341432  11.5485549  68.2968426  25.7095718
  10.7624698  68.7114620  26.0650849  12.2015107  68.9965487  25.6924295
  50.0174236  53.0848217  19.1553926  50.8970165  53.4398746  19.0269971
  49.7011328  53.5107851  19.9521005  82.9654422   6.1312077  79.2466478
  82.3192569   5.5223820  79.6044342  83.2485261   6.6498634  79.9997030
  34.4627404  37.9312778  36.8715596  35.2953768  38.3265066  36.6132164
  33.8267684  38.2843184  36.2493587  63.5871172  52.2574663  18.0985868
  63.3845282  52.9646206  18.7110615  62.7954578  52.1656561  17.5684154
 106.8683948  23.1673262  75.3373222 106.0137024  22.7479670  75.4366891
 106.7005720  23.9224741  74.7735672  82.9527012 100.1711758  69.9218933
  82.9449383 100.3811701  70.8557420  83.7982622  99.7459038  69.7790508
  78.7271420  71.4285143  81.3883220  78.1825367  70.7035955  81.0815154
  79.0364662  71.1478718  82.2495948  64.8468018  50.9264278   3.6720648
  65.3242064  50.2556133   3.1838825  65.5212212  51.3805342   4.1772196
   5.9474995 100.9101304  86.9691099   6.4857056 100.7542761  86.1930470
   5.0782397 100.5918130  86.7256104  82.6030747  76.0098919  84.0291022
  82.1577135  76.3943227  84.7841521  81.8999258  75.6218775  83.5082756
  49.6078730  75.6114721   3.4797513  49.9290943  76.2387037   2.8319624
  48.6575890  75.7261515   3.4734863  60.4396725  63.5168457  23.1961656
  60.9137869  63.1743240  23.9538765  60.7062149  64.4345713  23.1416678
  51.2173080  28.4582162  33.6091280  51.6421700  28.5873652  34.4570947
  51.3374662  27.5275469  33.4203076  36.3218333  10.5318615  64.4419877
  36.3175656  10.3669855  63.4991042  35.6561066   9.9396345  64.7917096
  60.6069326  30.5241895   9.1404814  61.3322306  31.0612082   9.4595230
  60.1464891  30.2483082   9.9330163  58.6619854  39.9595785  11.4395189
  58.5088778  40.8397198  11.7832398  58.7650585  40.0854063  10.4962409
  26.8179537  20.8357164  45.8734505  27.1698405  21.5910122  46.3445418
  27.5854756  20.3006479  45.6713526  75.3529882  85.2166843  19.1881359
  76.0987425  85.4349995  18.6291838  74.6700430  84.9377918  18.5781872
  33.0493666  12.3083374  63.9181368  33.3021904  12.6334450  64.7822087
  32.1008517  12.1924517  63.9739458  54.6525240  61.9713020   2.6588526
  53.9574862  62.2035885   3.2746431  54.7379589  62.7389145   2.0934272
  58.6686468  33.9986086  17.0874298  59.0950489  34.8553300  17.1085238
  59.0783978  33.5452080  16.3507056  10.0923111  96.1397513  76.3419776
  10.1953270  97.0808037  76.2003975  10.0618603  95.7669076  75.4609041
  58.2502365  84.0244675  34.2502713  59.0059137  83.9727116  33.6650300
  57.8189754  83.1746674  34.1603088   9.2751766   1.2892124  68.2187884
   9.4450976   0.3792879  67.9750745   9.2534567   1.2808106  69.1757052
  28.0702950  55.2701494  84.1183500  28.3093859  54.5684931  84.7239514
  27.4119879  55.7800314  84.5904412  55.3207922  67.9610825   5.6308973
  56.1312199  68.4273291   5.4258239  54.7750092  68.0758810   4.8529691
  70.5220222  80.6830025  29.8006344  69.9523115  80.2391052  30.4288197
  70.1212072  80.5087566  28.9490390  30.6703497   7.1674320  54.6815626
  30.8789421   6.7236969  55.5036442  31.4735438   7.6342032  54.4508307
  35.8188891  65.9606600  47.1917295  36.0167456  65.1577187  47.6737785
  35.4877257  66.5639782  47.8569889  77.7898136  85.8153328  77.9325967
  78.4439055  85.5872186  78.5931711  77.3725096  84.9828108  77.7112501
  32.3445154   2.3761198  62.1533506  32.0333029   2.0481608  61.3096564
  32.2152830   3.3232996  62.1045701  66.1134768  37.2152066   2.7354681
  65.4439402  37.6453257   2.2035375  65.6552935  36.9587255   3.5357898
  59.1122866  53.1443977  25.7014751  59.5854664  53.8191462  25.2145982
  58.5354567  53.6328936  26.2887335  80.2670113  93.6516341  71.7192035
  79.8336903  92.8375538  71.9755881  80.9797684  93.3728179  71.1443369
  81.5098667  28.4779072   9.7372758  81.3147259  29.1583276  10.3816187
  82.3365784  28.0972838  10.0337803  74.7200298  69.8231030   6.8179321
  73.9877701  69.8498106   6.2020487  75.1916981  69.0206814   6.5945888
  56.6038322  70.1215172  18.5489094  56.2536955  69.2350578  18.4604383
  57.2498894  70.1950645  17.8464615  56.7697763  22.1322060  22.4894500
  56.9260454  21.2243247  22.2295213  55.9102249  22.1162748  22.9103422
  44.7634745  21.8303466  13.6248469  44.8030710  20.8960176  13.8290334
  44.0091324  22.1516895  14.1187453  68.0615759  21.8080974  15.5779266
  67.3232651  22.2495389  15.9977579  67.9436207  21.9799638  14.6437001
   3.0032517  39.5624754  85.7319109   2.5416042  38.7462828  85.9241338
   2.5975395  39.8831389  84.9264272  99.7953572   1.5194532  60.3015869
  99.9792280   2.4560282  60.2291386 100.5321231   1.1687300  60.8019893
   6.9513155  10.1040289  79.9421369   6.9720865   9.2545244  80.3827523
   7.7571274  10.1258823  79.4259744  95.1762596 100.4873665  68.1861966
  94.6788040 100.7144126  68.9718287  94.6550766 100.8368357  67.4633734
  38.2833672  87.4213409  15.5359685  37.4906921  87.9377937  15.6814790
  37.9823470  86.5127468  15.5454171  15.6102492  20.2019474  84.1688185
  15.8018280  19.5332167  84.8263382  15.9294058  19.8284647  83.3473055
  59.3195105  72.7286720  10.0008082  58.5199404  72.7035618  10.5264401
  59.0634584  73.1804657   9.1967249  32.9999399  47.8507233  34.4644594
  32.8913021  48.6997890  34.8928475  33.7231517  47.9825497  33.8514185
 104.7392820   6.2997831  37.5162268 103.8391899   6.6166032  37.4408031
 105.2781461   7.0858491  37.4270082   1.5403486  16.6890356  75.8207040
   1.2683393  17.4108812  75.2539759   1.9664623  17.1156571  76.5641110
  17.5969673   6.8352530  83.1781207  18.1568552   6.3256714  83.7638520
  18.2059170   7.3757479  82.6748525  25.4106522  55.2212334  17.0957172
  24.6224546  55.7409048  16.9378579  26.0850382  55.8669758  17.3065627
  36.6045547  25.7883048  30.5904317  37.1712446  26.5311599  30.7984209
  35.8865452  25.8510613  31.2203193  62.1136999  62.1057177  21.3407874
  61.3744211  61.6502476  20.9379888  61.7959738  62.3580885  22.2077298
  75.8282900  78.8202143  14.4239819  75.3800774  78.0508518  14.0726793
  75.5196905  79.5457935  13.8812745  51.2700319  80.6699181  38.9426947
  51.5035105  80.6152439  39.8693705  51.4754343  79.8031235  38.5923958
  35.5370092  43.8290548   7.2987312  35.0446963  44.4152784   7.8733599
  36.3344717  44.3145752   7.0876622 103.1743256  95.8987101  83.2454501
 103.8972536  95.4453858  83.6791580 102.9831377  95.3630026  82.4755846
   4.0535094  19.1119263  74.4255226   3.2251812  18.8172981  74.0469687
   4.3307616  18.3884213  74.9875800  83.4402752  17.3515558  36.2488937
  83.6114693  16.7004633  35.5684471  83.5417461  18.1937635  35.8054709
  36.9252706  71.9138718   5.9249079  36.2270927  72.5156879   6.1829662
  37.7338243  72.3770714   6.1438090  58.3975601  76.9359589  19.3677735
  58.3743906  77.2629547  18.4684587  58.6587620  77.6934624  19.8914087
  46.6241455  66.1753893   7.0774645  46.0028601  65.4486609   7.1232969
  46.4674568  66.6753340   7.8785479 102.9399410 102.9617890  78.0955522
 103.1185881 102.8071030  77.1679799 103.7956492 102.8931388  78.5189681
  27.2239996   8.8300488  59.6392147  26.6244293   8.0855486  59.6888583
  27.4098612   8.9260265  58.7051504  63.3913374  60.5079317  29.2985058
  64.2546225  60.1156712  29.1677356  62.8644753  60.1750898  28.5719633
  69.4164705  53.8913918   6.2099367  69.0404749  54.2557049   7.0112681
  69.9588299  54.5970011   5.8575249  83.8479424  72.6213217   5.3745353
  83.7349319  73.2881594   4.6971941  83.9800453  71.8069315   4.8892045
  33.4926963  72.7580643  18.1773698  33.4035611  73.3282566  17.4137139
  32.8908706  73.1274128  18.8236058  24.5340252  17.8700435   4.8362327
  23.8707948  17.3583007   4.3731186  25.3679562  17.5049937   4.5403743
  31.3909985  42.0528528  59.1330855  31.7791106  41.2771914  58.7281887
  30.8604027  41.7080423  59.8512785  40.3380585  48.5471964  23.8071156
  40.5527306  48.8429499  22.9224253  40.0701714  47.6349545  23.6962891
  27.5036360  15.6290266  60.7618039  27.4778630  15.0831673  61.5476816
  26.6549851  15.4858992  60.3428357  44.4524622  41.7903948  23.0621386
  44.3179464  40.8453798  22.9908085  44.5866156  42.0819664  22.1603513
  89.9082056  97.8877839  73.8851099  90.3372351  97.4769076  73.1345456
  90.3352991  98.7404069  73.9679472 100.7061258  80.4567822  83.2987444
 101.6173712  80.3166565  83.5560994 100.5836359  81.4042910  83.3575361
   2.7734710   5.9058449  60.2710764   1.9401337   5.8598587  59.8023908
   2.6020123   5.4732153  61.1075370  67.3744297  41.3111067   9.4748640
  66.5032005  41.4744377   9.1136009  67.2136974  40.7898521  10.2614319
  47.0515633  23.6382675   2.3842373  47.3327303  23.9919901   3.2280707
  46.6418839  22.8005600   2.6002106  43.4430885  28.1813931  15.0699234
  43.0213404  28.0800796  14.2166388  43.9688778  28.9766574  14.9843001
  72.2906876  58.6106253  12.1680713  72.5577736  58.3704805  11.2808144
  71.3440943  58.4690094  12.1798444  61.5774012  65.9898376  22.9059768
  62.4808216  66.1754990  22.6498508  61.0649252  66.6891956  22.5003910
   6.4785864  89.2508420  72.1674232   7.0233538  90.0369247  72.2066431
   5.8048012  89.3929609  72.8322916  17.3928334  23.7540028  82.2328793
  16.5186621  23.5172817  81.9230108  17.6326395  24.5198652  81.7111658
  28.8492632  57.6022100  23.5193586  28.8379598  58.4350443  23.0476713
  29.5865107  57.6798868  24.1248870   5.6372954  17.2956488  76.0618667
   6.1159540  16.7158577  75.4694478   6.3096501  17.8670761  76.4328616
  95.4266993  82.0282372  70.5712252  94.5468441  82.0552596  70.1952462
  95.3296391  82.4254855  71.4366763  53.5496950  22.8164577   1.8775554
  52.8833818  23.5036325   1.8844967  53.1572485  22.0972967   2.3725522
  66.0297155  77.2912264   5.9195971  66.7573261  76.6781950   6.0244888
  65.4380465  77.0868540   6.6437435  98.1582180  66.4863297  62.5266759
  97.5102106  67.0913859  62.8875439  97.9505078  66.4416226  61.5933554
  60.4466677  17.4518561   1.0378083  60.2473593  17.7773798   1.9156131
  60.5110073  16.5026581   1.1432400  29.2579724  35.5036566  49.3897216
  29.2301251  36.2046072  50.0409691  30.1422192  35.1443693  49.4622080
  63.6216711   9.2611135  41.3080263  64.2779993   9.3014062  42.0036125
  63.1727289   8.4277833  41.4503098  40.9371138  70.4678154   7.3767591
  40.0634718  70.1989079   7.0927256  41.5196609  69.7902536   7.0335799
  82.7934470  13.8231489  42.5156729  81.8424501  13.7162850  42.5360958
  82.9698481  14.5195982  43.1481831  66.1705795  93.6332997  87.6830089
  65.6541864  93.6110076  88.4886606  66.0997120  92.7469977  87.3284948
  68.3794451  73.4477758   9.6872175  68.0540991  73.3657408   8.7907523
  68.8276625  72.6190376   9.8561245 104.7507000  80.3451729   1.5779667
 104.3657589  79.4743681   1.6767371 105.6442165  80.1793671   1.2773535
  96.5846539  61.5237188   4.8053521  96.4896107  61.4814901   3.8538194
  95.6875324  61.5868568   5.1331007  24.4292927  33.5380244  15.8100021
  24.3232703  32.9144359  15.0915813  25.1341009  34.1179872  15.5216980
  17.0147825  36.1118910  88.5209905  17.6932074  35.8911726  89.1591553
  16.7818428  35.2746317  88.1197878  58.0235481  86.1721039   6.6497868
  57.3775768  85.7943535   7.2466558  57.6323557  86.0759926   5.7814759
  54.9573590   4.4858954  75.1927035  55.4823281   4.0313360  75.8514993
  55.4045655   4.3076679  74.3653719   3.7397482  86.1351427  46.1775248
   3.3763602  85.2781733  46.4006369   4.3411591  86.3344487  46.8950312
  63.5157681  64.8420715   1.5464114  64.4260120  65.0279140   1.3158610
  63.0590487  65.6715202   1.4062166  52.8642822  13.8024399  81.9542329
  53.0662705  13.5441992  81.0549317  51.9078804  13.8198540  81.9893526
  34.2783666  47.5337696  30.5286360  33.3273911  47.6195526  30.4614067
  34.5426822  48.2468891  31.1098695  27.6019360   1.3533899  74.6045451
  27.1531082   1.7945835  75.3257518  27.2001625   1.7157862  73.8149361
  80.5870882  74.5589074  83.0538748  80.4699818  73.6089023  83.0511718
  79.8695007  74.8871502  83.5956828  23.0909348  31.0259819  18.8061130
  23.2326698  31.9726205  18.8102281  22.9333830  30.8033991  19.7236466
  48.9104344  19.0063784  74.5967262  48.9896275  18.1881687  75.0871198
  49.8076702  19.2198965  74.3405728   3.7904066  42.1782923  20.6806040
   3.6749330  41.8583536  19.7858751   3.5118517  41.4484644  21.2337637
  98.5381021   5.1624319  88.7125350  99.3530264   5.5865404  88.4437187
  98.1493344   5.7685873  89.3431475  47.9700066  45.7873079  78.9880555
  48.1362416  46.2017843  79.8347001  48.7670304  45.2901575  78.8041549
  20.0053478   8.4750816  74.5791631  20.4320933   8.4765694  73.7223558
  19.0707709   8.5356733  74.3813639  82.5212765  80.7037830  12.8062534
  82.8420162  81.3517857  13.4335005  81.6822243  81.0544682  12.5075066
  31.8481089  58.7270376  60.6298916  32.7242590  58.4016153  60.8365195
  31.9891001  59.3697378  59.9347107  79.2525101  52.2703648  18.2626688
  80.2086449  52.3153591  18.2608449  78.9704084  53.1751585  18.3968198
  11.9686581  19.5331452  86.4417745  11.8624426  18.9155266  85.7182394
  11.1657645  19.4414208  86.9547904   4.5408347  61.9094320  80.9104340
   5.4728463  62.0323225  81.0906635   4.2586424  61.2517645  81.5461020
  34.1716647  73.5405493  11.0739374  35.1027608  73.3249283  11.1268413
  33.9138818  73.2741213  10.1914430  10.1286614  39.3197656  36.8053460
  10.7351601  39.0584159  37.4982285   9.2603576  39.2081499  37.1924138
  12.3640896  11.3746044  78.7426047  12.6557757  10.9840891  77.9188030
  12.3157669  10.6385967  79.3526833  57.5578117  58.7085056  15.2098167
  58.3219719  58.5924196  15.7744563  57.4056196  57.8424311  14.8316956
 101.0022751 101.0453709  68.5534470 100.7717911 101.0217961  69.4821851
 100.6022469 100.2566060  68.1873028  32.8394365  64.2399263  24.4805670
  33.7149191  64.5375586  24.7279048  32.9806876  63.3760977  24.0931654
 104.0092961  99.5654353  52.8706210 103.0818287  99.5435723  52.6349156
 104.0205828  99.4032248  53.8139098  74.0213060  56.1485815  19.4359565
  73.4815073  55.9547853  20.2023053  73.4186888  56.5598631  18.8163328
  75.9230677  99.7674092  77.6436047  75.6297485  99.9561461  78.5349946
  75.8183042  98.8203391  77.5524645  58.4638119  63.7868595  12.6305854
  58.3382320  63.9281940  13.5689270  58.1899834  62.8811216  12.4860358
  20.6200480  65.5392742  19.1503096  20.6860614  64.7238493  19.6472549
  20.4125166  65.2601576  18.2585382  39.2097974  51.7648649  28.4863305
  40.0604153  51.4229345  28.2110882  38.8864422  52.2447300  27.7238297
  46.9261980  39.4317341  11.2523198  46.7656565  38.5110188  11.0455847
  47.6316643  39.6908331  10.6595182 101.1493840  13.5589859  79.0320854
 101.5041985  14.2505095  79.5907699 100.3415646  13.9293072  78.6763863
  42.2602202   5.3197167  86.1172830  42.4425150   5.9405157  86.8226962
  41.6043783   4.7265884  86.4837493  67.9590098  88.2635888  69.2985277
  67.0264498  88.4454521  69.1823976  68.3486191  89.1183170  69.4825749
  84.1389751  54.5926714  29.5339847  84.5568848  55.2924585  30.0358701
  84.2248344  54.8683167  28.6213613  62.3006582  32.6599956  45.5442238
  61.9883347  32.6272464  46.4484406  62.3107147  31.7456985  45.2610397
 106.8861380  28.6409399  69.8626952 106.7766633  27.7725575  69.4751947
 106.2807121  29.1990587  69.3746405  28.5836554  16.2022007  20.0974083
  29.5339561  16.0917747  20.0663209  28.3102250  16.1834669  19.1802835
  66.2654225  99.5907649  68.0820243  66.8072621  98.8017615  68.0712383
  66.0743300  99.7374400  69.0084164  61.7389551  91.7017707  79.6043365
  62.5794116  91.8843659  79.1841893  61.7939106  90.7809075  79.8597239
   8.0532433  15.7408926  75.2391212   8.2512308  16.5958426  75.6213419
   7.8038002  15.1966116  75.9859602  34.1800454  86.6465481  80.7200663
  34.1260674  87.3546609  80.0782769  33.5919526  86.9170436  81.4251982
  71.7499447  15.5794716   6.1327928  71.4816523  16.4620650   5.8772939
  71.9992161  15.1574707   5.3105927   5.5542303   3.3428404  83.8745670
   4.8290373   3.1868288  84.4795357   6.2140490   2.6939795  84.1192167
  76.4427057 101.9350299  76.1893468  77.3492590 102.2237452  76.2944000
  76.4079348 101.0882434  76.6342955 100.8878342  85.4607447  68.8382141
 100.7912222  84.7309788  69.4500487 100.0088326  85.8333119  68.7690823
  18.3422543  98.7591430  10.7133150  17.4541689  99.0966850  10.5966938
  18.6957623  98.7033068   9.8255396  48.5918665  67.2443533  13.3730948
  49.4471788  66.8795967  13.1458735  48.1834221  66.5739489  13.9207816
  76.4333916  25.2041101  37.7267647  76.1801863  26.1240077  37.8036118
  76.4578295  24.8862147  38.6293054  94.9728743  94.0249928  60.5613463
  95.8561007  93.9433201  60.2015226  94.4062821  94.0912207  59.7926967
  69.7823572  12.2352135   1.1921729  69.5951891  11.4955664   0.6141412
  68.9308262  12.6479018   1.3364533  51.5113735  75.3638840   5.8109492
  50.8636808  75.0586319   5.1756966  51.1050797  76.1287403   6.2185687
  81.7973995  49.2821169  19.2151964  81.2875938  48.4873581  19.0580654
  81.7611313  49.7579050  18.3854115  61.7415953  26.4732695  29.0367246
  60.8997154  26.9186592  28.9413333  62.3302317  26.9449639  28.4474516
  64.5611000  87.3988056   7.1122247  63.6163187  87.3144627   7.2407198
  64.6734476  87.4104404   6.1617118  34.5546722  57.9188824  29.6963334
  34.3670559  56.9806480  29.7236657  33.7360001  58.3348179  29.9665260
  38.5815216   4.2262384  83.9017044  39.4800307   4.2160675  83.5718446
  38.5475708   3.5019514  84.5265915 101.8252754  54.9680138  -0.1161896
 101.4196301  55.8172607   0.0583455 101.5014744  54.3997526   0.5827102
  49.3012428  71.6295338   9.0974176  48.5223675  72.1759415   9.2024136
  49.9083948  72.1721125   8.5942203  38.3414912  86.8554783  10.7274818
  39.0137219  87.1499443  10.1129675  37.8502345  86.1908150  10.2446640
  75.8334800  25.9510729  76.1492317  75.8126494  25.4371378  76.9564919
  75.3231671  26.7352745  76.3513200  59.5562363  69.4287157  13.2143140
  59.6470261  68.5023069  13.4373796  60.0029135  69.5172358  12.3723674
  45.9880638  74.6045399  15.5417454  46.2006378  75.4564190  15.1605082
  46.5946341  74.5128870  16.2765288  75.1453018  73.2997131  34.3810344
  74.6993923  73.1645870  35.2171779  76.0252666  73.5885763  34.6228051
  53.5540581  49.9749708   2.8208572  54.2831373  49.9107075   2.2039717
  53.9463997  49.7941589   3.6750290   8.0686070  13.7962553  85.7771073
   7.1240546  13.9507792  85.7902987   8.4051729  14.4244597  85.1381158
  74.8701525  48.8557959   5.0981706  75.3999949  48.0588055   5.0806314
  75.5085230  49.5665312   5.1578981  95.1890532  61.3132676  76.1105423
  95.4307858  60.7071241  76.8108182  95.1954714  62.1751257  76.5269451
 107.5527731  92.1049126  86.2161000 108.2231537  91.5940388  86.6697829
 106.7838589  92.0484646  86.7833862  55.8555222  80.2933407  11.7893541
  55.4829407  79.6203804  12.3590374  56.2276554  79.8058558  11.0544348
  39.6384430  45.8928013  23.1430483  38.7344408  45.5997801  23.0283856
  40.1684332  45.1786566  22.7890158  49.8683071  50.5143070  19.6241140
  49.9529791  51.4365911  19.3823481  50.6240320  50.0898743  19.2179430
  75.0765371  79.6809864  27.4251175  75.4100704  80.5781460  27.4344277
  75.2804756  79.3587399  26.5471673  55.8944607  47.0488596   6.9382733
  56.4904690  46.5064764   7.4548239  56.1617374  46.9012642   6.0310739
  71.1724710  58.3835793  15.4636741  71.6529846  59.1852140  15.2569771
  71.7749882  57.6767445  15.2321863 106.9612907   3.0123628  14.9365854
 106.7992948   2.1975339  14.4611573 106.4838289   2.9084123  15.7596624
  43.3566093  76.4656401   6.5782696  42.7591658  76.6169691   5.8458817
  44.0349245  77.1332026   6.4759028  56.4606476  67.0052910   2.7130407
  57.3667669  66.9442654   2.4106316  56.2519884  66.1242914   3.0237341
  54.1259432  71.0153008  21.8994784  55.0133038  70.8057213  21.6081071
  53.6441755  70.1929665  21.8105912  66.3300276  49.1011715   2.6742977
  67.2029972  48.7365913   2.5285631  65.8784676  48.9828014   1.8386470
  92.2425270  33.9028311   3.6693242  91.7419910  33.1284595   3.4123373
  91.9609070  34.5836997   3.0583099  42.8267123   7.3342821  88.1153012
  43.4458996   7.1733400  88.8272946  42.2846771   8.0584452  88.4283802
  90.5733681  56.2515116   2.3126759  91.2283897  55.7081938   2.7508393
  90.8646011  56.2898874   1.4016640 106.9058895  73.9690781  21.4311886
 106.4989758  74.0923643  20.5736065 107.6510906  73.3926201  21.2620544
  51.1584568  37.4011207  16.9483483  51.8811750  36.9447207  16.5175188
  51.4083195  37.4272108  17.8719926  42.5238180  68.6084700  17.3244655
  41.6755104  68.9685726  17.5831831  42.5996351  68.8190556  16.3938010
  55.7587138 101.5095337  67.3448746  55.2350787 102.2891148  67.1596997
  55.4787759 100.8715161  66.6885226 109.2811456  35.3875944  83.7052594
 108.3917656  35.1516077  83.4415434 109.5624700  34.6677515  84.2699839
  44.1889858  59.9540281  22.4832416  44.3075991  60.6262541  23.1542683
  44.0048409  60.4449034  21.6823864  13.1795573   1.4416631  18.6294174
  14.0218234   1.6623653  19.0270472  13.1889439   1.8903336  17.7839363
  60.5861902  49.2178059  14.4235098  59.6596479  49.3663692  14.6124125
  60.5915546  48.8079739  13.5585022  74.2663240  40.1090670  29.7190976
  73.6895514  39.9339509  28.9755273  74.2200375  41.0574770  29.8399687
 101.1904493  97.8148659  84.2365943 101.9135491  97.3965033  83.7693404
 100.4073540  97.5454625  83.7565772  84.2981497  91.8105324  72.3290865
  84.7105519  92.6098021  72.0014791  83.7064997  91.5410145  71.6265600
  47.9991102  47.3789740  21.4463449  48.3515978  47.5924587  20.5823970
  47.6203728  48.2001543  21.7601061  55.9341097  62.6931477   6.6054904
  55.0977278  63.1371927   6.7452145  55.7684135  61.7850542   6.8587518
  60.5974817  69.2111206  10.6703329  60.0360680  68.7523651  10.0453627
  60.6337500  70.1104164  10.3444648  62.9024020  87.2211465  73.1090753
  62.0129291  86.8935331  73.2422631  63.0221001  87.8756960  73.7971656
  75.3817049 100.0373133  68.7721555  75.2866856  99.0850123  68.7902968
  74.5201818 100.3688439  69.0253274  44.0654541   8.5678598  82.6919650
  44.8694779   8.0629561  82.8138064  43.3617092   7.9302427  82.8120302
  38.2500483  24.4327375  69.5992856  38.2870318  25.3179714  69.9615292
  37.4977852  24.4473097  69.0075772  67.4207067  47.7908707   6.6750640
  66.5737867  47.6847649   7.1083069  67.9884338  47.1465635   7.0979005
  55.5273581  17.5778961  10.9088111  56.2487173  17.7652740  11.5094411
  55.3415203  18.4174967  10.4883730  91.6991631  94.3897637  52.0994608
  92.5976196  94.0855893  52.2278492  91.1752430  93.5888585  52.0826475
  29.2725588   7.4760220  66.6470139  28.5039164   7.2135803  67.1535199
  30.0057150   7.0394919  67.0807855  55.0681686  26.5392351   5.2209395
  54.7686338  26.6485214   4.3184057  54.4011879  26.9775319   5.7493907
  92.6023022  69.4112953  65.1155369  92.0678059  68.6778518  64.8112266
  93.5010353  69.0838643  65.0795286 108.5232558  20.6366608  85.3741841
 108.8941922  20.0534031  86.0363420 108.6687913  20.1810095  84.5450683
  38.5807776  31.1921120  10.5522215  38.8845921  30.3939533  10.1199365
  37.6306820  31.0887313  10.6057107  81.2831974  59.5228481   5.6668448
  81.3167477  60.4401064   5.9384018  81.6965008  59.0449190   6.3858712
  55.5249834  28.4148479  12.1419537  56.1642742  28.7865424  12.7497208
  54.7839308  28.1679392  12.6952279  27.3215747  53.0055809  28.1196260
  27.8861856  53.6259651  28.5806799  26.6491485  53.5511684  27.7116990
  70.6132698  41.5313721  21.2968636  71.1567545  41.6388512  22.0774460
  70.0369787  40.7961655  21.5056396  44.0575577  41.6422770  72.0415597
  44.0705563  41.9456884  72.9493074  43.5794998  42.3232100  71.5682452
 109.2458405   1.2306091  72.6863699 108.7724605   1.5186998  71.9058912
 109.2676701   0.2763531  72.6146345  56.1980534  54.6588898   7.1217227
  56.2489986  53.7450457   7.4019486  57.0255327  54.8164892   6.6671073
  40.5625105  60.6195450   3.6109376  40.7009172  59.6843863   3.7611127
  41.0351801  61.0491467   4.3238589  67.1011639  81.8377972  14.4595814
  67.9776716  81.5820599  14.7469175  66.7212152  81.0338783  14.1052008
  53.5011244  77.6537991   9.6212119  53.7218523  76.9992781  10.2838695
  54.2506790  78.2490540   9.6135139  83.4896183  78.3276606  28.7687898
  82.5716400  78.3991289  28.5071850  83.6432838  77.3862648  28.8487530
  49.0017508   6.4799608  14.5920014  49.6468424   6.0317720  15.1390135
  48.9129339   5.9212602  13.8198662  28.0315542  52.3128748  23.3706403
  27.1621466  52.6943445  23.2488084  28.4773040  52.4614429  22.5366950
  57.6546049  90.9094048  48.3258390  57.1278334  91.2261677  47.5920773
  58.1355476  90.1620293  47.9703760  22.0393502 103.0073643   8.6560798
  22.9008232 102.7830410   9.0078813  21.4203488 102.6555538   9.2958522
  63.6022425  82.9103184   1.1955683  63.7121725  82.3240089   0.4469760
  63.6190891  83.7889481   0.8161449  77.8388071  44.3674707   1.5208748
  77.5845957  45.1153612   2.0614886  77.1753597  44.3335629   0.8317295
  57.9342079  43.1391764   9.7422403  57.0538187  43.2683897  10.0950170
  57.9013109  42.2779846   9.3257087 103.5433355  99.6552857  55.9590547
 103.9343229  99.2341956  56.7245858 102.6958624  99.2227467  55.8544891
  59.8721266  47.1942854  35.6430435  60.6211710  46.6793203  35.9430003
  60.1872540  47.6397705  34.8566151  40.4556751  79.4878578  13.8609505
  41.0132599  78.7098694  13.8526285  39.5745730  79.1493511  14.0200174
  65.0606775  86.1947250  23.5514975  64.3412304  85.7573891  24.0068698
  64.7421551  87.0844460  23.3992958  87.5845051  90.3772259  22.4775863
  87.5221157  91.2698650  22.8175116  88.5168743  90.1665020  22.5276446
  38.6481667  95.2623367  25.6611705  38.1301570  96.0542774  25.8051324
  38.8172054  95.2546787  24.7190452 105.3843608  16.0711214  88.4285659
 105.0773611  15.6469748  89.2298669 105.3622236  17.0067856  88.6292440
  76.1257458  64.1971445  55.7275248  76.4069510  63.4227419  55.2402306
  75.3345156  63.9165306  56.1873531  84.8406696  83.0615616  46.1374426
  85.5317020  82.5821304  45.6804276  85.3067112  83.7185860  46.6545153
  66.5959167  56.3562965   1.2539200  65.8395052  56.5238619   0.6917803
  66.2657833  55.7638407   1.9293745  63.1804228  88.5536289  33.8083124
  62.8543139  89.3913078  34.1372085  62.5059128  88.2572937  33.1972098
  69.6693087  77.3756647  44.8099089  69.3757343  78.0506420  45.4218340
  70.1437569  76.7480755  45.3551245 103.5786629  69.2066765  43.5638666
 103.5189438  69.3641138  42.6215935 104.4689941  69.4714832  43.7949896
  61.7229509  56.8500566  12.2297585  61.0219574  56.5718555  12.8191972
  61.9065809  57.7539158  12.4857926  69.4551420  94.7949123  16.7231441
  69.7156811  94.0592575  16.1689174  68.8263130  95.2837849  16.1922860
  50.1657845  26.5128681  79.5828317  50.9782387  26.1818955  79.1999386
  49.7317196  25.7349274  79.9330221  18.4113575  47.2401449  76.7771177
  17.5132729  46.9655916  76.9623117  18.8934447  46.4211485  76.6628520
  58.2749176  65.0939178  24.2395329  59.0688276  65.2305937  24.7565007
  58.5046864  64.3941021  23.6282253  64.0912914  59.6909237   8.7146354
  64.1198826  59.4875765   7.7797216  63.4656096  59.0637445   9.0771359
  32.7483536  26.7182228  80.8238815  33.4474732  26.2693760  80.3484897
  32.3980738  26.0543272  81.4178340  70.5051470  84.0125179   9.4694906
  69.8458242  84.6647358   9.2325795  70.7217026  83.5799122   8.6435437
  59.3094158  87.3380470  13.6367321  58.9130545  86.9039631  12.8812814
  58.8610744  86.9594669  14.3929708  69.9293947  67.9833651  11.9816792
  70.6679106  67.5223351  12.3795223  70.3225851  68.7489414  11.5627158
  87.5847975 100.8997735  45.1215403  87.8802506 100.4841384  45.9315960
  88.1140724 101.6943987  45.0532000  46.7265844  58.5926914  16.4745891
  46.3819265  58.1857824  17.2694874  47.4034691  59.1930723  16.7870021
  33.2770516  23.0085537  83.9103918  33.1771590  22.4838087  83.1161009
  32.4744822  23.5281393  83.9566986  93.0218124  73.5426617  10.1522779
  93.0679798  73.0799294   9.3156308  93.4252739  74.3930483   9.9782330
 108.0943314  97.3004063  88.1634501 107.5680748  97.2267827  88.9596048
 108.6638991  96.5313061  88.1808517  50.6962776  52.5417328   5.9962171
  50.6752205  53.0523491   6.8055755  50.7985783  51.6356134   6.2872750
  35.0702240  94.5969733  82.0817273  34.1896012  94.4654473  81.7303966
  35.0579789  95.4879292  82.4314146   1.8762496  94.9389180  69.8422186
   2.0953419  95.3142413  70.6950741   2.0826056  95.6321868  69.2152994
  66.5328979  55.5935764  26.7031074  65.7058287  55.7336044  27.1641707
  66.3441229  55.8308077  25.7951880  65.5904102  55.2941608  16.6396546
  65.6169701  54.3466520  16.5064013  65.9235477  55.6606579  15.8205509
  70.4945230  67.5649786   1.8408403  70.9827280  67.5140429   1.0190764
  70.8487034  68.3368731   2.2823927  84.6510315  89.4799709  39.3321061
  84.7731876  88.5887432  39.0049696  83.7494946  89.4957161  39.6533775
  22.3900391  19.2197964  55.6978576  22.5488783  18.7328217  56.5064733
  23.2383085  19.2311356  55.2545302  86.7668343  46.0421133  57.4400139
  86.6390610  46.7560816  58.0646372  85.9270859  45.5829096  57.4260855
  36.7246224  30.6329558  83.4129118  37.1362234  30.2803824  82.6239191
  36.6832424  29.8893282  84.0141957  14.4560267  39.0150854  77.1811263
  15.1640917  38.4858725  76.8139641  14.1864945  39.5865461  76.4620821
  75.2053499  70.4545498   0.6152089  75.2391911  69.5186520   0.8131520
  74.9056816  70.8606958   1.4285211  51.9726181  93.1068420   0.9375205
  52.7796459  93.0063152   1.4423332  51.8084192  92.2372532   0.5727084
 108.0294704  66.1114073  18.0162847 107.5144672  66.0257483  18.8185716
 108.7678432  65.5151510  18.1408405  84.5360470  55.2528811  26.9907045
  83.8921070  55.0906610  26.3013148  84.5690536  56.2063789  27.0680618
  69.7605658  67.1872187   6.2564451  70.0244808  67.2895622   7.1708339
  68.9130259  66.7444849   6.2998933  75.4634094  65.8391285   8.9792478
  74.7366428  65.5053568   8.4532821  76.1503935  65.1793432   8.8845599
  16.5721664  15.2221502  24.3478966  17.4504433  15.5654348  24.5122218
  16.7197857  14.3407835  24.0049076  58.5593414  90.0372028  59.8298216
  59.3052483  89.5105743  60.1170731  57.9062223  89.9241543  60.5203915
  62.2913790  90.8367920  20.6095910  61.5573978  90.2378750  20.7467151
  63.0378246  90.2643013  20.4326582  66.0167481  43.6608622  86.4351334
  65.8438851  43.1107542  85.6711070  66.7498184  43.2328817  86.8774894
  73.7531471  97.6219273  16.7168784  73.1093645  98.2569218  17.0308256
  73.8187313  97.7919674  15.7771885  77.0615387  64.3967676   5.0116611
  76.1260986  64.2633772   4.8587310  77.4115086  64.6429110   4.1554090
  53.4608793  91.8357563  31.6904235  52.7600050  91.3928127  32.1687651
  53.8175058  92.4655437  32.3168564  31.2895561  44.0042421  63.1584136
  30.7571865  43.5215494  63.7907283  30.8457829  43.8713572  62.3207729
  35.8809782   6.4727041  77.1188311  35.7418848   7.4190590  77.1548216
  36.6301562   6.3186762  77.6943676  90.4439846 100.6235512  55.0045030
  90.3290001 100.9619483  55.8924763  91.1113659  99.9429949  55.0920884
  96.1184025  62.6280499  11.8186820  95.2841282  62.6871157  12.2842348
  96.7195034  63.1647015  12.3353219  80.9940434  57.8410578   3.4099746
  80.1101112  57.5718975   3.6599022  81.3308525  58.3008099   4.1790116
  44.8604275  41.8265936  79.5497362  45.5952049  41.2438414  79.7413890
  44.3432785  41.8328497  80.3551899   1.4890133  87.1760654  21.9043565
   1.9518124  86.9312477  21.1030388   0.8439957  86.4801788  22.0305371
  60.4209518  67.0280504  13.6976337  61.2429094  67.3156738  14.0949833
  60.0902081  66.3547564  14.2922056  75.0197840  76.3659525  24.5169592
  75.3407526  75.8473730  25.2547145  74.3427420  75.8201170  24.1170788
  55.0339781   4.0874589   9.8821759  54.9163221   4.4421209   9.0009248
  55.9275841   3.7443937   9.8849565  57.1443892  60.8651352   2.0204110
  56.2110710  60.6574726   2.0653899  57.5454092  60.0841761   1.6389394
  53.7033081  45.5187798  15.3918159  53.7545538  44.7061539  14.8885763
  54.0903139  45.3002977  16.2395930 103.4105753   0.0460828   9.3426472
 102.6886104  -0.0615298   8.7234390 102.9847025   0.2658189  10.1712489
  44.7521782  46.4326334  13.3925545  45.0373554  45.8840656  14.1232944
  45.4990482  47.0049953  13.2170093  31.5265298  70.8764315  38.5762262
  30.5767584  70.9140873  38.4633279  31.7114592  69.9521828  38.7429380
  84.0803528  89.5688248  11.4000452  83.3256149  89.4981575  11.9845152
  84.6716309  88.8730049  11.6871881  92.0129871  79.9546862   7.7184057
  92.2526836  80.4330254   8.5121095  92.2708607  79.0502882   7.8967339
  19.2211748  32.2763750  68.0902974  19.6602513  31.6936895  68.7099068
  19.4634892  31.9364664  67.2289173  27.9463221  45.6741163  71.2181716
  27.6574684  45.8088514  70.3155963  27.4734999  46.3363001  71.7223434
  56.5386239  78.9970072  84.2497306  57.0822064  78.2523020  84.5069538
  57.0914808  79.7625311  84.4064261  63.0157566  74.7144747   1.7379867
  62.6492786  75.3136539   1.0876691  63.6434460  75.2465391   2.2270200
  53.1412102  49.5824549  79.1890614  53.5824372  48.7337992  79.2255078
  53.7431694  50.1843664  79.6267651  32.3921992  12.5824663  76.3811366
  31.6243149  12.5332996  75.8117752  32.4389817  11.7206833  76.7951147
   9.4151165  94.3071326  74.0230470   8.8650563  94.0486439  73.2835560
   9.8035862  93.4880789  74.3304090  44.2560078  25.9748003  50.4274504
  44.7053982  25.1525042  50.2322285  43.8383175  25.8240244  51.2754052
  81.4220142  60.5832529  11.1571419  81.4044666  59.6960306  10.7983029
  82.2566891  60.6368780  11.6226256  41.0995985   4.1471693  62.9858725
  41.5339733   4.9432394  63.2921784  40.3930880   4.4617054  62.4218361
  50.3341150  51.3220453   0.6219757  49.6556377  51.8207264   0.1667655
  50.5963278  51.8843889   1.3508403  61.2925243  93.5841942  15.1487374
  60.3814316  93.4292984  14.8994458  61.4500141  92.9758549  15.8707881
  94.1484322  40.8677122  70.8703570  94.4612636  40.7479307  69.9736850
  93.5235681  40.1548884  71.0032539  55.4941607  85.6317425   8.0023319
  55.1960993  85.0258446   8.6807704  54.9497080  85.4268169   7.2421938
  88.8949299 101.8902111  36.2226963  88.3077812 101.8737507  35.4669070
  89.7128773 101.5130043  35.8988118 100.0087929  62.0808363  33.4824991
 100.4234409  61.7928696  34.2957473 100.3147793  61.4573574  32.8238082
  78.4608221  43.0606699   9.0310359  78.1487370  42.4112844   8.4008467
  79.1563940  42.6124716   9.5122164  66.3017464  41.4768410  16.2331200
  65.4119682  41.8295240  16.2450349  66.8606567  42.2304392  16.4226997
  89.1464828   3.1392301   5.8734572  89.4582247   3.3171476   4.9861047
  89.8013042   3.5432161   6.4428729  27.6116587  20.9405109  70.8356349
  27.0448090  21.6527006  71.1317651  27.7152849  20.3810284  71.6053586
 107.5994562   3.5482133   2.2641796 106.9601320   3.0645956   2.7872625
 108.4417604   3.3528913   2.6747948  62.4493694  56.3055277  36.3608813
  62.0154190  55.5140877  36.0422277  62.9572010  56.6182089  35.6121707
  69.4497252  50.4940605   2.9115868  69.9784803  50.8658409   3.6175835
  68.9958429  49.7547483   3.3161092  66.3657475  48.4061337  23.1869388
  65.6082153  48.0432844  22.7279043  67.1152306  47.9368830  22.8204536
 106.1820889  82.3702145  17.9135406 105.6224442  82.1424961  17.1711266
 105.6490898  82.9643440  18.4418929  70.0487185  56.8573236   2.5528309
  70.8785915  56.4062929   2.7081260  69.8261023  56.6440105   1.6466457
  12.0153198   1.6980375  10.1117361  12.1679554   0.9430898   9.5434141
  11.7600689   1.3174642  10.9521210  13.9392140  93.4703263  83.0536245
  14.5789578  93.1756219  83.7017779  13.1079056  93.1022223  83.3530586
  35.8294369   9.7149536  85.0050120  35.2069641   9.0150568  84.8077585
  36.6765381   9.2729590  85.0623746  33.7290668 102.0210361  29.2256045
  32.9789424 101.4352894  29.3277836  34.4916010 101.4445782  29.2752624
  23.5315920  39.1423819  80.3206627  24.2067410  39.4832060  80.9073852
  24.0188576  38.7672541  79.5871215 101.2152163  80.1819118  74.1529195
 102.0610777  80.4277619  73.7783460 100.5814949  80.3786811  73.4630566
  56.5508343  24.1911242  84.0106861  56.6422917  25.0965235  83.7138336
  56.3471771  24.2641947  84.9431093  78.9582825  86.2350941   3.4201556
  79.4952440  85.8638096   4.1201955  79.5537329  86.3072205   2.6741850
  51.0402441  68.7084961   7.7799469  50.3918839  69.0233850   8.4097934
  50.5345964  68.5212231   6.9890714   9.8897316  92.2578248  76.2849359
  10.8465245  92.2813662  76.2999492   9.6244099  92.8579577  76.9818430
  11.2900091  15.6583998  70.3983264  10.6535507  15.7110092  71.1113350
  10.7625080  15.7159493  69.6016698  49.0765549   8.7858746  79.1153102
  49.4112564   8.4112856  79.9301009  48.2105805   8.3922312  79.0086954
  62.4508572  51.6688633   3.2425463  63.3133745  51.3834381   3.5439184
  62.6170683  52.4949789   2.7885222  51.3649368  89.7536945  38.0997109
  50.7506609  89.0255642  38.0062747  50.8389282  90.5344963  37.9268217
  67.0756603  16.1574671  66.6424816  67.4299217  16.9128248  67.1117060
  66.4414860  16.5313933  66.0307400  52.7071476  61.6041136  19.0794718
  52.5389290  61.7159462  18.1438291  52.0266914  60.9990025  19.3745160
  87.4795818  98.4844685   2.3530880  87.4307442  98.7762833   3.2634106
  86.5684986  98.4582996   2.0607479  28.8014961  26.5324089  86.2956862
  28.1903292  26.5106747  85.5593203  28.2414557  26.5814135  87.0704018
  28.2844689  86.4076170  88.5262427  27.5470688  86.9286951  88.2085026
  28.0737832  85.5108651  88.2660899 105.8750597  94.2376622  70.4057007
 106.8170611  94.0870484  70.3270392 105.6601492  94.8031434  69.6638958
  74.2616367  53.5557699  18.3078015  74.2622042  53.9118195  17.4192858
  74.1032076  54.3143225  18.8696980  57.4559641  84.8255157  36.7503953
  57.8671265  84.6874332  35.8971000  57.7974701  85.6690598  37.0471191
   3.9259920  18.9695657  32.3756146   4.6205006  19.1077436  33.0196571
   3.8849173  18.0193437  32.2678113  57.4344110  91.1477661  13.3074903
  56.9540310  90.3302574  13.1765199  57.2320843  91.6713142  12.5321245
  77.2360493  44.8135111  86.8254174  76.3931347  45.2261946  87.0136570
  77.0362355  44.1519663  86.1630909  64.8999310  57.3160791  21.1322069
  65.7820225  57.5273132  21.4380360  64.3318605  57.9310179  21.5962934
  21.7464472  31.0161707  60.6285612  21.8533732  30.3881380  59.9141567
  20.8235241  30.9464190  60.8726518  63.9344168  85.0785637  27.5585771
  64.8418427  85.2094841  27.2834992  63.9898157  84.9252224  28.5017896
  80.1013159   4.0243829  11.8998480  80.8953356   4.5453084  11.7798579
  79.3992685   4.6710123  11.9721270   4.2890965  78.4173393  32.3645306
   5.2225052  78.4045792  32.1528363   4.2286335  78.9639473  33.1479812
  37.9915547  50.0688887   6.8229002  37.9885077  49.8606920   5.8886212
  37.2851515  49.5368290   7.1891558  50.6357002  41.5986919  13.0881584
  50.9823990  40.7065916  13.1015837  50.9502411  41.9654894  12.2618663
  72.3604250  46.8227100   2.2236328  72.1479845  46.9657278   3.1459388
  71.5495920  47.0250988   1.7569147  99.4928805  84.0340861  47.7954762
  98.7320677  84.3926891  48.2524245  99.4797102  83.1001409  48.0047648
  38.6805966  91.8605193  49.8163168  37.9907467  92.1441754  49.2164152
  38.3453705  91.0506924  50.2010624  32.5728965  51.6038465   9.5059192
  33.4928679  51.3508797   9.4291347  32.3285770  51.3513374  10.3963017
  11.0351994  83.6591419  58.8512294  10.3809407  83.7216171  59.5471256
  11.4695122  84.5121320  58.8535373  38.5269880  73.2904530  22.0751667
  38.8974094  73.9228439  22.6908827  39.2301965  72.6575184  21.9298387
  45.5940987   5.0648424  63.1582491  45.8263947   4.1591427  63.3631127
  45.4208542   5.0606033  62.2168653   3.0450728 101.8828305  72.7163594
   3.8795331 101.5630683  72.3733358   3.2892420 102.4660119  73.4350519
  98.0729452  94.0135487  70.7801657  99.0293900  94.0016230  70.7440226
  97.8409783  94.9368151  70.6801216  83.5811520  38.5091162   3.2862577
  84.5017815  38.6651254   3.4967929  83.1729031  39.3730760   3.3423138
  11.7822624  13.5703442  83.1386106  11.2159945  13.7973187  82.4010073
  12.4532820  13.0026266  82.7595841  48.5980297   9.3320868  63.7156074
  48.6864830  10.2764914  63.8440864  47.6800610   9.2081186  63.4743731
  58.1574535  41.6343164   6.1085254  58.3057642  42.5588655   5.9099144
  57.9643917  41.2350893   5.2602470  69.0555859  10.7149303   3.7110227
  69.7973728  11.2807620   3.4969664  68.7686062  10.3666413   2.8668863
  93.3900070  39.4919515  20.2954412  92.5270748  39.6578860  19.9159074
  93.8605595  40.3189659  20.1912069  34.2013741  44.6541166   1.1559763
  33.5834002  44.2267323   0.5629473  33.7720752  45.4744911   1.3987008
  41.4254665  23.3052635   8.4424579  41.6095066  22.3797345   8.6029512
  40.4700041  23.3596802   8.4234369  56.1154917  90.7240566  81.2933664
  56.6168634  91.5310486  81.4100860  55.2052263  90.9853729  81.4325188
  44.2130829  22.6827213  80.2038054  44.9109818  23.1313488  79.7264116
  44.6604515  21.9844839  80.6818848  97.9270568   1.4618942  55.8847158
  97.8078260   1.5090010  56.8332927  98.8719311   1.5472004  55.7575576
  46.8263578  42.9816771   5.7071549  47.1074915  42.9492092   4.7927460
  47.4250460  43.6041737   6.1198366  72.5532007  16.4512670  30.9344220
  72.1598721  15.5790603  30.9064674  72.3333073  16.7854095  31.8040347
  43.9971828  59.0121937   5.7340050  43.4101152  59.7632885   5.8202767
  44.0869522  58.6747551   6.6252446 101.6479397  19.2647743   1.7930126
 101.1563778  18.5400391   2.1794820 102.1276093  18.8680160   1.0658760
  96.5404240  94.3748816  56.7513888  96.2060085  94.4315728  55.8562987
  96.1167828  95.0993689  57.2116845  85.5894629  90.6722268  51.3613002
  85.8739821  89.8001226  51.0879605  84.6348683  90.6439479  51.2966244
   2.2118714  78.6741575  77.9994981   3.1595423  78.5405739  78.0169921
   2.1042588  79.5966419  77.7678244  66.6841793  89.5764732  21.3249087
  67.5087070  89.1827393  21.0396719  66.9257116  90.4575062  21.6106939
  64.7834539  35.2452683   4.3172756  65.1043749  34.4761658   3.8464025
  63.8426971  35.2586436   4.1411448   1.3828614  83.9604195  78.3030586
   1.3463833  84.6569928  77.6475530   1.9271233  84.3193301  79.0039127
  31.2700821   2.2084782  73.3363180  31.0163952   3.0451176  72.9465608
  30.4530598   1.8465397  73.6793940  82.1210957  89.8019886  14.9229550
  82.8653526  89.3764973  15.3487194  81.8967152  90.5292225  15.5034792
  43.3812428  51.8956089   0.4937541  42.4983835  52.2489691   0.3845465
  43.3520222  51.4325571   1.3309889  95.9572139  20.0684378  75.9536581
  95.7784810  19.1597149  76.1955504  96.7016282  20.3198359  76.5003531
  46.6079689   3.6752340  42.7979224  45.7317139   3.3312151  42.6245396
  47.1116139   2.9138014  43.0856459  57.9873562  30.6740570  29.7077823
  57.4171591  31.4218497  29.8864150  57.5327015  30.1845455  29.0222907
 100.0004578  15.4227698   5.0564075 100.7281399  14.8015976   5.0856858
  99.7320366  15.5204558   5.9699917 101.4984289  97.5408276  77.9395096
 101.6044489  98.4777316  78.1044237 100.8429257  97.4927958  77.2436349
  63.4310961  27.0564127   2.6701143  62.5145912  27.2167444   2.8949314
  63.9256001  27.6233268   3.2619801  35.7783723  57.4899769  15.7987797
  35.0166154  57.3287535  16.3555229  36.3184762  58.0990219  16.3023543
  23.7628007  52.8903198  15.8493042  24.3780613  53.5621262  16.1431813
  24.1972733  52.0620728  16.0529542  46.3749123  55.1938009  11.5495014
  45.7603216  55.8245468  11.1744452  46.6777229  55.6063700  12.3584044
 104.4227425  92.3729905  71.7363660 104.7724501  93.1254824  71.2591951
 104.1760365  91.7496928  71.0530894  26.5165306   6.7993471  45.9206240
  26.6656901   6.5863869  44.9994128  26.1022736   6.0163996  46.2834160
   1.7638304  79.5236310  73.7201993   1.8563702  80.4705771  73.8248913
   2.1144965  79.3436965  72.8479104  39.2198015   7.9184219  59.6257655
  39.4374443   8.7337706  60.0775115  38.3382059   7.7036879  59.9305670
  17.7365258  73.8694008  81.0294162  16.8022778  73.9987668  81.1927401
  18.0823853  73.5451468  81.8609624 101.7077627  27.5410435  62.6600902
 101.5232100  28.4435722  62.9201166 102.5991311  27.5694630  62.3124020
  14.2444088  70.2259787  55.3434102  14.1542771  69.9944635  54.4190137
  15.1446202  69.9864670  55.5636279  49.1988850  14.8043644  31.5558338
  49.5288372  14.3709135  30.7687616  48.2783413  14.9824226  31.3631487
  99.0814606  96.9067439  82.2460209  98.1543699  97.0940169  82.3932098
  99.1526381  96.7783173  81.3001488 103.7553469  86.2440618  87.4314077
 104.6477429  86.5314659  87.6244359 103.7574402  85.3074034  87.6286404
   8.1886889  11.2052414  87.1070771   8.1942106  11.8989441  86.4475496
   7.4612166  11.4314959  87.6865812  52.1224022  83.7649536   1.2677185
  52.7687931  84.2033577   0.7143497  51.3082695  84.2429161   1.1096792
  99.5843329  10.5312893  49.7322695 100.3309383   9.9476931  49.5972340
  99.9754705  11.3617823  50.0034230  33.8626552  73.9514446   1.6509128
  33.9291763  73.2580805   0.9943645  33.1443024  73.6745691   2.2197209
  94.0737915  91.6988850  18.0190849  94.7919559  91.7868519  17.3924077
  94.2010021  92.4227619  18.6323178 106.7718331  83.6390504  69.7050171
 106.0985581  83.9501485  69.0999167 107.0910708  82.8270992  69.3112473
  28.0232025   2.0257208  56.7442767  28.9749600   2.1189663  56.7030947
  27.8334595   1.9152376  57.6759546  64.5963621  27.0275044  -0.0361126
  64.3100452  26.9589448   0.8746868  64.0756321  26.3724375  -0.5008296
  83.1990925  70.8869680  83.2289253  82.8764979  70.5009040  84.0432452
  82.4953571  71.4704999  82.9452460  41.4714813  33.2338905  13.6260760
  41.9012785  32.4097681  13.8548219  41.4564896  33.2386136  12.6690054
  87.4247646   7.4015647  13.5148144  87.5602055   6.4641821  13.6533916
  87.5543308   7.7925915  14.3788421  45.0452805  29.0062571   5.5103606
  44.5776701  29.5646667   6.1314476  45.8254862  29.5090938   5.2765518
  57.7089192   9.0368578  88.4449633  56.8816925   8.5763332  88.5858149
  57.4697663   9.8061678  87.9280473  50.9324026  56.5490770  17.3735154
  51.5111542  55.8019638  17.5255179  51.0936642  57.1318293  18.1155562
   4.4501021  67.1445497  84.8369931   4.6262696  66.4469083  84.2057307
   3.6806347  66.8422910  85.3194781  64.9974133   9.5293400  36.9352572
  65.5702282   9.1254637  37.5871699  64.7781731   8.8168499  36.3348238
  75.7168213  78.0011781  86.4891194  75.5053893  77.5864657  87.3255052
  75.6526724  78.9400204  86.6643094   8.1095841  92.8525075  71.5810673
   8.3585408  92.0480498  72.0361488   8.6286881  92.8432282  70.7769065
  10.5033257  83.0216106  88.0134271  10.0639298  83.7768015  87.6224618
  10.1439621  82.9673847  88.8989504  41.7714716   8.5984537  51.9876211
  41.8006064   8.4786388  52.9368441  41.2890555   9.4159147  51.8640869
   4.5572951  76.3737424  46.8367045   4.1887715  77.1402367  46.3974945
   4.0786078  76.3184055  47.6637642  89.9300972  49.1866481  59.7371118
  90.3991524  48.3590224  59.8431914  90.2242867  49.5218306  58.8901536
  56.3456131  31.7815039  59.8358505  56.4418198  32.1454165  58.9557688
  56.6136242  32.4914953  60.4192226  29.5941880  79.8722204  73.4398310
  28.7103703  79.6693429  73.7463217  29.9630787  79.0238556  73.1940024
  70.4931688  78.2814646  21.1788368  69.7252321  77.7219725  21.0627699
  71.2307262  77.7352858  20.9069371   5.4232790 100.6988438  72.0045953
   5.0540545 100.2036627  71.2733595   6.0581448 100.1024397  72.4014323
  13.4023358  24.0374825  87.6349074  14.1105057  24.5406506  87.2329800
  13.8039948  23.1992933  87.8636950  72.7869415  37.9953313  10.1842594
  72.0444775  38.5683393   9.9928343  73.5532141  38.4925580   9.8982197
  21.3952591  77.9257640  84.9106561  21.0662796  78.8231357  84.8584129
  22.3431447  78.0230793  85.0015991  58.9405966  28.8316393  25.8742714
  59.0678978  28.4412837  26.7389393  58.7355137  29.7492576  26.0535836
  82.1706009  45.5498075  23.9022160  81.7525005  45.9892464  23.1617308
  81.9486046  44.6256495  23.7887311  72.9829454  73.2195902  13.8177109
  72.4236012  73.7162018  13.2204342  73.7021589  72.9075289  13.2685459
  45.7381392  40.1706028   8.4569317  46.1438036  40.4905462   7.6511365
  46.3434982  40.4330349   9.1504031  99.8735619  24.1684937  12.1453631
 100.2488518  23.6990547  11.4003634 100.5937576  24.7037649  12.4785936
  65.6077480  45.4120541  18.1048465  65.9578323  46.2656641  18.3598363
  65.1284742  45.5822659  17.2939503  57.4285793  49.1314268  17.7131259
  57.2272587  49.8929596  18.2569718  57.7293396  48.4670925  18.3331549
  15.9378554  14.0387175  70.0981943  16.2653185  13.1528256  69.9426632
  15.0083519  13.9196608  70.2933543  20.6634880 103.0181060  13.7771118
  19.8568465 103.0218641  14.2924249  20.5921389 102.2385882  13.2262099
  85.5901527  77.6421833   5.4155767  84.7795010  77.5003672   4.9267370
  85.7156372  78.5910130   5.4012072  56.6698742  43.3350277  39.5320058
  56.1690044  44.1117287  39.2828155  57.5844193  43.6125422  39.4787884
   1.1920645  75.3637251  66.3856952   1.3611987  74.9823602  65.5241911
   1.9589331  75.9090956  66.5609448  71.9264698  38.4644270  21.1436033
  72.8675604  38.6390209  21.1534643  71.7617226  37.9931974  21.9603229
  69.5129013  67.4868870  25.8066893  70.2706528  67.5173855  25.2226400
  69.5628214  66.6244650  26.2189603  11.2197864  72.3007727  73.5455275
  12.0748043  71.8715763  73.5144329  10.6041682  71.5943670  73.7410831
  41.7131852   2.2588933  28.2948780  42.2861539   1.6341222  27.8503537
  41.7933171   3.0636514  27.7828431  13.4346664  89.0493965  86.2198639
  13.1480801  89.3078423  87.0958233  12.9790342  88.2244015  86.0524845
 104.4362171  80.5553436  67.7069426 104.2716668  80.1826763  66.8407583
 103.6268188  81.0165310  67.9269600 103.6719425  91.1862659  21.0389018
 104.5723275  91.4822388  20.9049630 103.6624641  90.8452225  21.9332337
 105.3826670  52.5670958  57.7360344 106.0347084  53.0917883  57.2715282
 104.8014710  52.2431993  57.0478964  16.3588774  64.8071146  20.4451227
  15.8522296  65.0010824  21.2337399  16.8993998  65.5854893  20.3102207
   1.9127437  96.7639732  67.6431036   2.5417605  97.2484207  68.1777763
   1.6352434  97.3896027  66.9739151   2.6530272  75.3821278  31.6706371
   3.2041496  76.1625719  31.7289901   3.0191019  74.8845291  30.9394622
  29.9724572   6.3050664  50.2150393  29.8501621   7.0081151  50.8529997
  29.6194278   6.6584791  49.3985224  91.6970814  67.8911400  55.2494526
  91.7447985  67.6687002  54.3196821  91.0941638  68.6336231  55.2874565
  13.3935428  90.4844570  39.8796725  13.7714708  90.7918358  40.7036400
  13.9073181  90.9236908  39.2019248  99.4254179  71.1699152  35.1268649
  99.6762587  70.8238554  34.2703891 100.0440903  71.8823433  35.2878809
   1.6813825  92.5022507  33.5467672   1.8029736  91.5745449  33.3447599
   1.1790346  92.8445435  32.8073621  12.2166276  75.5863094  58.6597967
  11.4748728  75.8329916  58.1073666  12.8143513  75.1292562  58.0681372
 103.5297532  40.8078194  13.1702459 103.2590885  41.6963959  13.4013283
 103.1050999  40.2507973  13.8226473  33.2220149  61.9244432  17.8551817
  33.2186842  62.2810078  18.7434852  34.1493058  61.8150187  17.6444924
  36.4598312  15.3722641  77.8482728  36.4795318  15.1729271  76.9122653
  37.1553888  16.0184500  77.9702334   7.2019941  85.1448536  53.7853575
   7.7184451  85.3559780  53.0075788   7.8450286  85.0903130  54.4922972
 107.5517504  65.4441738  40.2706718 107.5300966  65.6562042  41.2038422
 107.9296399  64.5655155  40.2334070   3.7093931  56.2014771  28.7384892
   4.2759100  56.8036604  29.2208433   2.9749292  56.0378313  29.3301082
  29.2589902   3.4106267  27.9438376  28.8582604   2.6555170  27.5131798
  29.8875194   3.7454523  27.3042512  52.5787162  14.0576089  28.6027884
  53.1316708  13.4513582  29.0956616  52.0825492  13.4977449  28.0056262
  54.2804514   2.5853742  59.8155022  53.8011085   3.2884706  60.2538013
  55.1121877   2.5328268  60.2863359  85.6386555  66.5292168  45.3753614
  85.1037015  65.7516336  45.2159262  85.2428807  66.9385672  46.1447906
  39.6915789   5.1376737  49.1021681  39.2741905   5.7960237  48.5466528
  39.8130347   5.5767740  49.9439955  18.4276283  58.8248682  55.1857376
  18.5676050  57.9471207  55.5409861  17.7325666  58.7127495  54.5372391
  69.6569013  73.9978811  83.0204998  69.1746938  74.4701788  82.3417942
  69.7206634  73.1019804  82.6895498   1.0278441  33.4223843  51.3721895
   0.0748064  33.3930373  51.4563942   1.3493067  32.8967357  52.1047115
  42.3465157  80.0393963  65.1651955  42.1490335  80.2177811  64.2457342
  43.1237125  79.4812536  65.1393270 101.4798100  59.2694235  41.4892197
 102.0435829  58.5488749  41.2077904 102.0844878  59.9871349  41.6775894
   6.4461225 100.6934834  16.5261030   7.3473746 100.9296799  16.7456090
   5.9727228 101.5254116  16.5301371 101.2137664  87.8292847  46.9282532
 100.9398014  88.0768394  47.8113651 101.9054205  87.1818161  47.0647144
 103.7525357  92.6300526  38.3963633 103.9506550  93.4969425  38.7505984
 104.6088875  92.2214031  38.2702637  92.2979380  79.1269159  19.6289742
  92.3615934  78.1757784  19.5422459  93.2011307  79.4351435  19.5550132
  48.7076521  81.6791821  28.1133151  48.2812929  81.9830322  28.9146399
  49.6149302  81.9720078  28.1989145  37.1696090   6.7990411  51.1986780
  36.9813101   7.1215642  50.3173399  36.3492269   6.9174493  51.6774082
  54.8383700   0.1611055  11.7543435  55.0147175   1.0302652  12.1144736
  53.8905226   0.1445211  11.6218948  90.5189348  69.0060711  28.8326502
  90.0880934  69.8576546  28.7591028  89.8037804  68.3713102  28.7894869
  98.9974083  91.7431068  24.9066019  99.9532349  91.6935921  24.9198747
  98.8064195  92.5653934  24.4553733  28.5344564  16.7189420  52.1350956
  28.2310330  17.2703660  51.4139223  27.8658949  16.0384668  52.2139788
  82.9992570  73.2191324  52.9819822  82.1931828  73.6882544  53.1973934
  82.7027644  72.4257278  52.5360727   6.5574414  90.2304840  42.6974916
   7.4798036  90.4850388  42.6713228   6.5280169  89.3895435  42.2412252
  70.3293170  96.7409134  66.1256647  69.8892177  96.1127186  65.5530167
  69.6354593  97.0723248  66.6957188 104.6785138  79.0590477  15.5445576
 104.9352090  78.1943655  15.8649659 103.8607622  78.9060116  15.0711727
   6.2307811 102.4221420  38.8111901   6.9543737 101.9314671  38.4214664
   6.0723501 101.9893932  39.6501493  12.1484172  91.3046837  32.7100682
  11.3900924  90.8023548  32.4120116  11.8205571  91.8178082  33.4486127
  23.0725598  69.2804670  26.1632872  24.0029311  69.0633392  26.2224579
  22.7291274  68.6835814  25.4984474  13.1679344  60.8337927  47.5225735
  14.0606773  60.6229639  47.2490883  12.6410401  60.7152796  46.7322779
  75.3368939  77.5532150  63.1878853  74.7795643  76.9236851  62.7303934
  74.7722233  78.3125639  63.3320093  36.7535639  85.7521534  24.5116186
  37.0573211  86.5595722  24.9263930  35.9762764  85.5036259  25.0119138
  14.0227556  79.4064760  48.2756233  14.1606760  78.7903166  48.9950371
  14.3879724  78.9650202  47.5088310  17.2578084  59.7822094  67.8144550
  17.7654600  59.2973566  68.4651756  17.9144406  60.2496958  67.2981977
  15.1270293   7.4357332  38.3279920  15.4166149   8.3191217  38.5560131
  15.7785271   6.8594850  38.7276387  98.0325605  82.3853779  20.3987956
  98.6398734  82.0427513  21.0545516  97.8924955  83.2969093  20.6551600
  34.6308467  26.6115201  23.9217806  33.7910705  26.3387502  23.5521817
  34.8273130  25.9492887  24.5844173  40.7031584  74.5218801  33.9358687
  40.2047920  74.6863413  33.1353593  40.1345253  73.9582491  34.4604731
  18.1144261  70.1741791  32.4013305  18.2471275  69.5210791  33.0884147
  17.2393906  69.9888229  32.0604682  71.8041395   3.7253774  66.5727997
  72.2179435   3.2182325  67.2712231  72.5192689   3.9323915  65.9711599
  50.8480262   9.6858991  42.6001930  50.5240678   8.8798822  43.0022049
  50.0587927  10.1413835  42.3071384  36.1779552  12.1860517  45.5957460
  37.0381715  12.3882497  45.2278090  35.5579900  12.4594034  44.9196148
  46.7187821  21.4852346  78.8706827  46.4810978  20.5659688  78.7495136
  46.1698859  21.9589246  78.2457304  15.7886410  71.4525700  23.6991978
  15.9270513  72.3485088  23.3920050  16.0835540  71.4633322  24.6097708
  53.6496042   2.5075830  23.4290028  54.1873299   1.7912305  23.7665391
  53.7385081   3.2019628  24.0818167  20.3567456  11.0207475  26.4476705
  20.4890047  11.4956773  27.2681475  21.1974691  11.0863126  25.9947729
  11.3382685  94.4195366  25.8975148  10.7261968  93.7745953  26.2519979
  12.1651912  93.9446163  25.8145356  15.2587223  73.3761930  48.5255575
  15.5573308  74.1843128  48.1084108  14.9629343  72.8270149  47.7995110
  81.4476527  67.1965790  54.2034245  80.6376852  66.6948271  54.2952251
  82.0628227  66.7695189  54.7995949  90.4917849  83.3961296  46.9042492
  91.1216010  82.9139996  46.3684177  89.9468888  82.7173138  47.3024130
  57.3054838  92.5297165  62.4154520  58.1143856  92.5477409  61.9040012
  57.4519396  93.1634903  63.1176710  97.8604389  52.0012856  56.4247417
  97.8400315  52.7751541  56.9877148  98.7663783  51.9507074  56.1198711
   8.7843663  94.2994881  69.3173599   7.8510106  94.3174076  69.5289183
   8.8238525  94.5275688  68.3885717  52.1955360  95.4295158  31.4195704
  52.7388395  95.1165199  32.1428204  51.5151800  94.7628498  31.3251567
  40.5377007  86.3115025  40.6552315  41.0587978  86.9934559  41.0790539
  40.0944805  85.8654690  41.3769245  45.0219833  10.3557695  11.0579753
  44.4573091   9.8520864  10.4717350  45.9107356  10.1595129  10.7616103
  22.6877880  98.9395905  83.8986588  22.2592878  99.7429371  83.6032677
  23.2184291  99.2124557  84.6471214  57.8863681  93.3695793  33.0632520
  57.4020208  92.9960346  33.7995267  57.6485838  94.2967701  33.0658555
  82.0094241  61.8125248   6.9438910  82.8400911  62.1833420   7.2417432
  81.8132247  62.2840405   6.1343175   9.7302914  58.9387512  38.7794352
   9.5692998  58.0035400  38.9047360  10.5186248  58.9756107  38.2377696
  20.6056666  79.0816212  52.1844482  20.9235168  78.3785009  51.6180325
  19.6877503  78.8630819  52.3453903  15.0168777  91.5229893  33.7058091
  14.2918491  91.0235214  33.3301830  14.6386647  91.9550705  34.4716406
  80.8787216  91.3551712  54.8323727  80.4013027  90.6078625  55.1926947
  80.2913226  91.7173862  54.1690588  87.7658333  65.4849339  60.5521822
  87.6087655  65.2590132  59.6353817  86.8963278  65.6751156  60.9043503
  91.5494157  73.1211805  54.1326571  91.9424428  72.5032616  53.5162687
  91.9348825  72.8934336  54.9786949  59.7131275  14.1655363  37.5106168
  60.3192781  13.4256948  37.4725842  59.6547149  14.3796934  38.4417224
  44.1571705   5.6983484  80.8546734  43.8263254   4.9606050  81.3670349
  43.6969184   6.4601434  81.2069035   8.5616088  36.6710758  34.5971513
   8.2676029  37.4496746  35.0699902   8.3897352  35.9464979  35.1985478
  41.8441296 100.7675743  63.8025761  42.1763420 100.3972912  64.6203518
  40.8946323 100.7953453  63.9205265  36.1062431  59.3342781  55.8972979
  37.0008016  59.6600246  55.9967232  35.8735323  59.5454931  54.9931622
 109.3566690  50.7666111  42.6109934 109.3060000  50.2412987  41.8124247
 108.4440042  50.9368134  42.8440285   6.2716103  90.0271034  31.9343185
   5.9553152  90.0135422  31.0309863   6.9845390  89.3885326  31.9480729
  27.7841115  89.7250080  79.8494434  27.6872110  88.7855721  80.0052929
  28.6946392  89.9129105  80.0771809  12.2431469  74.7318888  36.3552451
  13.0808914  74.4808722  35.9661365  12.3844254  74.6541452  37.2987628
   7.7807343  87.0655060  57.9655600   7.2870731  87.8682613  58.1332111
   7.4344242  86.7405128  57.1344852  16.2929726  78.8985729  51.8411779
  16.9685841  79.5572758  51.6802692  16.7679191  78.1531286  52.2085619
   2.7314088  83.5863590  71.2255859   3.5813916  83.1503105  71.1654329
   2.3537336  83.4966278  70.3506327  84.1799773  12.6122582  14.3267167
  84.7288121  13.2637548  14.7632527  84.0883578  11.9077277  14.9681795
  22.4114490  29.3972349  35.4835415  21.4586616  29.4523692  35.4101515
  22.5702548  29.2166376  36.4100385  88.7522830  58.3505917  53.8864803
  88.5791386  57.8933048  53.0635929  89.4241298  58.9955282  53.6653233
 100.2465070  50.0609922  23.0445313 100.4892732  50.9349394  23.3503270
 101.0264630  49.7405005  22.5915575  59.7829344 100.6449538  32.3273420
  60.0797799 101.4426686  31.8894315  59.8063519 100.8606294  33.2596350
   8.6916268  45.0746679  37.4764705   8.5821891  45.4118490  36.5873337
   9.5703554  44.6951485  37.4822378  45.9087912  99.2710456  76.6528551
  45.3962514  99.2433747  77.4607961  46.8069140  99.4282349  76.9442289
  99.4302995  77.7162457  43.1612921  98.8226165  78.0163765  42.4853659
 100.1380808  78.3605719  43.1502485 104.3823917  60.2394152  51.8649054
 104.4319324  60.9530783  51.2289286 104.0025194  60.6409454  52.6463795
   3.6348897  84.7958374  10.2828515   3.4057435  84.6500492  11.2007129
   3.0151099  84.2557240   9.7925597  89.1942466  73.2453394  33.4916735
  88.4465374  73.7599516  33.7955403  89.0864433  73.2042885  32.5414491
  30.4554987  69.2758894  35.7754183  31.3998270  69.2246342  35.9232283
  30.1133299  68.4531736  36.1251140  99.7307959  30.1366827  85.5647342
  99.6284928  29.6738836  84.7331201  98.8385549  30.2289412  85.8988349
  21.9846201  92.9718590  71.5657616  22.5094748  93.4091473  72.2362375
  21.2625289  93.5764790  71.3947439  14.2981565  90.0782776  37.0295238
  14.9098873  89.5236588  36.5453506  13.6446798  89.4697857  37.3744082
  98.5646130  26.1354899  25.5577826  98.0261685  25.3442597  25.5414152
  99.4549150  25.8226967  25.3973055  89.4259514  67.2458220  14.5905173
  88.7542428  67.5744581  13.9929903  89.3382705  67.7908230  15.3725123
 107.7318461  77.9628468  22.2264194 108.5754000  78.3800364  22.4013567
 107.1149431  78.6911297  22.1538210  26.8152261  59.5740080  37.2883558
  26.0658050  60.1447248  37.4583077  26.4547777  58.8524914  36.7728782
 106.0412089  45.9031296  28.9070034 106.0205514  45.3848410  28.1025267
 105.5333276  46.6875410  28.6996651  72.3577655  52.8966093  23.4579706
  71.7355431  52.1693707  23.4720516  73.2113827  52.4792624  23.3422613
  96.5987326  56.0657930  48.5867834  96.8673505  55.5015469  47.8617239
  95.9991277  56.6972923  48.1894016   1.1225307  81.5054893  23.4928107
   1.4819691  81.3988781  22.6120901   0.7464866  80.6507397  23.7031198
  20.6692648  90.3464222  59.1190338  20.1869583  90.2021790  58.3049011
  20.2478170  91.1090946  59.5151854  54.1215693   0.5306447  57.8143072
  54.7846900  -0.1583849  57.8558874  54.4165217   1.1854185  58.4471655
  10.4267406  73.7334013  45.6526804  11.2023854  74.1796207  45.9925270
  10.6215572  72.8019905  45.7563877  43.1835461  90.5273628  36.7528462
  42.9648590  91.4242077  37.0059872  42.7986765  89.9838257  37.4403620
  90.6152369  51.2424898  56.2086105  90.1378597  51.9304466  55.7448673
  90.9380342  50.6662321  55.5158186  24.7623849  75.2664948  62.1511841
  25.4025030  74.9592113  61.5092659  23.9252377  74.9247599  61.8371201
  82.2056402  88.9103317  36.2052608  81.9132246  89.6177387  36.7799783
  82.8739227  89.3129921  35.6507421 102.2581614  67.2147560  24.9170160
 101.4877493  67.3518658  24.3657470 102.1303536  67.8062868  25.6586289
   4.9445048  62.8987026  39.2497134   4.0455231  62.5700283  39.2558718
   5.1076871  63.1327868  38.3360362 101.8852634  84.7889614  23.7781143
 102.7331455  85.1873875  23.9745378 101.4600111  84.6981239  24.6308398
   4.1923884  41.5415525  44.5609713   4.4450417  42.4617386  44.6361876
   4.1705281  41.2246084  45.4639101   2.6800030  93.5173416  38.7742090
   2.9300207  93.1301212  39.6131277   1.7784277  93.2271671  38.6356807
   9.7001612  40.5465651   3.0848739   9.0264457  39.8668313   3.1022528
   9.3750215  41.1900091   2.4551934  84.0822447  72.1909857  32.6447821
  84.0634121  71.8206406  33.5272336  83.5546721  71.5882349  32.1207643
  36.1709905  73.3759642  14.2639828  35.6151152  72.5980759  14.3101275
  36.7339754  73.2233572  13.5050416  13.5325336  25.5164433  41.7176819
  13.6059856  26.4704609  41.6914654  13.3280814  25.3169799  42.6312685
  83.5243190  64.5134830  44.3411160  83.2533301  63.6958790  44.7586346
  84.0377010  64.2362309  43.5822964  35.0869327  10.0030244  39.5030284
  35.4600068   9.8585809  40.3726196  35.8416746   9.9955953  38.9143515
  83.2417848  42.6073572  82.6929490  82.8175499  43.4316847  82.4547361
  82.8799155  41.9662211  82.0812075  14.9028003  70.5674839  67.3479509
  15.8183372  70.3911924  67.5646210  14.5627820  69.7265196  67.0423412
  44.6360158   0.7474245  30.9460711  44.1857170  -0.0958144  30.8970189
  45.1962971   0.6751646  31.7187905  32.1954060  21.8578053  32.2764421
  32.7210474  21.2717175  32.8208995  31.5909266  21.2772775  31.8140316
  91.3774004  46.4953253  75.2972739  91.2066963  47.4049971  75.0531618
  91.9704189  46.1725065  74.6187823  53.7419497   4.6693433  25.0120401
  53.3661233   5.5454553  24.9259448  54.4196914   4.7641576  25.6813002
  20.2633119  55.3687334  31.5240216  19.8772967  56.1629677  31.8933630
  20.3058791  55.5383921  30.5829406  20.0114202  57.2650433  35.4691958
  19.6017110  56.7182827  36.1395836  20.7510591  57.6773310  35.9155011
  11.0866833  68.6237574   4.7859263  11.1355639  69.4890213   4.3795240
  11.1295581  68.0114126   4.0514708   5.4971981  82.3686600  35.5042219
   4.7688115  82.5582409  36.0956120   5.1759094  81.6586304  34.9484611
   5.7062536  72.5287437   5.8603317   5.7089257  72.1808767   6.7520791
   6.1805707  71.8749094   5.3467602  18.8233733  80.5300808  49.4680309
  18.3667529  80.9115887  50.2178192  19.4939530  81.1748505  49.2425776
  56.7641782  11.5970148   3.6373717  57.2520684  10.9957899   3.0745804
  56.9942878  11.3315690   4.5277789  15.2294719  38.9472365  11.0969079
  15.4391503  39.7623992  11.5527344  15.7415640  38.2793164  11.5528440
 106.5396036  54.0904236  37.7727079 106.2051083  53.5889721  37.0291400
 106.1220424  54.9478292  37.6906538  22.6379132  62.3290014  44.8452520
  22.9209304  61.8881369  44.0441465  23.2538033  62.0293522  45.5139208
 101.3007463  84.4990635  21.1806321 101.3015510  84.4081688  22.1335077
 101.1449803  85.4312706  21.0290885 103.3899571  52.2972965  37.0867062
 103.6490656  52.7886868  37.8662133 104.0111698  52.5726414  36.4125299
   6.9197708  81.0671043  30.4778123   6.5695822  80.3856468  31.0515904
   7.8671986  80.9318733  30.4958797   9.1385189  87.1361669  73.2473247
   9.6399299  86.6584190  73.9080660   8.9460293  87.9798492  73.6564438
  92.3284341  46.6091776  48.9988756  92.4736942  45.8614922  48.4191370
  93.2064844  46.9409609  49.1864395  12.8642750  86.2090397  55.4696226
  12.7051282  85.3211117  55.1494837  13.1145883  86.7037106  54.6893167
   6.0992211  42.6223469  29.2847705   5.3253222  42.7919865  28.7476134
   6.2182850  43.4244728  29.7933483 103.6599941  94.5406628  73.2672167
 104.5216216  94.9120903  73.4566212 103.8454677  93.6616707  72.9367590
  32.0506883  53.0003405  43.4672165  31.6506028  52.1459198  43.6288548
  32.7259254  53.0799389  44.1409731  38.1336409   7.2106565  55.1946783
  38.0558679   8.1420053  54.9878693  37.4434386   7.0497335  55.8380747
  40.5494165  67.2458506  44.5933485  40.3788710  67.7250576  43.7824821
  40.4378414  66.3253927  44.3555784 102.3557026  73.8853168  31.2798524
 102.2560645  73.1890774  31.9291258 103.0637271  74.4315958  31.6211939
   0.6073519  64.1441727  18.8144648   1.3450314  64.1420937  18.2045007
   1.0071822  64.0136957  19.6743155 103.3081503  19.4423759  34.8175502
 103.4297849  20.1668239  35.4312372 103.9613248  18.7938058  35.0801373
 107.3418259  87.1108627  20.9444594 107.5569680  86.1997604  21.1440420
 107.6147516  87.2276020  20.0344491  24.0710640  82.8789902  39.2801261
  24.0318513  82.1080589  39.8461342  24.3487263  83.5880566  39.8600936
 101.3880553   6.1002133  74.7608523 101.8740621   5.6036207  74.1025047
 101.3816609   6.9974873  74.4275491  86.0562934  67.0463848  37.0179367
  86.8184675  67.6093531  36.8823361  85.6761397  66.9436789  36.1454892
 108.5043700  82.7834225  41.9493675 108.5812493  82.3417664  42.7950954
 107.9492609  83.5430813  42.1254635  97.1630181  92.1334076  44.3342018
  97.7878715  92.1767044  43.6103821  96.6434444  92.9329205  44.2502356
   8.5288143  24.6613455  31.6245198   8.1468713  24.1021276  30.9480381
   8.0898762  24.3941784  32.4321008   3.4705922  47.6898670  21.5574098
   4.1558182  47.9077291  20.9255600   3.3677238  46.7412376  21.4816070
  42.7066909  17.9349340  32.7479506  43.2033824  17.3103345  32.2193575
  43.2597672  18.7155546  32.7789617  32.8288460  86.6320419  34.8655868
  33.2901287  85.7936001  34.8872089  33.1011629  87.0340252  34.0406704
  84.5397247  74.2959595  30.6638336  83.7842501  74.6023035  30.1621938
  84.1704930  73.9988279  31.4954686  58.4709715   0.9595216  44.7664070
  58.9527677   0.2725709  45.2270603  59.0335368   1.1925710  44.0278673
  21.3705969  88.5203457  55.5173111  21.8129611  89.2586803  55.0985003
  22.0788431  87.9259205  55.7648659  69.7903980  67.0589876  20.5791235
  69.3934120  67.8362846  20.9721208  70.5039347  67.4008465  20.0403905
  18.9424895   3.1831850  80.2542019  18.7088798   2.9892267  81.1619663
  18.6482154   4.0838445  80.1183605   3.9428535  79.2842579  12.7631879
   3.3315402  78.5523033  12.6809251   4.7131735  79.0100527  12.2655451
  31.7082000 101.5977859  51.5077972  31.3400126 101.6853714  50.6285954
  32.5448728 101.1525154  51.3738203  76.2663143  51.2544272  82.1573489
  77.0204546  50.7172129  81.9146387  76.3029661  52.0021364  81.5608446
  39.4912767  74.2097712  19.2946458  40.1388121  74.6464777  19.8480189
  38.8215971  73.9031219  19.9059784  92.4485124  55.9678698  65.1978207
  92.7552177  56.8494987  64.9859285  93.1558932  55.5867624  65.7180166
   7.2410429  68.0942059  37.7635455   6.9886142  69.0094185  37.8855920
   7.7523625  67.8806543  38.5440469  93.1034697  80.5094433  40.5733204
  92.2900118  80.9494877  40.8200598  92.8601111  79.9537325  39.8329234
   9.7077531  57.5886393  28.9461017  10.1380122  58.1442881  29.5959973
   8.7759209  57.6527929  29.1553974  22.1189356 100.7175827  21.7061925
  22.6168776 100.8386517  20.8977199  21.4767957 100.0405407  21.4928865
  89.4209207  76.7330980  15.2312732  89.7930301  77.5662422  15.5204642
  89.4704975  76.7673683  14.2759728  91.3151063  76.9979715  51.5319681
  92.1905960  76.6137362  51.5779161  90.8495380  76.4575100  50.8937073
  20.1818848  85.9506607  22.1762061  20.3974175  85.8052731  21.2549901
  20.9963822  85.7676220  22.6445270  40.2028656  60.4905796   0.1823633
  40.3319311  60.3979778   1.1262912  40.5683947  59.6877575  -0.1892520
  24.6184301  66.0104418  44.9822235  25.3556681  66.5729570  45.2194786
  24.2232084  66.4406681  44.2239809  88.8966573  61.4725208  20.6850219
  88.5089720  61.5510702  19.8133779  89.8380841  61.4099455  20.5236793
 107.9310029  41.8246317  36.2588787 107.9906965  41.9539356  35.3123331
 108.8403083  41.7486286  36.5480494  50.5054961  38.8488115  22.0522475
  49.6299218  39.0575231  22.3778892  50.9117745  39.7010244  21.8944144
   2.1764432  61.8033695  42.4089336   3.0244914  61.4220858  42.6362371
   2.3837486  62.4840403  41.7686653  24.7308397  62.1524286  17.6371956
  25.1124787  62.9518080  17.9999280  25.4213929  61.4955759  17.7261603
  94.8483671  65.2494049   7.6977843  94.3765713  64.9519491   6.9198632
  95.3594745  64.4884825   7.9734707  24.8102832  79.6676064  72.3819447
  24.7317171  80.3474522  73.0511713  24.2476678  78.9586544  72.6935244
  16.9115531  62.7934361  64.1912842  16.0539627  62.3682737  64.1938543
  16.8435085  63.4658194  63.5134172  63.4926175  23.6619676  19.7504783
  63.7337850  24.5861543  19.6875405  62.8947281  23.6207498  20.4968452
  48.0525819  95.5377158  83.6145674  48.7791995  96.0534056  83.9643119
  47.6724747  96.0913285  82.9324655  11.7209876  78.5777807  65.1567745
  12.1467257  79.3549299  65.5187368  10.8807540  78.5306454  65.6128645
  49.9656763  23.7173102  86.6788908  49.9609532  23.4778711  87.6056478
  49.5642128  22.9695484  86.2362714  18.2419229  50.0649595  30.6889415
  18.6854064  50.3047800  31.5026021  17.7347553  49.2848539  30.9135342
 100.3671874  64.3794346  45.2020168  99.4727791  64.1135406  45.4154825
 100.7664765  63.5955858  44.8246765  65.8599375   7.6632513  46.8090534
  65.8540581   8.5646165  46.4869785  64.9789571   7.5278390  47.1580029
  10.8849537  70.8175993  40.8110094  11.2838268  71.6641283  41.0123158
  11.4931190  70.1738358  41.1742401 107.5313635  76.4315796  79.8887491
 108.3482896  76.9065428  79.7361946 107.1019157  76.4128256  79.0334988
  81.1326350  49.5283556   3.1878507  81.4548815  48.9126968   3.8461444
  81.8656028  49.6363401   2.5817752  40.2881384  75.7814503  21.5067697
  41.2332010  75.6588221  21.5964842  39.9527621  75.7207346  22.4012351
  30.7945715  34.4377149  54.1819048  31.0597299  34.8514188  55.0033474
  31.6185533  34.2034543  53.7548161  20.9501576  82.2817612  46.2594891
  21.2825847  82.3764420  47.1521044  21.5036893  81.6059589  45.8681774
  20.1225328  68.2136011  37.9613972  20.6857657  67.4396515  37.9625869
  20.5542874  68.8231087  37.3627973  80.4560026   7.7082369  81.3952129
  80.5921044   6.7734930  81.5500079  80.7726564   8.1317398  82.1930908
  93.6333729  79.0126085  13.3350194  93.4693147  79.9514914  13.4234047
  94.4508852  78.8664627  13.8109899  52.4657502  31.8457815  70.1142566
  52.7591219  31.0690233  70.5905049  53.0537977  31.9011995  69.3610232
  85.7528485  91.9442463  26.1433625  86.3002838  91.3968563  26.7063117
  86.0063447  92.8410816  26.3616514  25.9651327  83.5509014  23.7188697
  26.8951726  83.6797810  23.5327291  25.6543779  84.4131660  23.9948559
   9.2061126  83.2489777   1.5429871   9.6519697  84.0954971   1.5721746
   8.2955539  83.4502983   1.7588259  33.3005643  57.3784018  16.9771135
  32.6088095  57.8108072  16.4763796  33.1138039  57.6045704  17.8882682
   4.7467422  47.6539898   2.0542584   4.5639542  48.3138847   1.3854083
   5.6855386  47.7364826   2.2218539  35.6899738  70.7745886  41.4286041
  35.9316802  69.8727083  41.6393566  35.1825643  70.7038641  40.6200457
  25.2533606  68.5733517  88.8749651  25.8857933  68.9703294  88.2760754
  25.6813601  67.7730759  89.1792787 105.6661720 100.6385899  12.8941107
 106.1815332 101.3494110  12.5128543 105.4868920 100.9261799  13.7893081
  79.8613104  44.6061060  59.0632264  79.7778835  43.7227652  59.4223659
  80.4866447  44.5143149  58.3443634  75.3831876  84.5469570   4.3025771
  76.2585725  84.1608810   4.2729419  75.0301255  84.2752171   5.1497704
  19.1276944  94.1938496   4.4985512  19.3130064  95.0133514   4.0399671
  19.9828362  93.8923359   4.8052371  12.5365448  71.5162134   8.5317361
  12.5074375  71.3236570   9.4689167  11.7481077  71.1045170   8.1780338
 101.2206871  93.4212780  15.5766523 101.8432606  93.4086227  16.3036144
 101.3670094  94.2658806  15.1506686  33.3483386  63.0551100  20.2539992
  33.7417221  63.8250542  20.6646895  33.8089180  62.3130655  20.6457472
  90.2615513  70.1734877   9.4871956  90.0444068  70.9287786  10.0336564
  89.5531882  70.1310682   8.8448143  12.1566321  10.8725617  71.4047687
  12.6890637  10.6587097  70.6386011  11.6732098  10.0680420  71.5926175
  21.1148500  62.3321152  50.6539392  21.0529399  63.2512999  50.3941345
  21.0761213  61.8471003  49.8296261  45.2088690  76.4410734  28.3206892
  46.0778475  76.3134336  28.7012362  45.2987671  77.2223282  27.7749896
  64.4515299   1.8616785   7.6882601  63.7935447   1.2464536   7.3645502
  65.2176713   1.3181413   7.8722042  50.6424680  32.9022047  74.8226015
  50.8906879  33.3985254  75.6025283  50.6668296  33.5437510  74.1126351
  81.9242104  24.1118214  68.0559962  82.5309631  24.5638439  67.4696891
  82.3542639  23.2789538  68.2499616  28.6335373  80.0030041  11.2630284
  28.7375093  80.9478378  11.3758087  29.1163898  79.8029470  10.4611170
  11.9765532  94.4980526  33.4780622  12.8013659  94.0418053  33.6446738
  11.3585389  94.1093349  34.0970850   6.4472700  35.8491537  85.5886792
   5.5354334  36.0229513  85.3550728   6.8583037  36.7133829  85.6086557
  96.9454170 102.9975891  22.6173282  96.9971563 102.9431629  21.6630793
  97.3087074 102.1670437  22.9246521  99.8505862  75.0370359  21.4481354
 100.2688624  75.1318598  22.3038721 100.3416110  75.6257820  20.8749795
  12.7031779  87.2995377   9.5580155  11.9349968  86.7285156   9.5494831
  13.3314884  86.8643856   8.9817345  26.9878936  73.4217691  48.2630348
  26.7306781  73.3001900  49.1769791  27.8572249  73.0255032  48.2041359
  18.4101748  60.6604576  32.6599264  18.8041091  60.9601688  31.8406439
  18.9580429  61.0453415  33.3439851  44.0035009 101.6932011  36.8846202
  44.1144085 102.6383877  36.7818832  43.0885458 101.5862846  37.1447325
 103.0423273  51.5253878  48.7310791 103.1511683  50.7907915  48.1271219
 102.9587896  51.1167622  49.5926332 103.1567229  59.1109324  14.4551575
 103.8456644  58.9568996  13.8087320 102.7096928  59.8987198  14.1456640
  46.1219101   3.7721361  13.7878931  46.8634700   3.2350839  14.0669858
  45.9272205   3.4692873  12.9009819  85.6765999  94.1389465  29.0330243
  85.5546821  95.0346470  29.3478012  86.2548078  93.7344074  29.6797538
  78.8687538  15.3297723  19.5801616  78.3709692  15.6092847  20.3484797
  79.6295761  14.8741640  19.9404442  56.1023413   0.5448259  67.9571056
  56.9216632   0.8767618  67.5899982  55.4185592   1.0215581  67.4865675
  77.8460087  79.5068741   6.7887491  78.4475268  80.1997089   7.0614952
  77.0500888  79.9699020   6.5273190  91.9785656  85.0626183  21.4734054
  92.2483100  85.2573872  20.5758905  91.5927340  85.8793449  21.7901254
  19.6784878  92.0724392  45.2017546  18.8264358  91.9989491  44.7718287
  20.0929761  92.8276253  44.7844696  26.4864826  67.3055649  22.6009035
  26.7154765  67.1276999  21.6886759  26.1857843  66.4628792  22.9410458
   9.3518044  70.3703043  74.4370453   8.3999039  70.4050657  74.5314138
   9.6716143  70.1545450  75.3130607   8.0331194  93.6377335  36.5901589
   7.7968383  93.0829334  37.3335266   7.5434273  93.2722855  35.8533525
  39.2257019   0.5910123  57.2141552  38.9143779  -0.1742922  56.7308140
  38.5331273   0.7707513  57.8499746  77.2148765  68.8677597  49.6995401
  77.5940336  69.6999025  49.9824095  77.7250875  68.2026815  50.1616907
  11.6099393  83.2194138  28.0587482  11.4083445  83.2277870  27.1230555
  11.4159548  82.3244953  28.3375525 105.6296496  88.8777828  31.3938785
 106.1273290  88.9139366  30.5770326 104.7431014  88.6383629  31.1238003
  95.4360582  68.3563519  26.7941093  95.4081119  67.8447390  27.6026273
  96.3327898  68.2524681  26.4758134 106.3115321  42.0013857  50.0798845
 106.5556924  41.9666767  49.1550016 105.5376829  42.5643110  50.1023531
  18.3619094  71.3359928  17.7989960  18.2057917  70.6180239  17.1854961
  19.1061509  71.0437918  18.3252609 101.3261510  50.8521509   6.6652149
 101.3250042  49.9673271   6.3000917 101.4916433  50.7255220   7.5994575
   8.3155179  73.1218338  25.8545756   8.6731136  73.0169153  24.9729013
   7.3666048  73.0866098  25.7339287  56.5160227  92.6708603   4.2881611
  56.8845987  91.8018341   4.1294923  55.7556486  92.7179909   3.7086448
  44.8299789  85.5226231  48.1523323  45.7019281  85.5821609  48.5427046
  44.6525908  84.5832157  48.1045485  32.8375196  88.9381981   1.8563248
  33.2826781  88.6241817   1.0692685  31.9681859  88.5397339   1.8148990
  13.8245761  66.0869122  44.7507238  13.4335613  66.3908148  45.5698586
  13.7732911  65.1323843  44.8004961  58.3498763   8.1381143  58.2371616
  58.2886480   8.5024751  59.1201782  57.4407886   8.0509294  57.9504681
   7.1481961  58.1848669  45.4558802   7.4387890  58.3271980  46.3567305
   6.6887778  57.3455381  45.4821920  53.8144814   8.9622320  43.8375044
  52.9508983   9.1262067  43.4586000  54.0818249   8.1202806  43.4688854
  53.4185139  73.3694681  74.5849233  53.3729354  72.4237307  74.7253911
  52.8236500  73.7375911  75.2382641  16.9359457  70.1441145  21.7434144
  16.3043475  69.8591995  21.0830045  16.4110231  70.6191444  22.3876476
  54.6324919  16.3120759  31.1889505  53.8107144  16.3904394  31.6734862
  54.6787118  15.3879941  30.9436393 104.0548029  68.4319803  63.0729525
 104.7577562  68.8812182  62.6036160 103.9239802  67.6180861  62.5864522
 105.3746001  72.0370817  39.9439359 104.6228017  72.1764898  39.3680930
 105.1838539  71.2127590  40.3915310  62.7911757   5.7126440  18.6842549
  62.8696417   4.7588933  18.7054563  62.1494983   5.8849061  17.9951930
  36.7662549  99.2073441   0.8977859  36.1750388  99.1314030   0.1488346
  36.6195464 100.0930119   1.2299027  40.2034988  26.5846417  73.5024767
  40.5008688  27.3450205  74.0020971  39.3204894  26.8171475  73.2153075
  28.6149597 100.6030369  53.9865971  29.4610357 100.8621693  54.3516159
  28.0538297 100.4734325  54.7511721  89.7602918  40.8217260  88.8008887
  90.3760471  40.3243563  89.3391214  90.1089778  40.7525942  87.9121424
  30.2021241  56.0084486  27.5447130  30.4384828  55.1299620  27.2470117
  29.5786929  55.8606911  28.2558632  24.3388128  94.5022964  29.1200924
  24.2932701  93.5946846  29.4207382  24.7434163  94.4478130  28.2543230
  96.4849129  42.3690149  86.2166633  97.0663586  41.7925951  85.7207863
  95.8231606  42.6448271  85.5824386  11.1551154  85.8568001  21.5324068
  11.0188568  85.9173298  20.5868912  11.3096941  84.9259186  21.6930103
  14.9168706  95.4485416   0.1526229  14.3315458  95.0839996   0.8165028
  14.8749030  94.8247814  -0.5722224  69.8578166   7.1255220  35.3588533
  70.0560902   6.6653551  34.5432782  69.3117713   6.5136255  35.8524585
  87.3674430  53.8407946  43.8123083  87.9566587  54.1061401  44.5184565
  87.5138582  52.8994560  43.7191963  13.5155785  70.1990032  22.8981924
  12.7788341  70.6730080  23.2838821  14.2912507  70.6530237  23.2274795
   9.1597474  70.2392340  48.0328703   9.7680140  70.4651165  47.3291492
   9.5617795  70.6014585  48.8224220  17.2611630  73.4380627  15.8922529
  17.6033652  73.0613756  16.7029536  16.4956760  73.9427710  16.1670852
  56.4000283  17.9894556   6.7800725  55.7624756  18.7031473   6.7602676
  57.0467113  18.2639516   7.4302143   3.4301616  48.1310293  85.2583717
   4.2551113  48.4086153  85.6566625   3.0142714  47.5844595  85.9250958
  77.4957787  28.3264515  72.1092884  77.0058664  27.6319859  71.6689079
  77.7869343  28.9004633  71.4007871  84.8170532  52.2714758  26.0136557
  84.3027486  51.5802813  26.4307547  85.2460421  51.8385649  25.2755594
  52.4434137  82.3455143  37.1167874  53.3880758  82.4393463  37.2394395
  52.1585083  81.8062305  37.8545117  31.1853480  63.0022621  57.6920748
  30.8392549  62.1826553  57.3389530  32.1104741  62.9971695  57.4464226
  12.6900673  78.8961315  57.6250410  13.3545411  78.4700108  58.1664515
  12.3048937  79.5601034  58.1968975  29.7416687  96.5830708  59.0411472
  29.7485232  95.7163620  58.6349249  30.0210857  97.1765327  58.3440399
   9.7334719  55.4078150   2.6173186   9.6590877  55.6497097   3.5404578
   9.0168768  55.8757257   2.1886200  13.3728755  52.0149422  41.4426422
  12.7021015  52.3136425  42.0567036  13.0748129  51.1487246  41.1650562
  23.4330988  88.8037872  10.6014478  23.6694670  89.5388031  11.1672342
  22.5471044  89.0074348  10.3018224  91.2269915  74.5555544  35.2603436
  92.0549561  74.0818596  35.3398681  90.9503044  74.4041920  34.3565917
   3.0975360  65.9680080  13.3240831   3.1947082  65.0474215  13.5676312
   3.7723184  66.4218473  13.8289881  77.4444031  17.9593671   7.4978858
  77.4835514  17.6453508   8.4012622  76.7105840  18.5739244   7.4895245
  24.4976640  74.6362114  48.4168530  24.6892715  75.4874802  48.8103771
  25.3357172  74.3439722  48.0583858  94.7695662  61.6056633  47.8679752
  94.7279609  61.7770672  46.9271660  94.0056468  62.0565891  48.2275963
  30.1612568  86.6037464  43.2817650  29.6729851  85.8451271  42.9618931
  30.6338358  86.2786770  44.0480709  32.2802591  49.3117046  19.3121016
  31.7134166  48.5634518  19.1249228  31.6800380  50.0027323  19.5921850
  20.5734897  71.6189194  31.7690730  20.9338665  71.6847038  32.6533985
  19.8736191  70.9701490  31.8432975  51.0166334   5.0914110  43.0470467
  50.4518794   5.0179494  42.2777033  50.7776331   4.3417085  43.5920715
   2.1434538  83.1657124   5.4826367   1.4208487  83.7440968   5.7266426
   1.9223760  82.3245144   5.8823210  33.9476109  77.5384617  38.5285974
  33.6619687  76.6808558  38.2137036  34.8837280  77.5666237  38.3307981
  27.9335809 100.9568787  35.4554081  28.5292101 101.5372181  34.9814224
  28.0889750 100.0921154  35.0755739   8.7647170  39.0324450  67.5490475
   8.5899496  38.9049673  68.4814835   7.9595792  38.7519908  67.1139240
  30.4343939  81.8720436  58.3991098  29.7380233  81.5278149  57.8398228
  30.3006077  81.4389420  59.2421722   1.5216736  79.8200703  33.5127997
   0.7512768  79.5566416  34.0161133   1.8202814  79.0136862  33.0923104
  15.6631529  59.6554279  43.2278776  14.8438156  59.2328596  42.9702806
  15.9213674  59.2065573  44.0329075  26.4237714  82.4027824  28.6825895
  27.2575021  82.4716377  29.1477633  25.7794428  82.2327709  29.3697381
  11.4725673  70.0334644  14.2003179  10.9021568  70.7558775  13.9376736
  12.2654235  70.4602242  14.5251060  28.1667900  70.1848173  26.8247104
  28.4184170  70.4869270  25.9519863  28.9860892  69.8882198  27.2209549
  37.4670100  84.7349072  37.0567775  37.9693770  83.9307213  36.9258523
  37.6253772  85.2479362  36.2643409  34.6141911  94.8545551  27.0400953
  34.7884083  94.2129517  26.3514566  34.0112019  94.4092464  27.6353574
  65.4878877  10.4391588  69.5170546  66.1106871  10.1522268  68.8492060
  64.9459051   9.6684850  69.6860218  64.3087481  10.3279508  66.1925077
  64.8786377  10.9574712  65.7507324  63.7035130  10.8681882  66.7005157
  11.2529767  92.2721672  10.8526230  10.4444492  92.3521328  11.3587070
  11.1248875  91.4879799  10.3188872   0.0089559  73.7102461   1.6863377
   0.4892809  74.1053057   2.4139702   0.5839203  73.8245630   0.9296478
  10.9950995  47.5756168  74.3010569  11.6605198  48.0814600  73.8346148
  10.4207122  48.2357454  74.6890497 106.3139037  72.2603989  18.0143750
 106.3449196  71.7624092  17.1975064 107.0375855  72.8828382  17.9430521
  32.8544831  93.2843304  58.9724207  32.4141860  92.5082779  59.3189859
  32.8917408  93.1366062  58.0274248  83.2498826  91.2353706   8.4578133
  82.7092780  91.6746426   9.1143358  83.8650025  91.9078445   8.1651765
  51.5945863   0.7055200  33.4859514  52.3278784   0.3224004  33.0045676
  51.9559680   0.9127916  34.3477392 104.9340836  66.0144520  24.2761850
 104.2126532  66.5453291  24.6137309 104.5395843  65.4891396  23.5800147
  34.0062523  59.0849352  24.0503812  34.8783302  59.2384481  24.4139004
  33.9858413  58.1460428  23.8651705  28.1116891  68.6998701  61.0719490
  27.2259498  68.4535313  61.3384342  28.5128951  69.0489197  61.8678331
   3.0094993  86.7631054  31.9659710   2.3740315  87.0129490  31.2951565
   3.6626378  86.2447262  31.4959455   7.1257412  92.4829292  15.8323038
   6.5876698  93.1778049  15.4530251   7.6381540  92.1481133  15.0963950
  15.8690464  92.4662018   2.9175112  15.7784903  92.1427727   3.8138521
  16.8111229  92.4452019   2.7493370 101.7606832  93.7731838  27.5384498
 101.5299834  92.8616047  27.3594546 102.5163908  93.9438152  26.9762921
  21.4966297  69.4095421  46.3263893  21.4235950  70.3621531  46.3849974
  21.9756746  69.1570425  47.1156883  26.7422795  58.0859137  25.1769900
  27.2669911  58.7752295  25.5841184  27.3860812  57.4740982  24.8200059
  23.6979365  72.4383736  12.6381636  22.8951955  72.9571772  12.5863671
  24.4035506  73.0830717  12.5861859   3.6071230  39.4132158  76.9872241
   3.6840082  40.0917360  77.6579897   2.8090240  39.6383879  76.5091400
  20.3099775  68.0536938  11.9639397  19.5487380  68.4163857  12.4169302
  20.6343770  68.7753248  11.4251947  55.9811974  82.2707844  33.1866693
  56.3998365  81.6864109  33.8187146  55.4004240  82.8183937  33.7149262
  49.4083284   1.1838640  53.2191133  49.8402582   0.8479322  54.0044928
  49.7361063   0.6304468  52.5102234  95.0430990  81.1611271  45.6196356
  94.9072350  80.9702969  44.6915436  95.2073218  80.3065491  46.0183382
 100.3424890  86.8460560   1.2607625  99.9569727  86.0443306   0.9074280
 100.9759254  86.5411282   1.9103825  73.9592006  -0.1540401  73.0944459
  73.6977934  -0.2951458  74.0043836  74.5209571   0.6204245  73.1239765
   2.8745827  60.6878996  62.5127411   2.0925076  61.1923409  62.2888422
   3.5635951  61.3451004  62.6106358  43.9659500  57.4996996  10.5373538
  43.8335085  56.5610838  10.6703579  44.5728350  57.7566862  11.2315297
   4.5347297  62.2912455  29.1204977   3.9461678  61.6193056  28.7765145
   5.4107177  61.9859028  28.8846135   1.8014957  89.6908760  30.3022075
   1.3354245  90.0688839  29.5564747   1.9072637  88.7670040  30.0752258
  52.3953370  86.3215097  89.2118846  52.5453499  86.9743951  89.8956000
  52.6267568  86.7693266  88.3981674   1.7426954 101.2997723  55.8353519
   1.8527167 102.1130657  55.3427172   0.8985297 100.9554386  55.5437231
  95.5477037  18.4111569  88.3600967  95.8846583  18.6669132  87.5014462
  95.9809318  17.5788138  88.5491850  92.2924247  71.2065432  73.0536609
  92.8935089  71.7179796  72.5120323  92.8002109  70.4384253  73.3151715
  78.0273222   8.4961332  16.7126060  77.8061079   8.1033433  15.8682072
  78.9837765   8.5337080  16.7160666  35.1133216   1.9194425  67.8356504
  35.9959591   1.9749845  68.2018471  34.5338875   2.0238985  68.5903549
  86.8791450  71.5003681  32.2015548  86.2431754  71.7943716  32.8537321
  86.4485205  70.7682991  31.7601204   5.7459289  82.5141335  25.8949971
   5.6791943  83.4405994  26.1261654   5.4155719  82.0508289  26.6647005
   7.0844936  87.5304413  41.6809940   7.6272660  86.7666912  41.8767691
   6.2099189  87.1709538  41.5322590  10.1531208  70.3569889  26.9429255
  10.8916211  70.5990887  27.5017047   9.9318969  71.1627150  26.4759183
  26.7353058 101.3740158  44.4144201  26.8495631 101.6466904  43.5040236
  26.7727900 100.4180145  44.3846273  28.0411267  81.3373470  34.6523690
  27.7164650  81.2257004  33.7588596  27.9962635  82.2808456  34.8073626
  20.8240414  66.1146641  26.3947344  21.5964818  65.7487869  25.9638047
  20.2095270  65.3826141  26.4467716  21.8183732 100.7302189  33.1028485
  22.2451830 100.0325108  32.6055884  20.9453464 100.3878975  33.2948709
  19.4300878  89.9450588  16.3371611  19.9958920  89.9119949  15.5657959
  19.3809915  89.0374470  16.6372716   3.6008364  69.2084980  25.5834794
   4.5250496  69.4314766  25.6945729   3.5342526  68.9078617  24.6771598
  91.8813349  78.8842249  32.5982904  91.6331471  79.7143602  33.0051184
  91.0718657  78.5592079  32.2041416   5.3926361  95.4597950  66.7478895
   4.8500165  94.7833824  67.1531820   5.5676734  96.0815811  67.4542761
 109.0871205   8.3935330  72.9986958 109.3452444   7.6144478  73.4912698
 108.9950695   8.0869600  72.0966034 107.6878655  65.2295876  23.8697267
 107.7674618  64.6197987  23.1362057 106.7543731  65.4378462  23.9078498
  43.4789746   5.2872861  20.2237535  43.7071829   5.6754888  19.3790948
  42.5590645   5.5182565  20.3527927  16.1294854  64.8855734  29.5235515
  15.7434201  65.2154350  30.3349566  15.9927392  65.5896807  28.8897014
   4.1209817  48.1403351  38.5998964   4.1008192  48.8331127  37.9396772
   4.0993103  47.3274899  38.0948782  94.5369459  91.5491772  21.5963340
  94.7257663  91.7442417  22.5142264  94.0499021  92.3119736  21.2846422
  26.2301111  73.7784767  17.5866175  25.9308481  72.9138374  17.3054147
  27.0204329  73.9378881  17.0706642   3.9819577  87.8325367  36.9712210
   3.6096060  88.4011745  37.6451921   3.3270046  87.8278255  36.2731910
  23.0748677  57.3573875  24.7748876  23.0943918  58.0197430  25.4656410
  23.5314655  57.7651882  24.0390539  12.9990184  68.0808020  20.8203530
  13.7049949  68.0219221  20.1766443  13.3272934  68.6910295  21.4807248
  30.2811933  72.1099091  55.4518652  30.4290223  71.1655569  55.5025864
  29.3416262  72.1969604  55.2910328  85.6943582  11.0589708  31.0971093
  84.7709297  11.2465204  31.2654591  85.6907820  10.2023805  30.6699371
  29.4761205  90.8697224  25.7352948  30.2036238  90.9527779  26.3517928
  29.3737173  89.9261093  25.6113839  44.6784906  19.6449960  24.8406672
  45.2731674  18.9333738  25.0776815  45.2137463  20.2393068  24.3148041
  95.7646645  58.0800581  18.2022381  95.0258280  58.5632133  17.8322196
  96.0323836  57.4811363  17.5052094 101.9197513  75.8117485  34.7345400
 102.3230178  75.8104467  33.8664341 102.6510800  75.6830740  35.3385544
 101.1139895  62.6217556  43.1570005 101.9607187  62.1871328  43.2588911
 101.2070872  63.1438017  42.3601103 103.6361618  70.8812428  26.3373756
 103.6633409  71.4643669  27.0959663 103.5381092  70.0057316  26.7116690
  20.4836464  74.4340038  19.4133389  21.3692713  74.7963524  19.4378781
  20.4833484  73.7562466  20.0892663  94.0282954  50.5430841  27.9104638
  93.1900014  50.9147310  28.1850052  94.6501197  50.8370495  28.5761595
  65.1329492   1.7669404  13.0395436  64.9273967   2.1226896  12.1750093
  64.2795609   1.5798486  13.4306407  46.7247572   5.1887009  80.5309718
  45.7824912   5.1397774  80.6921290  47.0552912   5.7686255  81.2170254
   9.2942268  42.1565104  41.6347599   8.8980865  42.9152632  41.2062740
   9.9306893  41.8280363  40.9997368 100.7632865  42.8460789   6.1852324
  99.8182095  42.7239323   6.0950029 100.9044589  43.7730122   5.9926301
  39.8352098  96.0466671  30.2427173  39.0030169  95.7437801  30.6059647
  39.9454570  95.5375767  29.4396567   3.3010438  91.2017632  46.2202978
   4.0721139  90.9151554  45.7308674   3.3934712  92.1527767  46.2774324
  28.0938888  84.0900135  39.0907097  28.0540013  83.3115578  39.6462727
  28.7518048  83.8782120  38.4285045   6.7699510  97.1628094  82.2940159
   6.7379755  98.0016804  81.8341064   6.2187624  96.5813541  81.7702579
  72.0097316  65.6380081  18.2815814  72.3377837  65.4969645  17.3934829
  72.6038302  65.1354504  18.8389981  81.2989067   3.1161703  39.3262839
  80.8729004   3.5491384  40.0660753  81.5182613   3.8285554  38.7257695
  51.8180417   5.3233922  33.8706613  51.8448185   5.5294240  34.8050404
  52.5740038   5.7809843  33.5027361  20.6400585  74.0690088  23.1494069
  20.1669812  73.6096287  23.8432360  20.0112414  74.7074509  22.8129411
  38.9602923  83.5058880   5.3303772  38.8866758  83.8440704   4.4379380
  38.5688448  84.1867542   5.8775675  11.4631331  75.8969784  29.4932103
  11.6631806  76.7383480  29.0829611  11.7154217  76.0112667  30.4094648
  11.5544724  49.9225235  21.4213777  10.6453872  50.1819658  21.2714314
  11.7955077  50.3564548  22.2398138  17.2433984  80.8041668  37.4323702
  16.7946637  81.0713482  38.2345414  17.8451824  80.1146698  37.7128649
  98.6748424  25.3418705  61.1253302  97.8633537  24.9741575  61.4753430
  98.4364476  26.2259552  60.8464067  41.2271070  99.4239426  19.8228204
  41.1902571  98.5386467  19.4607008  40.7659864  99.3599892  20.6591892
  18.1266582  93.4169483  23.7064695  18.6563754  92.6871872  24.0275264
  17.9498899  93.2000637  22.7910733  51.8637609  82.3549747  43.8459301
  52.4385881  82.0202351  44.5342302  52.4158239  82.9537296  43.3429909
   4.3448728  60.4428625  17.5944579   3.7386608  59.7040081  17.5411808
   4.8832262  60.3682613  16.8065226  17.6005793  83.1758595  21.6425681
  17.9329515  83.5317421  22.4666500  17.6399863  82.2265148  21.7584443
 104.4102874  35.3153441  85.7224687 104.5472541  34.7900316  84.9341016
 105.0293722  36.0404417  85.6376742  89.7638954  57.1113777  56.0805845
  89.3970252  57.6493835  55.3790236  90.7016898  57.0784044  55.8916759
  88.4263695  83.0353165  41.6463614  89.3182934  82.9501915  41.3095236
  88.1925906  83.9480019  41.4772844  54.0197026   0.4871477  32.3690939
  54.2730950  -0.3427874  31.9650626  53.5514103   0.9565080  31.6787076
  29.6731257  84.7270679  32.3329878  29.8989272  85.6398201  32.1537590
  30.5167460  84.2784691  32.3903942  69.9720644   2.2441972  11.2564838
  69.3296336   1.6092885  10.9396183  70.0484799   2.8820909  10.5469167
  90.5195155  32.8159163  85.9101643  91.2028565  33.3529112  85.5090211
  90.9722378  32.0189306  86.1860018  20.5718780  81.5481853  37.6555657
  21.4179802  81.1404705  37.8402710  19.9311078  80.8576775  37.8254056
  41.6897964  99.6463299  40.0295496  42.1059418  98.8042450  39.8453045
  40.8568764  99.4168186  40.4416084   7.9951930  83.0591583  36.5431142
   7.0509648  82.9025173  36.5544820   8.1684393  83.4151936  35.6716442
  17.7191746  97.1946812  24.1909099  16.8654823  97.5288105  24.4662237
  18.1497943  96.9371033  25.0060487  62.1281290  93.8405132  89.3145943
  62.1521044  93.8357353  88.3577061  61.9830465  92.9254532  89.5551205
 104.1583724  56.4310646  53.7221432 103.8798429  55.5858040  54.0745544
 103.7997426  57.0750618  54.3327856  64.6598862   8.4285844   1.5697646
  64.2248677   8.4803785   0.7187024  64.5671676   9.3064130   1.9399701
  13.6222577  56.2177181  33.8293123  14.0427756  56.6225481  34.5879340
  14.2560935  56.3226604  33.1197548  71.2110161  14.6813978  46.0008764
  70.6753420  15.3631032  46.4065409  72.0023679  14.6471227  46.5382957
  49.3163633  93.6845779  38.3715320  49.4043922  92.7318954  38.4012365
  48.3935404  93.8335323  38.1655288  28.2182956  76.4481974  48.4231567
  27.3426533  76.5777826  48.7874222  28.6394477  75.8341074  49.0246153
  32.4871778  51.9962502  32.2763681  32.9041576  51.9245005  31.4177585
  32.0954108  51.1356401  32.4250412  22.2148037  72.7472258  21.4762545
  21.6664314  73.2034016  22.1145511  22.4909711  71.9482851  21.9253206
  80.7840656  10.2655805  46.0280561  80.3877805   9.4650186  46.3719845
  80.2345680  10.9708513  46.3699436  14.0705669  86.1894608  69.6693563
  14.2796040  85.4578304  70.2500916  14.4591630  86.9528675  70.0964737
  21.5942049  88.6854458  31.5616655  22.1551037  87.9306507  31.3830233
  22.1556234  89.2921448  32.0443177  32.5119925  73.3951330  58.9148521
  33.1687355  72.6987791  58.9185715  32.9932451  74.1767931  58.6434937
  38.9387377  15.2061094  39.0003681  38.7584868  14.2749704  38.8710928
  38.2325729  15.6537355  38.5343170  64.5662283  20.0871480  49.8808527
  64.3050073  19.1662801  49.8821259  63.8021992  20.5533136  50.2202415
 102.8754933  51.9223642  24.4041085 102.4781324  51.7530775  23.5498977
 103.8180394  51.8930387  24.2398572  37.4148014  10.6550706  50.6017923
  36.8118810   9.9478830  50.3724527  37.4366649  10.6502832  51.5587330
  16.0508490  93.3704090  14.0156019  16.5459573  93.6208820  13.2356262
  16.6236484  92.7572536  14.4762313  28.9933252  68.4943628  56.7867804
  29.0291786  67.6373625  57.2116327  28.3398104  68.9827299  57.2874260
   6.7732179  97.6832771  13.6620712   6.1634326  97.1487331  13.1534946
   7.3780495  97.0517635  14.0514302  11.9630873  68.7445259  66.4067125
  11.0357249  68.8335419  66.1869240  12.3160660  68.1696272  65.7276535
  24.1167760  76.4511776  28.7355757  23.9253044  75.5184364  28.6377335
  24.9051762  76.4782572  29.2777228  11.0013866  83.3777332  25.4674459
  11.4853656  83.7048626  24.7091675  10.1178098  83.2167435  25.1363826
  24.3004251 100.1226234  11.8599939  23.9555812  99.2908764  11.5351820
  23.7925839 100.7893753  11.3976336 103.0593466   6.3569082  70.2013683
 103.0810999   5.7751001  70.9611416 102.9883312   7.2355283  70.5744696
   9.3157738  73.5776949  18.2221305   9.3672907  73.7807608  17.2881365
   8.3977574  73.3486938  18.3671701  25.7595778  48.9665508  42.2775698
  24.9445367  49.3623257  41.9688559  26.1034346  48.5008049  41.5152884
  13.3753395  97.2425175  70.1803732  14.0287459  97.6171875  69.5896816
  13.7369454  97.3802757  71.0558701  73.6252164  14.7626413   8.2145196
  72.9742812  14.9339498   7.5339526  74.1708850  15.5489744   8.2274026
  58.7524128  92.0257664  15.7369542  58.4771538  92.9104042  15.9775651
  58.1791496  91.7862892  15.0087726  20.9961152  95.4854393   8.7521523
  21.1181855  95.7054234   9.6756995  20.8800721  94.5353222   8.7455589
 103.2769937  82.5896072  26.0556126 104.0455557  82.0511341  26.2442899
 102.5955964  81.9601154  25.8196497  24.4253969  60.3175545   3.1756127
  23.5527396  60.1797485   3.5440025  25.0229573  60.1368475   3.9012146
  43.3393717  89.3654537  40.9388018  43.0444574  89.4416714  41.8462420
  42.5436544  89.1699696  40.4439735  21.8769608   3.9430822  16.8984473
  21.5717754   4.4565690  16.1505020  21.2609825   3.2125867  16.9548035
  86.1656402  26.6621126  31.6638970  85.3031658  26.4132513  31.3315630
  86.0967563  26.5551485  32.6126051  61.0581683  12.5267518  46.4721251
  60.7720732  12.5816740  45.5603313  60.7603334  13.3465494  46.8663979
  86.4733480  13.3252920  32.2315192  86.3965343  12.5309862  31.7029190
  86.3396953  13.0279268  33.1314874  28.2218647  97.0968151  31.8459797
  27.5350904  96.6428947  31.3575840  28.6376476  96.4108467  32.3682785
  63.2338475   6.0219015  39.3551946  63.5572146   5.3876699  38.7153411
  62.9897689   6.7859472  38.8328075  36.8960857  77.1369457  50.5598593
  37.7867079  77.0501375  50.8996964  36.9709063  77.7779007  49.8528814
  45.9611164  28.9366449  23.6085939  45.2276497  29.2895139  23.1048656
  45.7991849  29.2302145  24.5051575  53.4188091   4.7520078  17.3444700
  53.9271401   4.7804941  18.1550384  53.3834587   3.8230432  17.1164417
 106.6792760  89.2062950  16.2791264 105.9890861  89.8002434  16.5742588
 106.9973451  88.7914658  17.0809853  33.0780554  79.1370058  35.9911823
  32.9255438  78.6708260  36.8131614  34.0310931  79.1737795  35.9099531
  28.6492538  95.7233620  35.7190633  29.2962027  96.4101791  35.8802271
  27.8654242  96.1942863  35.4360962   9.5701081  70.5287409  38.7272763
   9.8544306  70.6832457  39.6281219  10.2421844  69.9552107  38.3590269
  58.0521129   4.4871820  13.5266197  58.0147170   5.0350774  12.7426219
  57.8803657   5.0910104  14.2492092  93.3521103  11.2414182  64.0158081
  92.9081033  11.3892282  63.1807995  92.6499532  11.2553133  64.6661997
  27.7205253  82.8840446  53.2736063  27.5599980  83.2361889  52.3981285
  27.8466129  81.9454002  53.1348038  27.5403714  71.9082594  55.2177572
  27.1319366  72.7728605  55.2610683  26.9236755  71.3770008  54.7140884
  39.7964342  10.9732164   6.8985379  39.5287614  10.7057298   7.7777612
  39.8089661  11.9297327   6.9326001  87.1545337  17.3949636  15.0314450
  86.5849279  18.1334318  14.8159409  88.0390047  17.7602685  15.0093234
  14.2838657  83.6708260  52.1869755  15.0039077  83.4561825  51.5939331
  14.4789600  84.5577812  52.4894094  23.8322616  81.5238667  41.7063856
  24.5638156  81.2158871  42.2413683  23.6038637  82.3749733  42.0801353
 106.8270579  78.9478350  41.1663103 106.6251437  79.0339613  42.0979977
 106.5050597  78.0777025  40.9308958  38.4857416  92.7538681  58.2368612
  37.8604531  93.2424736  57.7015972  37.9407930  92.2427559  58.8352156
  28.2061672 101.9156837  13.2803011  27.5381899 102.5268269  12.9695857
  27.7714682 101.0628986  13.2753348  19.3954587  73.8962650  53.2073641
  19.6723568  73.1480122  53.7362051  18.7183011  74.3230629  53.7322807
  47.4023438  97.9121780  49.4661140  48.3274746  97.7203178  49.6195841
  47.0009089  97.8655243  50.3338146  76.5426706   0.2184785  69.3456030
  76.0836219  -0.4611002  69.8392391  76.5497898   0.9760202  69.9306822
   0.9129998  65.5295706  54.2850399   0.2282836  66.1542702  54.5241022
   1.5942660  66.0649633  53.8782692  26.2102771  65.8032608  61.4256954
  27.0060349  65.2848434  61.5450430  26.1588025  66.3473845  62.2115135
  30.8302617  67.3306751  23.4887147  30.7911730  66.7842865  22.7037549
  30.7865119  66.7092896  24.2154884  72.6710595  99.5347118  42.6649237
  71.8124784  99.8541546  42.3873901  73.2387556  99.6863556  41.9093084
   8.9391249  77.5940037  25.6844401   8.4658539  77.0676708  25.0400639
   9.1075224  76.9913530  26.4087939  24.6841763   7.5544942  22.8764534
  25.2675449   7.9143632  23.5445905  24.9208723   6.6284288  22.8254509
  14.7290039  85.8359337  31.8757892  14.6479499  85.6389713  30.9425879
  13.8292384  85.9788132  32.1694517   4.4562748  79.9116516  40.8574724
   4.1058660  79.8027992  41.7415524   3.7195855  79.7083187  40.2811241
  93.7779225 101.4938164  29.0231943  93.5481037 102.2823620  29.5147228
  94.1691471 100.9112930  29.6742272  28.0056214  95.6816006   0.6662847
  27.3468733  95.0699615   0.3373882  27.5871015  96.1037540   1.4165255
   9.5557731  97.7371693  25.6940341   8.8183659  98.1646633  25.2584743
  10.2342963  98.4111881  25.7331824  44.4516516  90.7987404  55.0986576
  44.4300461  91.2292194  54.2439890  44.1255283  91.4605522  55.7084799
  28.7758446  75.1956749  19.4079590  29.2439556  75.7492638  20.0329781
  28.4535241  74.4623995  19.9320257  80.0902246  13.0743135  28.1740475
  80.1420664  13.8672460  28.7077165  80.4079555  13.3442987  27.3124337
   8.6455286  41.0203314  46.7243242   7.8200030  40.8918238  46.2571812
   9.3167913  40.9644079  46.0442448  11.0963942  27.8424618  87.5601421
  11.7313076  27.1349642  87.6722486  10.2771736  27.3970768  87.3439507
  48.4311771  94.3683815  21.6968703  47.6422548  93.9357758  21.3702393
  48.8822126  93.6931515  22.2036815  28.4183311  99.7923183  30.5657935
  27.9243779 100.2967930  29.9194574  27.8214526  99.0923119  30.8302927
 106.5182067  90.5501080  19.0298796 106.3016064  90.9102726  18.1698787
 105.8259199  89.9123383  19.2037308  86.7199396  20.4046930  30.6574941
  87.6275753  20.6669916  30.8112049  86.7810653  19.6915735  30.0219202
  44.3700552 102.6817417  30.1029396  43.4586477 102.9741192  30.0938845
  44.3767214 101.9012451  29.5488453  18.7627733  78.1019974   4.2213410
  19.5378947  77.9334354   4.7570682  18.7129545  77.3514843   3.6293304
  56.9434547  63.9448309  18.4901798  56.8213224  63.9414644  19.4395494
  57.3941231  64.7697735  18.3095968  39.1000231  41.9336236  73.8758469
  39.2244356  41.9524969  74.8247385  39.9020784  41.5359891  73.5369873
   8.4593666  48.6321163  16.4647841   9.3370837  48.5175133  16.1004913
   8.1609255  47.7427149  16.6548622  42.9752957   9.0973867  27.2173262
  43.0410712   8.8184465  26.3040376  42.0343064   9.1555608  27.3828173
  90.1016830  10.9597505  24.7017860  89.1720842  11.1870874  24.6817756
  90.4858087  11.5768255  25.3245997  11.9848955  77.7400541  40.8370399
  12.2176695  77.8625822  41.7573881  11.4651537  76.9363213  40.8263922
  73.8964819  11.5858186  39.7120047  74.1492270  10.9047807  40.3353310
  73.7460493  11.1159051  38.8917732  89.1774025  36.7754480  62.1255772
  90.0145950  36.4233038  62.4277966  88.7058117  36.9949362  62.9291074
  10.8247519  74.9015570  22.9864311  11.2154484  75.2010155  23.8073516
  10.1827872  75.5766201  22.7664304  20.9417820  78.5525894  48.4766340
  20.7459569  78.3373547  47.5647354  20.3979087  79.3175840  48.6642790
 103.5892891  18.8420309   8.7066913 103.6103224  19.4245733   7.9474574
 104.1547941  19.2678178   9.3510121  49.9065951 101.0013636  88.4451803
  49.6991817 100.7808789  87.5371061  49.0584437 101.0121783  88.8887497
  21.4784598  82.2459126  25.4236841  22.3864031  82.5034714  25.5834699
  21.2306738  82.7212524  24.6306610  43.0946493  74.9966192  22.0639443
  43.1629848  75.3309822  22.9582405  43.5709524  74.1665268  22.0815468
  25.5699420  73.7396431  59.6915340  26.1756849  73.0139828  59.5407677
  24.7026682  73.3621025  59.5448017   8.7019557 101.3540268  38.1394672
   9.3206316 101.7376709  38.7609863   9.2465585 100.8304310  37.5516844
  34.3249202  98.5278416   5.9675145  33.6613894  97.9242516   6.3016218
  34.2115664  99.3216419   6.4902723  16.5825212  66.3978529  37.7803135
  16.0913718  67.2130060  37.6776958  15.9504867  65.7825947  38.1520891
  95.4973592  85.0665188  20.2171326  95.8244933  84.8766041  19.3378460
  96.2743951  85.0297928  20.7748938  78.1039642   7.2618116  56.5204382
  78.7886738   7.5214399  57.1368790  78.4464144   6.4727796  56.1004639
   6.9953626  82.5939274   5.0579321   6.4449584  83.3211231   5.3485680
   6.9583321  82.6325893   4.1022307   6.6347927  71.5404510  56.7793941
   6.9485813  71.4112711  57.6744270   6.0790169  72.3181105  56.8303299
  67.7140379  72.9648876  57.2643709  68.0519056  73.8604736  57.2666311
  66.8607950  73.0297089  57.6933336  62.1078444  85.1361942  12.6922941
  62.0974684  84.5109844  13.4170246  61.2537336  85.5662251  12.7347064
  25.0494504  95.3687859  50.5622053  24.6820211  96.2519646  50.5273294
  25.6707025  95.3963947  51.2898827  51.1423874  91.0874653  40.6926298
  51.1178923  90.8082199  39.7773910  50.2732563  90.8732986  41.0317230
  58.3454846   8.0725683  52.7796888  58.3239197   8.9198698  52.3348904
  59.1453718   7.6547922  52.4605083 102.4775524  53.2930326  27.0032763
 102.2638644  54.0797186  26.5015793 102.6706619  52.6308298  26.3396311
  32.2391915 102.5576401  19.5935297  32.9389930 103.1857395  19.4146395
  32.1186042 102.0913792  18.7663078  57.6784157   6.5486349  33.6146879
  57.6209949   5.6075586  33.7799335  56.9519566   6.9239534  34.1123080
  37.6037669  89.9179459  31.4122939  37.9310441  90.7265186  31.8064308
  37.9124284  89.9508476  30.5068231 100.8799099   0.9353460  36.6214728
 100.3674577   1.0025323  35.8157992 100.2347349   0.7354749  37.2997308
  84.0914558  30.1487077  34.6479726  84.4703649  30.8975900  35.1082325
  83.4947418  29.7537626  35.2837229  30.6566645  24.3583080  85.6904708
  31.5591694  24.6751806  85.7265987  30.1307751  25.0979063  85.9948908
  30.4995991  43.7159369  80.7714717  30.2915980  43.0991861  80.0696241
  30.2306534  44.5682833  80.4288332  67.2970127  19.0579618  20.9296703
  67.7209066  19.0174879  20.0724006  66.3611339  19.0008939  20.7370329
  97.3047041   9.7515119  29.3792200  98.1077265   9.9012388  28.8802505
  96.6024565   9.8384584  28.7346101  39.8319292  99.3115425   8.2465631
  39.9687409 100.0813293   7.6943433  38.9660382  98.9886761   7.9971266
  69.3192791   1.7219079  29.3705940  68.4234856   1.3964761  29.2818332
  69.8503851   0.9336198  29.4835949  43.3077288  57.4178171  18.2205415
  43.4143353  57.1576214  19.1355097  43.0016947  56.6249466  17.7801609
 101.3596619  64.8053312  16.0527074 102.0911486  65.3489876  16.3452756
 100.6710471  64.9625063  16.6987252  42.5689745  30.5198193  11.1159897
  43.3582306  30.7096243  10.6087649  42.8714895  29.9555635  11.8275595
 101.9258947  61.9970274   8.9842033 101.9219590  61.0537434   9.1467810
 101.0001416  62.2373009   8.9457059   4.0065372   5.2509856  44.9286938
   4.6663660   5.2998918  44.2369795   3.7587470   6.1617017  45.0881529
  11.9979048  46.1696482   7.0204073  12.0582283  45.3818846   6.4800203
  12.3032320  45.8916759   7.8839684  28.7784934  45.0586510  20.6817245
  29.0184283  44.3235397  20.1175666  27.8961492  44.8480511  20.9872580
 102.4364186  46.1239004   7.7833915 102.5050784  45.8795214   6.8604630
 103.1137265  45.6066036   8.2191563  86.5774573   3.5828507   6.3040948
  87.5196208   3.5561833   6.1372107  86.3229407   4.4821143   6.0972661
  66.2758173  49.6583986  10.2156603  67.1505798  49.9168634   9.9254549
  66.3492836  48.7203979  10.3916836 103.8338865  61.1799908  42.6743126
 104.3826080  61.5421867  43.3699751 104.3541620  60.4658127  42.3062086
  76.0523096  67.0868763  87.7880494  75.1277581  67.3031565  87.9091342
  76.5222183  67.8583189  88.1047388 108.9928330  49.9480486  24.5260334
 109.7215824  49.8494005  25.1387525 108.6990704  50.8510351  24.6466374
  99.3454392  18.2745254  30.8425975  98.8020409  18.9752650  31.2030339
  99.6635665  17.7992499  31.6101527   5.3964901  71.1396933  42.1391535
   5.3930461  71.7671299  42.8620243   4.5116979  70.7745123  42.1347523
  19.6738613  43.7071800  14.6796370  20.5713415  43.5572720  14.3825054
  19.7700739  44.0562963  15.5656934   3.4775278  48.4014606  10.8342743
   4.1430056  47.7136517  10.8512902   2.6639822  47.9424810  10.6252050
  18.7823105  52.7666378  37.9358196  18.4912527  53.5839462  37.5314355
  18.6615086  52.1057606  37.2539997  93.8730789   5.8259082  27.9806852
  93.5072733   5.4591018  28.7855911  94.2538167   5.0743234  27.5263834
  32.3148942  61.1993933  23.9910245  32.0562005  61.2724829  24.9097037
  32.9499078  60.4832935  23.9772558  24.1015220  15.9312356  40.2744484
  23.6480355  16.6071951  40.7780933  24.6713924  15.4999447  40.9112120
  82.9697349 102.2700681  15.0927031  82.8282561 101.7856341  14.2793524
  82.1907070 102.0882923  15.6183505 102.0597435  45.5305910  29.8240948
 102.3418666  45.6506729  28.9173317 102.7291657  44.9659252  30.2104306
  27.8421974  34.7817874  25.8142114  26.9583917  34.8907256  26.1652827
  27.7079463  34.4547558  24.9246836  18.7931490  60.3744459   3.0077273
  18.9793503  59.7171783   2.3372379  18.8213408  61.2088537   2.5395325
  91.4621880  22.3666975  84.2711894  90.9889247  21.5380261  84.1966467
  92.2020509  22.2748158  83.6708616  18.0371737  56.6155720  25.2489901
  18.1813192  55.7070208  25.5135489  17.1698701  56.6123819  24.8440123
 104.8226075  42.1569824  25.7968760 105.6752370  41.9841528  26.1961055
 104.5459519  41.3101196  25.4468513  10.2386785  62.9337645   3.1359437
  10.3317845  63.5826540   2.4384455   9.7373754  62.2229195   2.7364102
 107.4547000  60.9314442  15.1590931 106.8658858  60.7873011  15.8998716
 107.0742644  61.6752672  14.6919465  15.6008458  59.9717665  17.1008301
  15.4230535  59.1520166  17.5619495  15.4455400  59.7665167  16.1788845
  97.7475061  11.6658136  77.1513014  96.8761768  11.3049481  76.9876187
  98.3404961  11.0862133  76.6731243  94.2450191  76.7349577  21.2514997
  94.9707020  77.3469877  21.1288762  94.5364405  76.1559391  21.9558048
  97.2519876  73.7171221  47.0853615  96.5648807  74.2089224  47.5350809
  97.0863010  73.8701248  46.1551094 107.9584978  44.9841595  38.1530333
 107.8208086  44.2820930  38.7889409 108.7613803  44.7374439  37.6939678
 108.8028944  49.4858599  13.4279072 109.1589468  48.8539839  12.8032553
 107.8909452  49.2194700  13.5445905 102.3676182  39.4436121  33.2726693
 101.6977657  39.3763590  32.5922227 103.1187506  38.9686346  32.9171014
  86.4554156  14.9702680  47.2412968  86.6723574  15.1307786  48.1596661
  85.9114946  15.7166433  46.9896936  82.5553049  33.2164669  26.6509151
  83.1779994  32.9590130  27.3307705  83.0133976  33.0431938  25.8285022
  86.6178645  49.8209858  38.4225082  86.8444122  50.4875946  39.0709996
  86.7549099  50.2514458  37.5786161  54.0922728  85.2012359  39.6995807
  54.3851783  84.2963456  39.5918274  53.1846681  85.1257288  39.9941730
  84.9962486  32.0667911  16.6477382  85.8769096  32.1347880  17.0165837
  84.4230498  31.9845510  17.4099135  81.4890207  65.0640631  22.4766445
  82.3479522  64.7521448  22.7615547  81.5876807  65.2115917  21.5360427
  91.4369179  60.5796766  11.4676356  90.6863667  60.3083038  10.9391844
  92.1889080  60.4822254  10.8834732   7.9837954  49.8273659  19.1915894
   7.8141993  49.3404627  18.3851182   8.8257474  50.2566242  19.0396464
  84.1738452  57.2190189   4.2723134  84.8045362  56.5167713   4.1132203
  84.4105352  57.9005671   3.6432663  34.7787436   0.2923311  11.7598546
  35.5963037   0.0486959  12.1939826  34.9030413   0.0267995  10.8486605
  51.2932696  19.6523354  85.5714964  51.3913598  19.1360781  86.3715534
  52.1858587  19.9116013  85.3428067  91.2457254  84.6760069  33.1771922
  91.0930087  84.4900309  32.2507358  92.1831419  84.5264613  33.3001471
  75.2564706  61.8699884  45.8094406  75.8740367  62.1133375  45.1197815
  74.4045891  62.1565008  45.4801321  19.6704447  38.8691735   9.3663371
  19.5084751  37.9770470   9.0595692  20.1993489  38.7584519  10.1564217
  14.4115222  39.6257734  26.7880106  15.3658950  39.6082997  26.7166138
  14.1078734  39.0591097  26.0788417  77.0157620  24.2097828  83.2711677
  77.3596903  23.5502359  82.6687180  76.1658948  23.8645002  83.5445474
  33.2897589  84.9468549  87.5353584  34.1288840  84.9486669  87.9958990
  32.7473954  85.5665024  88.0233246  22.1654654  48.7857056  13.4785676
  23.0713272  48.9115095  13.7610853  22.1957183  48.0133057  12.9140186
  62.5845566   9.8202202  80.2296703  62.2927060   9.2805550  79.4949465
  63.3110639   9.3293449  80.6136744 102.3117216  26.8095422  81.3528061
 103.1129206  27.1549439  81.7465210 102.3253061  25.8756208  81.5621758
  13.6858833  39.4894433  31.1973691  13.2085073  39.0668607  30.4833889
  14.5781708  39.1512394  31.1220503  11.0424972  89.3788338  68.2640839
  10.4024315  90.0686073  68.0887032  10.6876147  88.9090538  69.0187979
   3.9782530  31.7143869  16.8837488   4.6596539  32.2062731  17.3419762
   3.6116755  32.3390794  16.2579608 104.7543387  88.0387306   8.6353034
 104.9984194  88.3494663   9.5071411 105.3562311  88.4896088   8.0431348
  51.5554384  99.4135150  68.4322731  52.0004204  98.7763985  68.9911167
  51.8218497 100.2645453  68.7801258  18.0296123  37.5433922   5.6744975
  18.5029054  38.3329916   5.4122835  17.1184301  37.8256226   5.7540286
 106.9005866  63.5572433  14.0233159 105.9939457  63.8293982  13.8813114
 107.3034644  64.2954779  14.4804084  96.6528131  78.7599468  16.4987063
  97.5973941  78.7830114  16.6518962  96.5508796  79.0386963  15.5886841
  72.3409475  82.9905033  26.1745071  71.9824899  83.6480427  25.5783629
  71.5727271  82.5337982  26.5172648  32.0421982   9.3451697  20.0975943
  31.7057610   9.5374286  20.9728551  32.4326849  10.1686192  19.8048794
 109.0986198  36.7391801  20.4875016 109.8141450  36.9221902  19.8785985
 108.3351230  36.6040492  19.9262130  24.8277020  37.0039940   8.4952271
  23.9138103  36.7778873   8.3222842  25.2877402  36.7765498   7.6872259
   8.6391634  27.1653843   8.2654440   7.8597957  27.6653767   8.0229080
   8.6743957  27.2248769   9.2201436  85.7679441  25.9546539  88.6191771
  85.4800596  25.8766052  87.7096374  85.6109526  26.8721745  88.8421959
  35.1315737  32.3944426  14.5588219  35.7357121  31.6856956  14.3376279
  35.2132487  32.4914336  15.5075860  19.4167709  14.3385136   9.0814310
  18.7251115  14.8744905   9.4694608  19.0595651  13.4504628   9.0805262
   2.2001752   3.1800485  27.4530029   1.3821620   3.2373852  27.9467630
   2.6870424   3.9649859  27.7041340  91.3786092  96.3156461  50.1326180
  90.6598213  95.8096426  49.7537565  91.6888561  95.7808768  50.8633709
  92.6826752  60.5399895   3.9656737  93.0098058  61.2012482   4.5755535
  93.2416071  60.6287718   3.1936991  34.0008616  59.2312527   3.6894536
  33.8256979  58.6694479   4.4443887  34.0079951  58.6330366   2.9422483
   3.9787647  32.9321194  58.1196213   3.5999700  33.7771797  57.8775072
   4.9002811  33.0025005  57.8704548 109.1515795  77.5648165   3.9141542
 109.2495451  78.4510136   4.2624202 108.4656191  77.1702957   4.4527122
  10.4740238  28.6164093  19.1902423  11.2542641  28.6700249  18.6383510
  10.4499340  27.7054262  19.4830942  13.2205451  11.5221202  17.9230773
  13.2004237  10.9304488  18.6752415  14.0938532  11.9131219  17.9492092
  13.7754440  40.5103111  23.8434458  13.6850739  41.0007668  24.6604633
  13.6973608  39.5928454  24.1049576  50.9158421  21.0369372  25.3702784
  50.1232672  21.3204026  24.9145293  50.6106138  20.3789377  25.9948635
  28.9009690  39.1544604  37.4679518  28.2282424  38.5810518  37.1006989
  29.2747355  39.6019697  36.7088294   1.2851083  68.5377407   0.7505366
   1.8170671  67.8179646   1.0899115   1.1465042  68.3192968  -0.1710396
  86.9525398  51.0493135  19.9889481  87.2524465  51.0811901  19.0805042
  87.5461377  50.4313755  20.4155970   1.3327020  57.3453379   6.7616338
   0.9300529  56.6324663   6.2657309   1.0129803  58.1420517   6.3382471
  35.4486966  65.2090836  35.8583212  35.6734180  64.6774912  35.0946832
  34.4930363  65.2606630  35.8414078  83.0570306  97.3338318   0.3182563
  83.7226261  97.5282955  -0.3415898  82.3687280  97.9803944   0.1619554
  96.7042078  89.8013020  20.9428692  96.2660528  90.5949593  20.6356835
  97.6377989  89.9975872  20.8646989   6.8976808  30.8378792   9.3967295
   6.1565018  30.6139064   9.9595088   7.0333809  31.7743969   9.5407879
  28.5855246  73.3584166  15.6437898  29.4804764  73.3761740  15.3047061
  28.0523944  73.7110138  14.9312735  99.4224907  88.1929302   6.5516466
  99.9063338  88.9049721   6.9701135 100.0957121  87.6677990   6.1189252
  99.3912358  66.0953236  17.6195848  98.5457803  65.6849718  17.8013718
  99.2358370  66.6289520  16.8402731  71.2391773  87.1898182  83.3315127
  70.6156484  86.8574937  82.6857548  70.9508625  86.8088826  84.1609673
  53.2283727  74.7228297  86.6120722  52.3656443  74.4592460  86.2919866
  53.4113303  75.5453142  86.1578934  51.1550513 100.9862670  72.1795206
  50.7052652 101.5545663  72.8047912  51.3074366 101.5433320  71.4161770
  57.3014752  88.7562164  76.2353175  57.9238907  88.0291136  76.2231629
  57.7939144  89.4868096  76.6094439  46.3840580  49.6824265   4.4850186
  45.6297398  49.0977335   4.5583233  46.0568571  50.4348564   3.9920554
  46.8652153  38.4319377   1.9072242  46.1358500  38.4157634   1.2875509
  46.4998198  38.8309240   2.6968607 104.6280516  99.0390015  11.0429406
 105.1840536  99.5089340  11.6644299 103.9822860  99.6871567  10.7616687
 101.9609774  48.3341312   5.8850682 102.8475399  48.1468344   6.1935449
 102.0723201  48.5671997   4.9633765  78.4409872  84.4731315  63.9044802
  78.1853739  85.2142318  63.3552425  77.8464380  84.5138439  64.6535342
  89.6186914  33.6349508  88.2352121  89.8587742  33.4424994  87.3288156
  90.2867165  33.1926653  88.7590017  20.1880932  81.3514233  30.5199218
  19.5712852  81.8587971  29.9923253  21.0413265  81.7433453  30.3338432
  33.1373715  70.0629854  17.0691037  33.0618715  70.9367895  17.4525118
  32.6820970  70.1295710  16.2297451  14.4943655  45.5558777  17.0978785
  13.8771272  45.7057953  16.3817966  14.7649872  46.4332485  17.3684561
  20.0478101  47.3790407   6.8542945  19.8581553  48.3085394   6.7266667
  19.4720674  47.1133757   7.5713539  36.5917468  70.4342699  10.7424152
  36.9672298  70.1882410   9.8970073  37.2227836  71.0503149  11.1145914
   9.3370271  55.8663177  14.6101844   9.2579073  56.5082359  15.3158152
   9.8828077  56.2985516  13.9532745  63.8206736  87.1528824  89.0200471
  64.7550861  86.9492754  88.9794821  63.6035577  87.4579795  88.1391335
  69.1991886  48.1217024  80.0508873  68.4960082  48.4873125  79.5141362
  69.9366742  48.0278704  79.4479434  40.9333901  23.7516321  17.0440173
  39.9964662  23.7884057  17.2365105  41.3038223  24.4992174  17.5132036
 103.0902202  83.0520821  58.6570358 102.9647584  82.9940033  57.7098703
 102.8929050  83.9643669  58.8692808  18.7010062  81.6530514  26.6002941
  18.0104625  81.5969849  25.9398103  19.3786609  82.1926880  26.1930990
  23.3614779  32.2326374   5.8886343  24.2695856  32.5119019   6.0051906
  23.1787109  31.6868114   6.6534233  94.1344250  71.4648056  12.1207941
  93.6292447  72.1821213  11.7380679  93.4789778  70.8060884  12.3503935
  54.8008290  79.8016056  82.2881340  55.3705469  79.5033415  82.9971419
  54.4079021  78.9998134  81.9432156 107.6382516  37.0691705   4.1788200
 108.2566934  37.7228355   4.5051402 108.1847094  36.4289784   3.7230009
   1.6504206  45.6296062   6.5030468   1.8603796  44.7904396   6.9128692
   1.7196639  45.4612017   5.5633253  86.3093344  81.7300137  78.0996721
  86.5278641  80.9924587  78.6693125  86.7280260  81.5201601  77.2648721
  40.4797029  67.5197887   9.5618343  40.7790565  66.6198111   9.6909058
  39.8924518  67.4710178   8.8075197  79.3063227  60.8807047  73.8729744
  78.6197821  61.1976095  74.4598846  78.8731066  60.7907256  73.0241768
  14.4541812  75.6926537  15.0450146  14.6314609  75.5268574  15.9709275
  15.3155613  75.8594799  14.6623576   8.7009823  70.5181456  10.1750815
   9.4464314  70.8900070  10.6465244   8.0900097  70.2542162  10.8630395
   0.8825852  12.5922224  87.2874643   1.0550548  13.3537504  86.7337832
   0.2765108  12.0564100  86.7757905  44.2536116  69.7997713   4.3890271
  44.8964977  70.1418304   5.0102550  44.6926832  69.8466969   3.5397649
   3.7793416  58.4193802  45.3066540   3.6766028  57.4845314  45.1285124
   2.9431847  58.6833572  45.6905699  72.7345821  43.4128878  69.7577422
  72.8159382  42.7338240  69.0880434  72.0467693  43.0925772  70.3413062
   6.6245008  64.2170238  13.5872948   7.5621861  64.0939951  13.7350869
   6.2407327  64.2088938  14.4641578  95.5135442  60.0257683  35.3118801
  95.0547923  59.8431444  34.4918633  96.0013891  60.8310175  35.1392007
  41.8024492  51.0829830  27.7549171  42.3417330  51.8647194  27.8744793
  41.9740486  50.8091354  26.8539214  11.7266679  66.8911123  10.7321405
  11.1126626  66.1854982  10.9354603  11.2970567  67.3895550  10.0370002
  37.2749233  86.8000031  29.1637874  37.8039145  87.5772762  29.3433213
  37.8872943  86.1796188  28.7683558  40.7459211  71.4121914  22.0965028
  40.4247475  70.7218170  22.6765561  41.5357685  71.0440683  21.7004561
   7.3654562  67.7021217  30.1853538   6.9375640  66.8469715  30.1423025
   6.6600209  68.3123732  30.4002595  87.3418596  22.5957939  59.4310801
  87.8685310  22.0081970  59.9729078  86.5096703  22.1363899  59.3186514
  78.0511584  30.1814005  79.8986612  78.1281295  29.7007296  80.7228379
  77.6843443  29.5458147  79.2840736  98.1338991  87.0853710  40.1618433
  98.2389535  87.7377892  40.8543348  98.7563075  86.3941002  40.3876257
  18.9487815  72.5841618  41.1564112  19.8747957  72.4938250  40.9315395
  18.7052059  71.7310190  41.5156412  23.9869285  92.9439259  12.4774027
  23.9864302  93.8969040  12.5671744  24.7328615  92.7574539  11.9072783
  15.1285136  37.7065372   4.7930244  15.4532409  38.0374479   5.6304497
  14.3274069  38.2053256   4.6328029  93.0177892  92.5971317   0.5851492
  92.5474204  92.0143795   1.1812945  93.7824286  92.0915127   0.3096338
  19.8345613  32.8533506  10.0805032  19.0557170  32.7366734  10.6245804
  20.2909851  32.0135808  10.1324093  92.3946096  49.9601269   3.1856978
  93.2161010  49.4690800   3.2015717  92.6417423  50.8303308   2.8727943
  35.6497407  77.5197029  32.2879004  36.4859247  77.7921581  31.9100142
  35.5368686  76.6160011  31.9932580  10.6956112  24.1521358  24.6699858
  10.8600521  25.0013232  25.0799537  11.5631390  23.8360071  24.4176126
  12.4612594  40.6625414  10.3611410  12.8538346  39.7955084  10.4629624
  13.1252873  41.1732292   9.8980027  94.8645164  30.1750064   9.8646927
  95.4107774  30.9513021   9.9879664  94.2200185  30.2210546  10.5709040
  10.6914568  51.2776566  12.3086643  10.4917181  52.1073103  11.8750656
  11.4225245  51.4820623  12.8917515   0.3955899  51.9159698  20.5981970
   1.0591194  52.3152208  20.0355625   0.8891186  51.5684080  21.3410735
  43.2204771  54.6104288   7.7722234  43.3757067  55.5452824   7.9070675
  42.2671509  54.5254707   7.7584642   7.7344447  15.9913421  19.6182907
   7.8145355  15.0638163  19.8408055   6.7912090  16.1424911  19.5575249
  17.4569988  89.0009689   3.4075463  17.6389909  89.4561481   2.5853986
  16.5029836  88.9278412   3.4347311  83.0270065  64.8846388   5.9930688
  83.3585871  64.5795202   6.8375736  82.1144713  64.5961857   5.9756696
   9.1837347  62.2910357  19.3509495   8.8425052  62.6882553  18.5496950
   9.7284943  61.5656662  19.0454805  27.2244692  30.0609636  16.8367279
  27.1871281  30.2975106  15.9099686  27.5209212  29.1508317  16.8398595
  42.6968816 102.4133214  85.6716027  41.8092993 102.5500640  85.3403466
  42.5821242 102.2661646  86.6104357  91.4107813  92.6989937  37.5148606
  91.9723107  91.9253254  37.4663615  91.8596317  93.2827663  38.1263971
  92.5570024  72.9611111  32.2839117  92.5687350  73.9157343  32.2147083
  91.9594957  72.6781178  31.5917182   5.5033165  75.9800243   9.2569792
   5.6052691  75.3324509   9.9544615   5.9234244  75.5800819   8.4955436
  91.2166716   7.7308679  15.1075006  91.9562174   7.2488523  15.4775870
  91.2290109   7.5103348  14.1761339  28.0962777  40.3781891   7.4993974
  28.9238095  40.4147863   7.0197272  28.3490825  40.1623440   8.3970237
  18.6684726  18.2604040  24.1028953  19.4600390  17.7224363  24.0873885
  18.6652194  18.7061895  23.2558441  59.9261215  21.8896982  85.3693418
  60.2409425  20.9890577  85.4465442  60.3134360  22.2098038  84.5546307
 106.5607856  47.6403522   5.1817650 106.8881321  46.9315910   4.6279278
 107.1081371  47.6036692   5.9661710  22.1269917  34.7443318  29.0677047
  21.9515085  33.9750624  28.5258007  21.4008904  35.3394604  28.8810754
  23.0984712  41.2620020  31.7886353  22.2563553  41.6870642  31.9511104
  23.2044744  41.2960482  30.8379340   0.1808728  87.4007416   9.5449281
   0.9683897  87.9429245   9.5905501   0.0939364  87.0302677  10.4232347
  95.1254154  49.5183372  21.9624901  94.4937552  49.2756367  21.2854862
  95.1877214  50.4715443  21.9012761 108.4828367  79.2777157  35.0611520
 107.7451114  79.8875332  35.0717139 109.0133193  79.5304251  35.8167696
   6.5365672  53.4235001   5.0986952   5.9945130  52.8128958   4.5991227
   6.2096161  54.2892647   4.8541820  81.3429990  22.6540157  85.1215272
  80.7184269  23.3793614  85.1175253  81.3651910  22.3620817  86.0328524
  13.6093879  97.1402168  10.3894556  12.8152776  97.5403690  10.0352061
  14.1198468  96.8966579   9.6172243 100.4568238  26.4086676   8.6979246
 100.3823132  26.1450577   7.7807605  99.7075994  25.9958315   9.1274142
  32.8561211  71.1974669  35.9628677  33.7297273  70.8454943  35.7921100
  32.7550435  71.1370945  36.9127989  10.9159148  48.9134741   0.8058572
  10.5606079  48.1296015   0.3868892  10.6192195  48.8550234   1.7140351
 105.0710208  94.2524719  20.8973360 105.1629911  93.4631824  21.4309955
 105.2427955  93.9581680  20.0028467  10.2579236  43.8991261  28.6542296
   9.8771757  44.0008259  27.7819228   9.5556802  44.1528559  29.2531514
   2.0242698  96.6963577  57.3607254   1.6881487  97.4974537  56.9588614
   1.3392675  96.4304924  57.9741764  83.9431204  61.7302084  18.3830857
  84.3944515  62.5607204  18.5340166  84.5657123  61.0632277  18.6724794
 107.0539060  65.6984758  37.7011108 106.1168234  65.5695581  37.8477001
 107.4093279  65.8821058  38.5706997  69.4624134   3.8988659  65.2259748
  69.8106023   3.6366770  66.0781805  70.1006504   4.5280287  64.8897569
   5.6179988  41.0524702  47.5843477   5.4016751  41.6694069  48.2835102
   5.8580613  40.2466393  48.0417728  63.0869832   5.7287142  84.7758664
  62.2457566   6.1012766  85.0399985  63.3816239   6.2881300  84.0572094
  75.0422726  40.9196302  87.8353919  75.7999431  40.8405706  88.4149757
  74.6361559  41.7499849  88.0839943  68.8954083  80.5038746  70.5264943
  68.8616863  80.5439457  71.4822607  68.5114161  79.6545585  70.3086822
  97.4104096  35.9381843  31.2391257  98.2650114  35.5716252  31.4661074
  96.7860151  35.4262114  31.7531753  -0.0432355  59.4629145  11.3072717
  -0.6125227  60.1747179  11.5996397   0.7810916  59.6095657  11.7711794
 101.3632507  77.7761841  24.9652386 100.4120351  77.6728153  24.9381304
 101.6358734  77.2825432  25.7386875  39.0147567  77.0507956   4.2109573
  38.2941747  77.4563169   3.7287295  38.8853621  77.3324490   5.1165843
  95.9878517  26.4917040  55.0597095  96.4843370  25.6734872  55.0437784
  96.1456312  26.8843508  54.2011213   2.7788940   9.0484047  32.7096510
   2.4569966   9.0503818  33.6110997   3.2409468   9.8817289  32.6184916
  97.5879588  26.4849016  72.8733961  97.9213705  25.7824728  72.3151283
  98.3428516  26.7533466  73.3971362  98.3082976  34.7960016  53.3565252
  97.6448979  35.4849264  53.3174746  98.0764284  34.1995833  52.6446574
 101.9231672  51.4128351  21.4129949 102.5568612  50.8827400  20.9296060
 101.2738193  51.6670132  20.7572722 100.1263226  53.1139040   8.1785339
  99.4524945  52.5905418   8.6124426 100.5559803  52.5026846   7.5801712
 100.6701817   5.3875515  49.2115800 100.2298918   5.1516268  48.3950512
 100.3766551   4.7288010  49.8409669   4.4960123  30.6395483  23.6621165
   4.8604789  31.4472389  23.3001328   5.2574211  30.0789905  23.8113260
  30.2285075  80.6639004  27.3124170  30.9434509  80.1483250  27.6855969
  30.3645897  81.5465641  27.6568341  74.4677368 101.8158539  85.1476737
  75.1881734 101.6653737  85.7596849  74.0563742 102.6233443  85.4558550
  80.4583051   8.0478212  57.5608771  81.1570575   7.3973105  57.4915426
  80.9056058   8.8897917  57.4757736  16.4710701  58.8350964  33.0344939
  17.1026266  59.5500469  33.1133246  16.1612892  58.8877726  32.1303415
  38.9943004  22.4527550  35.8580399  38.0647087  22.6740432  35.8021545
  39.0844703  22.0084190  36.7010498  89.4455124  70.9363079  25.4276729
  88.8016809  71.6311884  25.2903509  89.6308995  70.6045389  24.5491552
  15.0316262  29.4949317   0.0679942  14.9859250  30.3192806  -0.4163509
  14.1620791  29.3964958   0.4558464  90.9567180   8.5753414  58.3344047
  90.4673483   7.8351662  58.6934225  91.8545082   8.2529995  58.2550304
  69.2330567  77.3132094  83.7756168  68.9142862  77.8787478  84.4790246
  69.3258659  76.4524087  84.1838299  13.5362422  92.6309013  25.0452590
  14.4396627  92.7623081  24.7575188  13.6052108  92.4743080  25.9870410
   6.2407386  43.5629845  33.7027693   6.2235361  42.9494095  34.4372487
   7.1158671  43.9495134  33.7340260   9.3430090  66.8796349   9.1510040
   9.5044857  67.0923567   8.2318151   8.3918005  66.7926407   9.2131865
  48.7485388  91.3415798  87.0242956  49.6769956  91.2025460  86.8375653
  48.3024851  91.1033543  86.2115736  60.7151476  99.4646271  71.6833167
  60.2087465  99.8864516  72.3774748  61.5232292  99.1841992  72.1129625
  15.6562248  71.5245827  80.9638284  15.3322283  72.0049795  81.7257188
  16.1381594  70.7850941  81.3341336 100.2217282  88.5354233  14.1617715
 100.8282049  89.2745876  14.2072070 100.1057596  88.2644367  15.0724566
 107.6301285  58.1183004   4.2522022 107.8462682  59.0435219   4.1361016
 106.9650478  57.9423666   3.5866606 105.0940759  62.0588493  10.2150643
 104.9625270  61.2429953   9.7320426 104.2507593  62.5083351  10.1601708
  23.5425452  98.5355719  78.7891714  23.4811596  99.3838843  78.3500438
  22.8700796  98.5688552  79.4695501  18.0686831  73.6609077  11.2823260
  18.7615395  74.3207502  11.3104105  17.2974193  74.1364479  10.9737062
   9.0342742  44.7193384  11.7153859   9.7806406  45.3082323  11.8266153
   8.7884343  44.4731760  12.6071250  28.4627056   7.4317765  23.0566287
  28.5489917   6.7110175  22.4326968  29.1391087   7.2630274  23.7125540
  81.3925978  31.7040083  86.7395634  80.7679870  32.4270269  86.6817714
  81.4052405  31.3275072  85.8596103  79.3958152  62.1884584  25.6559777
  78.9961017  61.3331795  25.8139610  80.1380838  62.0033455  25.0806499
  54.7626928 100.1024779  72.6661973  53.8339535  99.9350890  72.8263693
  55.1938656  99.2717703  72.8668098  14.8478317  65.2028799  23.1061602
  13.9564109  64.9097729  23.2950830  14.9075425  66.0665941  23.5143995
  83.0192938   6.3253281  87.6319236  83.5334554   5.5568192  87.8794377
  83.1934681   6.4392683  86.6976251 105.7749085  68.2996988  14.1077232
 105.2935855  68.3288288  14.9345922 105.3843836  68.9952421  13.5786295
 102.5543518  50.8018017  17.4850428 102.4129124  50.9683752  16.5531194
 103.0318857  49.9726152  17.5103652  90.7463957  60.2901888  34.7652388
  90.1156915  60.5059958  35.4521704  90.3984619  60.7119226  33.9795470
  21.1195540  40.6004477   7.4947512  20.5002499  41.3252640   7.4091178
  20.7917213  40.0916481   8.2362890  46.4706564  73.2616186  57.9116821
  46.5920496  72.9386568  57.0188236  45.5373430  73.1396484  58.0856800
  24.6005940  62.8027391  29.4996357  23.8721991  63.3341646  29.1782928
  24.2361116  61.9214773  29.5818567  16.1191857  57.9112768  27.2956586
  17.0301926  57.9658747  27.0070124  15.6349552  57.6503849  26.5122771
   8.2218540  25.2421331  45.2051306   8.4285915  26.1047125  44.8453426
   7.5092798  24.9175048  44.6545982  96.6851844  45.0465107   1.9935590
  96.1444045  45.0407934   1.2037760  97.5833358  44.9798870   1.6693434
  23.7363172  80.0106716  19.4164300  23.5505652  79.2877674  20.0157094
  24.0441418  80.7182503  19.9828291  22.8189874  65.3262424  61.4005184
  23.5821795  64.9526262  60.9598589  22.4872112  64.6153212  61.9489241
  17.5320840  91.0781670  11.1496675  16.8858075  91.1484337  10.4470861
  17.6755810  91.9807434  11.4342535  38.6543965  38.6960053   1.3746449
  37.8247046  39.1691232   1.4378993  38.7406588  38.4870625   0.4445199
 104.0026809  53.9216661  18.7127388 104.2504526  53.7010813  17.8148615
 103.8406445  53.0761147  19.1310906  80.6298717  25.2625486  71.3178484
  80.6540122  24.7276613  70.5244105  80.5320688  26.1597607  70.9989731
  80.3578969  23.3561871  79.3901663  80.7419690  23.9333460  78.7301569
  79.7102323  22.8405163  78.9097016 102.9219634  28.6707687   7.6814318
 103.7445123  28.3032370   8.0047965 102.5868912  28.0107141   7.0745659
   6.0856813  53.3138084   8.0400652   6.1145741  53.3225489   7.0833415
   5.7440436  54.1759348   8.2772541   9.7120118  46.2688971   0.1569887
   9.4834453  46.2444019   1.0861760  10.5164135  45.7538509   0.0945494
  92.5263611  97.1084221  63.8202183  92.6672379  97.9883536  64.1696637
  93.3275572  96.6326436  64.0392010  54.4319609 100.7513674  87.1686120
  54.0195576 100.3924855  87.9543349  55.3708771 100.6434640  87.3203540
  49.9073172  79.6973276  22.8352523  49.1816473  80.1889706  23.2198524
  49.6601868  79.5842123  21.9174480  22.2026944  66.4759254  38.4044862
  22.2230291  66.6003704  39.3533444  21.9307780  65.5655718  38.2880902
  82.0075906  55.0932693  11.6023099  82.8597177  55.3576326  11.2555778
  81.4627708  54.9639702  10.8259821   0.6422538  43.3072710  28.6357856
   0.9217729  43.8174868  27.8756666   0.9129438  43.8320255  29.3891716
  96.0568823  28.7484741  18.3007741  96.4582039  28.6348104  19.1623163
  96.6751469  29.2980576  17.8191769  21.1585355  46.7629719  21.4219213
  20.8555150  47.6705885  21.4472795  20.3763390  46.2439966  21.6091824
 106.2352182  44.2109776  35.2231956 106.5856893  43.5030270  35.7637525
 105.7184098  43.7660789  34.5514774  94.9652852  38.5059142   6.5846610
  95.1740993  37.5863814   6.4200664  95.7863547  38.9706230   6.4230371
  16.0097766  91.2638378  24.7988749  16.5222049  90.6582451  24.2632413
  15.1516485  90.8470535  24.8771715   6.5462160  60.9808922  25.8292890
   6.9040495  61.6905499  26.3627458   6.4143038  60.2607870  26.4459586
  13.2174873  61.2995148  14.9970579  13.5879529  62.1510458  14.7649348
  12.5340819  61.1495399  14.3438387 100.6430198  43.3066368  30.6978059
 101.5423591  43.3106375  30.3700805 100.1085414  43.5212326  29.9332714
  66.7648443   0.4711554  84.6990968  67.2262665   1.1033699  84.1480725
  66.5854689   0.9465000  85.5103330   6.2937242  52.8222942   2.0286705
   5.9280461  53.6998367   2.1401632   5.5446219  52.2356224   2.1330489
  32.8295135  68.2306528  37.2289515  32.2542930  68.0168486  37.9635549
  32.9121304  67.4102592  36.7427802   0.8714153  32.0642397  88.8284083
  -0.0397276  31.9078085  88.5802621   1.2323023  31.1904070  88.9780781
  65.6855059  58.2480288   5.6381077  66.3572264  58.1595850   4.9619427
  65.9963989  57.6988935   6.3578486  10.6834066  46.9300747  11.6028130
  10.2044415  46.9522142  12.4312651  10.0928402  47.3442316  10.9735787
  34.0614653  61.9284964   3.0537829  33.9605927  61.0638142   3.4517506
  34.4870305  61.7573214   2.2136490  28.9769840  53.8860750  13.4114170
  28.4211063  53.2525539  12.9576778  29.8298931  53.8053560  12.9844928
  37.8538322  73.4105730  25.4893184  37.8711891  72.4828053  25.2544117
  37.0844531  73.7576103  25.0378156  22.7527380  51.5509987  34.6482873
  23.3595443  51.1251450  34.0427542  22.0461011  51.8758774  34.0902996
  33.5362411  88.4975815  19.6463931  33.7842870  87.7664280  19.0806007
  33.7638712  89.2786407  19.1420531  27.7460051  59.2156029  29.6358180
  27.4181247  60.0977802  29.8104334  27.4525666  58.6982155  30.3857780
 102.7098722  48.3785629  14.1812515 103.2480742  48.4495878  13.3928823
 102.3624195  49.2604971  14.3143070  91.9286836  94.8744297   8.3741671
  91.3267041  94.2344666   8.7540448  91.4264740  95.6888390   8.3468127
  13.5047674  67.7114201  73.5629606  14.2035139  68.3551264  73.4462309
  12.8871083  67.8974915  72.8557777   0.6174728  68.7766266  36.7501330
  -0.3165897  68.9734507  36.6792941   0.6487612  67.8866673  37.1011686
  15.1911998  47.8456163  14.6570790  15.0139022  48.2832766  13.8244617
  16.1462629  47.8206062  14.7159111   3.4898183  78.6713743  25.3533673
   3.7329453  77.7501011  25.2618313   2.5729263  78.6510229  25.6274581
  17.7386451  54.2736864  26.7151093  18.3461165  53.5382223  26.7944884
  17.0739377  54.1085529  27.3837852  16.5876102  31.8027925  39.5012212
  17.0166743  31.5676069  38.6785269  17.2792220  32.2072649  40.0249624
  60.4888916  49.4499969   5.5806637  60.6031418  50.4003477   5.5837065
  60.0201893  49.2677116   4.7662175  23.4288383 101.1287212  19.1229153
  23.2210588 100.4757214  18.4545982  22.9154062 101.8974209  18.8744950
  62.0236111  68.2354784  29.7401929  62.4194288  67.3689556  29.8334551
  61.6864920  68.4399366  30.6124187  70.1895760  12.8919233  44.1503811
  70.2742862  13.3422388  44.9907732  69.8493479  13.5591615  43.5543346
   0.0326807  90.0009727   3.7981039  -0.5048379  90.5183220   3.1983966
   0.7324740  89.6479702   3.2486394  50.4267263  54.1446877   8.1274033
  50.6078100  54.9640179   7.6668245  49.6760130  54.3450451   8.6864364
 108.4570431  55.1817846  48.7705564 107.7028949  54.8604488  49.2647600
 108.8738469  55.8153248  49.3546247   3.1565064  39.3502283  24.8162127
   3.8828778  38.8313985  24.4706225   2.7598688  38.7915659  25.4846478
  32.7542758  80.1436424   7.2441632  32.6417851  80.0541306   6.2978196
  33.0041552  79.2681122   7.5395328  26.1796213  19.1539595  84.3887301
  25.8249689  19.0442631  85.2710115  27.1055390  18.9262554  84.4727610
  15.4443860  83.2847881  19.7758830  16.1156106  83.3127975  20.4577231
  14.8311079  82.6117229  20.0710249  43.4649229  94.7824955  18.1389308
  44.4004059  94.9824810  18.1722498  43.1996632  94.7239971  19.0567803
  91.3331712  90.0855732  11.3988149  90.7406343  90.1279449  10.6482577
  92.1925236  90.3039360  11.0381699  54.8444700  92.0288658  26.0568547
  55.1650047  91.3970661  26.7005277  54.0083742  92.3299503  26.4125657
  51.2324286 103.0492687   9.7783613  50.9528208 102.5206375   9.0309691
  50.4242039 103.2341003  10.2567399  93.1731381  22.0720360  82.1447782
  92.8395452  22.6184580  81.4331798  94.0543857  22.4067709  82.3108708
  84.4902195  65.0973129  51.3084364  84.4057239  64.6784639  50.4518986
  85.4236044  65.2941084  51.3877869  98.6873927  40.8519671  42.2732012
  99.0931430  41.5874216  42.7322285  98.8041892  41.0550520  41.3451140
  51.7137861  88.0654716  13.6566412  50.9761143  88.4769535  14.1069257
  52.2304058  87.6676273  14.3573964  29.8156047  96.8251038  28.4021902
  30.0750184  96.9021606  29.3203402  30.3722358  97.4536228  27.9424667
  57.8022125  12.9623053  77.9097705  58.4116843  12.4448225  77.3834722
  58.2106128  13.8259718  77.9691272  17.7686238  92.1263599  21.1566353
  18.0960059  91.6885948  20.3708768  16.9424200  91.6837215  21.3507748
  68.8815085  98.6909588  57.6337187  69.3297616  97.8922328  57.9118245
  68.0184642  98.3934125  57.3458688  17.5725102  66.1183167  17.1588421
  16.9644260  65.5551195  17.6376688  17.9688680  65.5419350  16.5054536
  44.9438143  79.0104389  11.1644745  44.9341822  79.6130848  11.9080842
  45.8448696  79.0411663  10.8429337  43.7944269  90.8389378  17.3897529
  43.7123346  90.5286598  18.2915437  44.6842241  91.1877251  17.3365283
  35.4262877  63.0773067  13.8918221  35.4418182  63.6354923  14.6692646
  36.2359166  63.2903719  13.4277797  79.2888759  11.6887964  37.2063804
  79.7511505  11.4101804  36.4158702  79.8038505  12.4242033  37.5383472
  68.3859299   5.8382047  42.9205275  67.6501750   6.2998594  43.3227444
  68.0606245   4.9497903  42.7751589 107.9910020  55.4401541  26.3992333
 108.5882639  56.1142397  26.7234588 107.2167320  55.5179834  26.9566202
  18.3203304 102.6387691  39.7539926  18.9711857 101.9795036  39.5131707
  18.7366974 103.1419659  40.4537535  19.7671735   3.6658317   8.0453295
  19.4328082   2.9392111   7.5195396  20.5889702   3.9108917   7.6200920
   9.1878694  85.4036427   6.0711616   9.4179386  84.6130562   5.5830348
   8.5097754  85.1182270   6.6834998  45.4966640  85.3797245  10.3496718
  45.4467964  84.4342422  10.4904377  44.5995283  85.6884098  10.4765129
  85.5763104  27.7736303  80.3202348  86.3723864  27.5315210  80.7933931
  85.6022301  28.7296888  80.2812956  82.0157756  75.6392622  50.8196306
  81.6837181  76.4206123  51.2617397  81.3928379  74.9502707  51.0508680
  33.5197878  96.0523327  78.8995247  33.0563605  96.4249858  79.6495883
  33.1790701  95.1608285  78.8262825  25.7399464  54.4118214  26.6018057
  26.1479807  54.5092249  25.7414269  24.8825312  54.0279531  26.4181828
  93.7378217  82.4695969  37.8828168  93.5149969  83.0739880  37.1748018
  94.5517231  82.0550251  37.5965786  20.1944804  64.7184896  59.9437761
  20.1712799  63.9983797  60.5739689  21.0920095  65.0479984  59.9895477
  98.6861826  93.5746861  22.8523874  99.0716947  94.3212891  22.3939228
  97.9567648  93.9480591  23.3471346   1.3871456  15.6515762  84.3673094
   1.4058806  14.6997807  84.2674355   2.1317292  15.9612152  83.8516079
   2.4213053   6.2897465  65.4759352   3.1843735   6.4933941  64.9351160
   2.3606969   5.3347036  65.4547136  15.2275968  41.4371252  12.3205149
  14.5184219  41.0700035  12.8482699  15.7557595  41.9365788  12.9432654
  98.3576646  48.8208696  85.4004459  98.9539041  49.4802496  85.0455581
  98.3834615  48.9594194  86.3472147  12.1211421  92.9092503  51.0566235
  12.7824724  93.5556316  50.8095074  12.3231280  92.6962090  51.9676924
  78.4687813  36.5901110  79.9030958  79.2621347  36.0640833  79.8025386
  78.0277177  36.5226194  79.0562551  48.2162905  81.4787579  15.8452690
  47.6659870  80.8284950  15.4087436  48.5794020  82.0031548  15.1315510
   7.9413438  86.2901592  29.8556828   7.2236222  85.7791138  30.2297688
   8.4354120  85.6605339  29.3306065  59.1150331  88.5922718   6.5154457
  58.4305477  89.2173386   6.7542166  58.7533140  87.7385521   6.7532438
   5.5238819  64.9122477  11.2248540   4.7990415  64.3013334  11.0921013
   6.0304588  64.5306826  11.9418049  97.4901284  54.0948582  25.0248289
  97.8166534  53.2235765  25.2495074  96.5405835  53.9877272  24.9689651
  46.4686298  95.5385494   7.2583920  46.5817213  96.1237907   8.0073535
  47.2588205  94.9983501   7.2550845  88.6373161  17.1735967   3.6312765
  88.8275455  17.1079935   4.5670867  87.8287100  16.6745771   3.5156816
  18.5057127  47.6624393  24.6246195  17.9138923  46.9574213  24.8871732
  18.2760286  48.3938694  25.1977539  84.6306684  46.6830847  82.7437084
  85.1916637  45.9259531  82.5755648  83.7989750  46.3059351  83.0305545
 104.6255039   5.3238786  27.0964622 104.8369716   4.6898855  27.7817082
 104.6678756   4.8207105  26.2832832  44.1283989  96.0189152  13.1267786
  44.3400717  95.1327038  13.4201324  43.5451555  95.8906841  12.3787034
  41.7876530  87.5349426  43.0787039  41.1557436  87.8906250  43.7035370
  42.6416206  87.7700424  43.4416056  73.6715626   0.4367078   6.7843556
  74.1734694   0.1170171   6.0346121  73.3684729  -0.3568064   7.2256017
  75.4605597  30.5685827  67.2174351  75.0184224  31.2142679  67.7686493
  76.3673212  30.8720228  67.1733968  25.3908134  38.8482761  27.0380330
  26.2250280  39.2433119  26.7845249  25.0783181  38.4173226  26.2425113
  88.6545136  53.7217352  69.5910900  88.9033701  54.4784090  70.1218920
  87.7669611  53.9200899  69.2925279  29.1509271  49.8615980  15.2092493
  29.1956401  49.4574070  16.0757732  29.9793220  49.6255159  14.7918069
   0.6535137  44.0698195  36.7517972   0.8783203  44.1048670  35.8220315
   1.4293566  44.4082785  37.1987247  26.1485325   1.5234960  39.2019963
  26.2072490   2.0538915  38.4073472  25.4087256   0.9369291  39.0443301
   1.7767322  87.0255184  55.3196764   0.9485790  86.6650200  55.6365967
   2.2891030  86.2588024  55.0630426  43.4901285  89.3804836  31.0712767
  42.5744724  89.2358971  31.3098145  43.5753632  90.3321743  31.0142136
  10.4000403  20.9271071  81.1949174  10.1823164  20.9049961  82.1267651
  10.4668356  21.8589708  80.9866040  32.0797825  72.2347307  15.4273522
  31.6874480  73.0007887  15.0084734  31.5905738  71.4917135  15.0740314
  38.5211110  86.5793610  19.9654400  38.1057310  86.9753075  20.7315445
  38.5394764  85.6424046  20.1603937   2.8928164  37.9362035  45.3177214
   3.6983928  37.6318669  45.7356453   2.6033449  38.6692476  45.8609438
  49.6959876   2.4788011  57.5799656  50.2249335   2.1067728  56.8742418
  49.0175306   1.8232835  57.7418852  81.0532614  42.4277994  84.7746109
  81.9058766  42.0907137  84.4995581  81.0676941  42.3651430  85.7296489
  45.5525017  70.5312490  17.3222303  46.0357952  69.7199726  17.1657360
  44.7706127  70.4535055  16.7755711  36.8636203  82.1832466  43.8958645
  36.6214275  83.1090260  43.9184809  37.2468376  82.0570660  43.0278444
  61.2895552  93.9631184  86.6551854  60.4540745  93.6149558  86.9666149
  61.0479084  94.7023924  86.0972296  12.1739292  68.4398746   7.5448698
  12.8882027  69.0175962   7.8137302  12.1616936  68.5026360   6.5898079
  27.3888779  66.5204573  11.9488096  27.1256161  65.6005239  11.9742382
  27.4335814  66.7822981  12.8684139  78.5302248  34.8020765  83.6550240
  78.6273661  34.1362784  82.9742102  77.7417373  35.2848551  83.4071373
  16.7018700  62.3168039  35.3376079  16.9899774  62.7470779  36.1426449
  17.4971473  61.9233370  34.9785113  97.1840229  22.0839235  87.1194163
  97.8299060  22.6746246  87.5068891  96.4249291  22.1454594  87.6992659
  27.5459003  42.7042961   5.4792958  27.5158525  42.3101425   6.3510597
  27.9581261  42.0380974   4.9293095  13.0438435  37.9453158  25.0177550
  12.9057419  37.2841120  25.6959653  12.5964665  37.5952578  24.2473364
  84.3658712   2.3548004  85.4494719  85.2188971   1.9217560  85.4170476
  83.7523451   1.6581843  85.6830205  19.7889018  98.0785370  53.8102913
  19.0888309  98.3205128  53.2040071  19.8427415  97.1250343  53.7457132
  31.2902188  96.2014771  40.2285624  32.2167826  96.3091469  40.4433155
  31.2252450  95.3089619  39.8888206  39.7838211  94.4426537  60.9041214
  39.1596723  94.6686459  61.5937519  39.2559910  94.4043541  60.1065207
  84.2004074  69.9427462  19.6568465  84.0842212  70.5724287  20.3683472
  84.3655885  69.1098547  20.0987077   3.6279894  16.8804237  83.1369232
   3.8081957  17.5557539  83.7908994   3.1052972  17.3260233  82.4702399
  78.1157013   0.8850834  83.2253401  78.5094693   1.5089247  83.8352595
  78.8144877   0.6856224  82.6023285  43.3616829  53.2295465  25.1573968
  42.4678135  52.8918457  25.1009440  43.4633732  53.7702131  24.3740892
  17.1931589  78.4753704  32.6808214  18.0862010  78.7792540  32.5184512
  16.6572607  79.2666054  32.6261640  61.9480276  88.5542583   6.6906619
  61.1098289  88.7147903   6.2572002  61.7526674  88.6283398   7.6247805
  74.5818698  14.2882654  69.9748855  74.2446130  14.0581581  69.1091244
  74.6730226  15.2408192  69.9510078  14.1010500  14.8026964  86.0143124
  13.2465721  15.0984451  86.3283585  14.0029789  13.8564226  85.9085883
  12.1401095  70.5060005  18.0591023  12.9305375  70.4862022  18.5986066
  12.1191132  71.3919926  17.6974308 107.4779048  38.7514517  78.8799529
 107.8417029  38.2166407  79.5855390 106.5528645  38.8489267  79.1058605
  46.4605904  63.0415726  14.1106737  46.1390781  62.9898643  13.2105684
  46.6230869  62.1317053  14.3596041  41.3997555  50.8078337   8.0405927
  40.9126234  51.5934467   7.7921003  40.7974005  50.3202105   8.6023951
   5.9424901  93.3540821   5.7691592   6.6079342  92.8512096   5.2995461
   5.4511470  92.6980591   6.2635869  85.5497124  14.3993685  76.8138616
  86.3586321  14.0633461  77.1998255  84.8529985  14.0181467  77.3481755
  33.8178396  79.2814827  11.5516877  34.5217443  78.6347294  11.5020955
  34.0304971  79.8083401  12.3220325  66.0742452  27.0983669  83.6541645
  66.1557200  26.1548397  83.7932842  66.9420674  27.4464819  83.8589399
  14.3566014  18.8439295  78.9543812  13.7013222  18.5945294  78.3027391
  14.0181233  19.6535561  79.3367009  50.4257213   5.1131452  56.8633175
  49.7728525   5.6744493  57.2815657  50.0775181   4.2268957  56.9610262
 106.5077950  93.6855888   6.1302334 106.1773555  92.8048420   5.9532523
 106.1752100  93.8953018   7.0029527  43.6737680  70.7722330  24.4986582
  43.5825014  70.8563805  23.5495424  43.2797384  69.9241495  24.7029114
  13.5826230  62.9766560  19.5144618  12.8396368  63.5801268  19.5093369
  13.3271098  62.2770596  18.9132035  62.1547960  12.1221364  34.6942592
  62.2883509  13.0604471  34.5602179  61.2367820  11.9758619  34.4660330
  21.9668937  74.8798847  32.5447035  21.7126441  74.1906929  33.1583810
  22.8816438  74.6897602  32.3365760  28.1035781  91.3858128  10.4083061
  28.0965257  91.8060112  11.2683105  28.7610412  91.8712139   9.9099469
  82.2083946  35.3728602  84.8764919  82.3470702  34.7330401  85.5748008
  83.0293682  35.3719542  84.3843194  16.6558373  90.8873463   5.3795373
  15.9976399  90.5942822   6.0097140  17.1216583  90.0889301   5.1309711
  11.8771769  22.3535940  85.8177094  12.3335625  22.7481052  86.5608786
  11.9022633  21.4129421  85.9931581  78.8186444  63.2562637  57.3116446
  78.8827742  62.6420450  58.0429840  77.8782786  63.3895111  57.1925306
  89.0077342  74.9651861  17.9946232  89.0541090  75.7675695  17.4747562
  88.3919061  74.4072533  17.5195491  39.6804214  69.8605871   3.4500059
  39.7905231  68.9786625   3.8054177  40.5523777  70.2515936   3.5050896
  12.7243257  83.7441444  18.6179209  13.6389422  83.7109852  18.8982940
  12.7015030  83.2260227  17.8133917  79.0695347  90.9889603  20.2895141
  78.4466447  90.9832573  19.5627344  79.8313893  91.4573574  19.9483335
  72.6750230  22.5300897  34.7589254  73.4341453  22.9033292  35.2068782
  71.9927000  22.4987901  35.4295111  26.2488031  69.8930502  22.1445060
  27.1460485  69.8543882  21.8133116  26.0745549  69.0091276  22.4678493
  13.7842631  38.8383651   7.3463464  14.5450068  39.2716980   6.9594055
  14.1365361  38.0374289   7.7344668  19.8366964  92.4114132  25.8584166
  19.4679320  93.0983543  26.4137220  19.2531407  91.6630936  25.9837461
  31.4919305  78.3993340  21.9392300  32.3392010  78.2411194  22.3555636
  31.3557839  77.6373863  21.3760829  25.4573131  86.1822033  15.5827367
  25.6642175  87.0600796  15.9032714  24.7557783  86.3188648  14.9460256
  11.3290107  88.2646942  22.6038766  11.0003090  87.4019814  22.3510575
  12.0131171  88.4576607  21.9627881  14.5283819  23.1159041  81.7280321
  13.9193035  23.5651705  82.3140477  13.9683844  22.5842592  81.1623608
  67.0625063  15.1594755  83.5212569  67.5269630  15.7626698  84.1014932
  67.0604553  15.5989620  82.6709144  17.3643923  31.6822767  15.8493316
  18.1813216  31.4272261  16.2780595  16.8660688  30.8679914  15.7797122
   4.6237624  27.4724722  61.9300652   4.6479803  27.3622775  60.9795380
   3.8834450  28.0592871  62.0843697  91.0949340   2.0095608  72.6468079
  91.9823041   1.9983408  73.0055301  90.6676176   2.7438805  73.0877225
  37.4402475  55.3562212  35.7111859  38.1515121  55.4363203  36.3467312
  37.6439691  56.0078907  35.0403261  40.7486200  51.7179632  32.5527978
  41.1462641  51.5385771  33.4048128  39.8417997  51.9479227  32.7553535
  80.4004658  88.7878513   8.5810661  80.7134808  88.4102058   7.7590942
  80.8577694  88.2934570   9.2612720  10.2208412  76.4263296   9.0765351
   9.9891144  76.4457941  10.0050592  11.0576713  76.8885708   9.0287799
 100.6631079  38.5064337  80.2447038 101.0098066  39.3867132  80.0993143
 100.7548919  38.3654806  81.1870091  97.3922744  18.5338327  82.5461589
  98.2472148  18.1376860  82.7146094  97.5945344  19.4129631  82.2260867
  80.7117462  74.9931955  31.6252351  80.1309490  74.8192644  32.3659539
  81.4673996  75.4354334  32.0120668  33.0568457  74.9366617  29.6785116
  32.4048853  74.2384768  29.7394729  32.9103947  75.3265285  28.8166595
  91.9839882  10.0956453  52.2849131  91.3878130  10.1198209  51.5364313
  92.7550958  10.5816949  51.9927216  88.3293035  30.7212660  66.5082900
  88.5462108  29.8583815  66.1552899  87.6122262  31.0326502  65.9559600
   6.0596491   4.0059206  65.8290665   5.1524903   3.9595959  65.5271571
   6.0027434   4.4019386  66.6986434  83.4300830  38.1183455  88.4963466
  83.2901504  37.2130892  88.7741444  84.1540577  38.4268972  89.0412212
  16.4390469  40.8234596  23.3586335  16.5985584  39.9546933  22.9898143
  15.4976881  40.8412790  23.5311389  43.1383371  49.3629122  29.4966507
  42.6623249  49.9991465  28.9629340  42.5479794  48.6119080  29.5574784
  23.4955120  73.8104296  28.5600376  23.5749555  73.2319307  27.8015757
  24.3991876  74.0018559  28.8109541  33.4118366  63.3930922  11.6643071
  33.4894347  64.2038155  11.1613715  33.9772844  63.5279512  12.4247777
  25.6159711  86.1874676  24.7416568  26.0407472  86.6966534  24.0513468
  25.7921791  86.6783619  25.5442834  52.1760654  84.3392467  11.8515575
  51.6377735  84.4845009  12.6296139  51.8053532  84.9246120  11.1911404
  56.0353327  75.6455803  16.9957352  55.1156712  75.8713436  16.8561459
  56.5221357  76.3693380  16.6014934  23.6358571  64.1088533  11.1195242
  23.7859297  63.9582729  10.1862323  22.9077125  64.7295189  11.1479461
  30.4198575  52.3962164  48.2820749  31.2722468  52.4317837  48.7161255
  29.7849226  52.4584627  48.9956713   8.6549568  71.8968868   2.8236192
   9.1534710  72.7054405   2.7054858   8.5877210  71.7934847   3.7728393
  39.6851873  76.1390781  10.1911402  39.8797679  75.6041813  10.9607208
  40.5407619  76.3168716   9.8004878  19.1612184  46.7782784  37.2564936
  18.9363778  46.4800978  36.3751507  18.4039521  46.5388966  37.7907944
  56.7965889  85.0744534  17.8432560  56.2747049  85.8764648  17.8177643
  57.6748419  85.3678036  18.0858362  17.1543086  26.1501789  26.2952495
  18.0392122  26.3761044  26.0086584  16.6367400  26.1412740  25.4900932
 107.7238789  59.3215391  86.7322977 108.1708565  59.6949598  87.4919020
 107.5175705  60.0762484  86.1808629  18.9653814  57.6944447  15.2402771
  18.6376989  57.7559376  16.1375368  19.8756969  57.9847956  15.2973175
  91.3737085  69.8273871  83.1125139  92.0021942  69.9958822  82.4104844
  90.8544865  69.0878317  82.7967505   4.7770569  50.1058006   6.7510557
   4.5884752  49.4852877   6.0470426   5.3981054  49.6457958   7.3157912
  42.0023775  59.3949318   9.3209702  42.2029543  58.6838198   9.9295133
  42.4902296  60.1453209   9.6602982  64.9553537  57.0317125  37.7377868
  64.0145588  56.9598246  37.5766206  65.1200533  56.4327431  38.4660292
  77.6510334  82.5360489  11.9387615  76.9387770  82.0341110  12.3349655
  77.4063206  82.6120758  11.0165000  39.3020463  91.7512512  29.9690461
  38.6097860  92.2521114  29.5376039  39.8205304  91.3905716  29.2497969
  99.1331687  20.2583000  86.7349723  99.4866624  20.2944443  87.6237743
  98.3653154  20.8293030  86.7591950   1.2352480  64.8586702   2.7214760
   1.3615628  64.2494154   3.4488589   1.8008062  64.5222950   2.0263302
  10.7268429  83.6277199  14.8104799  10.9577644  84.5386124  14.9926603
   9.7784853  83.6422539  14.6814895 106.4167824  59.3515894  73.8159888
 106.1515584  59.4573996  74.7296028 106.1679234  60.1756403  73.3973675
 105.9925405  49.3697500   9.6492678 106.2697415  50.1902485  10.0569034
 106.5919201  48.7123394  10.0025201  92.7741113  28.1724236  56.7504017
  93.2865324  28.0785820  57.5534265  93.3477750  28.6550543  56.1552422
  22.0594954  79.4321251   4.7064057  21.6213918  78.5849142   4.7872338
  21.7175388  79.9491501   5.4357773  46.1203055   7.5012125  39.6007156
  47.0101355   7.4040903  39.9398351  45.7657133   6.6121210  39.6004581
  25.0058293  78.4513998  31.9839215  24.5712972  78.5605001  31.1380434
  25.7769585  77.9184675  31.7900848  30.8420300  88.1283283   9.5555604
  30.1746869  88.6366177  10.0165689  30.3450108  87.5018978   9.0294629
  94.3200709  82.4608135  56.0789251  94.5579959  82.6118374  55.1641512
  94.8759474  81.7316341  56.3537455   4.5475212  90.3674698   9.3713892
   4.7372842  89.5176125   9.7688317   3.8938999  90.7614708   9.9491227
  89.3444515 101.8161774  41.3024855  89.0816058 101.9027138  40.3861570
  89.5911945 102.7027988  41.5656328 105.1647661  59.4328356   9.0558755
 105.6987084  59.9000311   8.4133309 105.7110373  58.6966753   9.3313515
  28.1242180  82.0422077  14.9377966  28.1582785  81.1555576  15.2968645
  27.1970987  82.2781277  14.9698079  79.4240736   1.4639390  12.1705830
  79.6580004   2.3587144  11.9238532  78.7955831   1.1880601  11.5034080
  57.4995375  71.4982653  14.3681848  58.3317566  71.0963964  14.1189086
  57.6207972  72.4307680  14.1893947  65.2442168  26.0925878   7.6338458
  65.6345581  26.7791761   8.1746447  64.5491623  26.5365232   7.1479905
  79.4348406   4.4870199   3.2240936  80.1081442   4.6577371   3.8826948
  79.1321443   5.3559125   2.9602247  58.4525802  19.0830776  86.7997620
  58.8863399  19.4012568  87.5914978  59.0739384  19.2678997  86.0955005
  38.4597015  81.1612415  41.9867039  38.6543632  80.4979324  41.3246107
  39.3183661  81.4635372  42.2825813  67.7650450   4.3681158   0.8161531
  68.0150865   4.1852964   1.7218502  67.8052996   3.5169614   0.3800964
  38.6196352  45.9589407  85.8329152  39.4582726  45.9653780  86.2942995
  38.7388874  46.5756723  85.1106601  38.7967610  83.9768982  25.3467464
  38.8175130  84.2312145  26.2693119  38.0613065  84.4673347  24.9795890
  33.1667479   2.3498357  30.9505653  33.2766931   3.2610239  30.6787395
  34.0548821   1.9928945  30.9566808 101.3441815  37.6672670  88.2455495
 101.8150606  38.4906885  88.1171898 101.5383663  37.1553919  87.4603652
  30.1922894  78.4781599   9.5719457  30.2827477  77.5633669   9.8387831
  29.9616408  78.4352732   8.6439401  53.9185570   8.3192838  57.3901558
  53.2239162   8.1703390  56.7486572  53.6537515   9.1163934  57.8492069
  27.6825500  99.6919250  20.5879593  27.6334071 100.5238819  21.0587764
  27.5237584  99.9246788  19.6731663  71.1682938   4.1766942  17.3560810
  71.4488434   4.3720830  18.2501447  71.9760655   3.9483751  16.8960774
  13.8524354  93.6145306  35.3849649  13.4492826  94.4822979  35.4107571
  13.5506082  93.1863022  36.1860585  46.8494558  92.7313137  19.6171486
  47.4626160  92.0239830  19.8170090  46.1145449  92.5867748  20.2131724
  61.1312841   2.7195180   3.9943612  60.7381772   1.9315732   4.3696406
  61.7578362   3.0129446   4.6558502  24.3355013  57.7484057  75.9036546
  24.5043255  57.8459379  76.8407874  24.6080042  56.8530008  75.7031100
   9.5400572  99.9396515  49.9107695   9.5659810 100.8789444  50.0932169
   8.7633896  99.6269035  50.3746748  94.6406673   3.7068666  38.5993767
  95.3898500   3.7812723  39.1904950  94.2935680   4.5968927  38.5394192
  70.6455277  22.4080003  36.3979101  70.5805849  21.4677442  36.2307835
  69.9200701  22.5961030  36.9933605  27.5306916  97.6000118  17.9835641
  28.4357643  97.6421356  17.6748574  27.1784711  98.4735107  17.8127730
  23.5759807  59.9952459  20.1655054  23.5908580  60.6113577  19.4331014
  22.6760244  60.0302267  20.4896760  33.6517644  90.3466320  24.0911937
  33.1930804  90.6473446  24.8756742  33.0946112  90.6277847  23.3654094
  31.3911533  93.5401535  31.1059785  31.3835979  92.5853729  31.1736083
  30.4724121  93.7788105  30.9827304  33.4808493  66.5146351  14.4496751
  32.5373077  66.3984776  14.5613372  33.8535619  65.6568956  14.6536374
  70.5024670  13.1930650  12.4331701  70.9903287  13.5393346  11.6859627
  70.9203552  13.5906232  13.1970739  42.2131650   2.2458089  61.3357162
  41.7917936   2.7754415  62.0125961  41.8660425   2.5890459  60.5123520
  32.7534032  98.0037117  34.5650482  33.6216712  98.4036827  34.6136713
  32.7733278  97.4850368  33.7608051  46.6525793  78.7418699  64.5231342
  46.5940475  79.3144321  65.2879763  45.7667923  78.7354374  64.1604137
  48.2384468  10.7335732  86.7290922  48.3448006  11.6847202  86.7135927
  47.3255421  10.5987570  86.9833696  55.5675184   1.6991914   7.3122174
  55.9828089   2.1274007   8.0608177  54.6323680   1.8669237   7.4287987
  46.1031936  12.8419984  24.6922731  46.0166417  13.7725271  24.8993063
  45.2019011  12.5279916  24.6194482  35.7007670  97.9751301  55.1976395
  35.0637484  98.4622288  55.7203007  36.1882019  98.6495399  54.7245598
   0.6296985  84.1273022  14.4129121  -0.1867710  83.6292076  14.4517255
   1.2273028  83.5692215  13.9152718  36.2472844 102.2153568  24.7675300
  36.1830258 101.7520428  25.6026602  35.8219528 101.6336060  24.1375375
   7.3074032  39.1839048  78.0714564   6.4592386  38.7406180  78.0526953
   7.1237255  40.0661966  77.7488761 100.9042619  15.7722963  23.0307555
 101.0088705  14.9231542  22.6015258  99.9951910  15.7788480  23.3303809
  75.2484226  58.4067678  30.8843422  75.4102373  57.6383543  30.3369951
  74.6674347  58.9569712  30.3590178  30.6575108  83.8043976  44.1572714
  31.5687156  83.7170601  44.4371128  30.2109027  83.0595684  44.5597601
  46.2027407  84.9475574  36.8528914  46.0017824  85.7749462  37.2902322
  45.3783989  84.4613361  36.8697572  88.6820577   2.2748388  18.0147672
  87.8555511   2.7576555  18.0177295  88.4497188   1.4003576  18.3270752
  90.8982372  91.1593533   1.8478811  90.9226608  90.2174759   2.0167398
  90.0050068  91.3255882   1.5466517  51.9279003  96.2839508  18.9013338
  51.5448523  96.7754745  19.6279109  51.4205074  96.5537071  18.1358182
  21.7536761  75.8588430  75.1462333  22.3376967  76.5293905  74.7919505
  22.2527052  75.4584715  75.8582013  56.1224985  75.8197737   9.8786479
  55.9223080  75.3805685   9.0520549  55.4989100  75.4498625  10.5035782
 107.1026784  84.4514656   4.8854151 106.5878637  84.2944145   5.6769544
 107.9967268  84.5791531   5.2025974  26.1673189  12.6746389  86.8431726
  26.7994429  12.7733109  86.1311923  26.5517403  13.1592629  87.5736463
  71.8098623  42.6231882  84.9202036  72.1248505  43.1500170  85.6546839
  70.8586223  42.7277968  84.9409764  44.9142885  88.7515831  12.8860974
  44.0867853  88.2740784  12.9448891  45.2269030  88.8011742  13.7894499
  21.5539908  74.2127323  38.9157367  21.6396308  74.9825191  39.4781637
  21.6760659  73.4696293  39.5066047  59.8616766   1.2443365   6.0730416
  59.1438888   1.6263498   5.5679864  59.4288777   0.7654775   6.7798704
  33.1290627  73.1300116   8.4410715  32.2938466  73.2992697   8.0051833
  33.7814093  73.5491037   7.8797925  26.2292767  68.7566519  37.3640370
  25.8604908  67.9563141  36.9902921  25.5203199  69.3971109  37.3055267
  29.4166851  66.2391138  41.8742704  30.1585507  66.0809040  42.4580812
  29.4137073  67.1871662  41.7422724  43.4489965  61.0198498  52.5085115
  44.0854883  61.3107681  53.1615639  43.9787865  60.7777596  51.7489433
  89.1066256  36.6970274  89.2367788  89.7107365  36.9093725  88.5253095
  88.8810518  35.7779429  89.0931598  61.9742680  82.3715401  42.3257685
  62.4968863  83.1629372  42.1961546  61.3844585  82.5895405  43.0474567
 106.0723407  95.2748299  30.0025964 106.9963143  95.1925087  30.2386642
 105.6852547  95.7751656  30.7209682  79.5514988  19.4727338   7.1809113
  79.7555326  19.9974359   7.9550469  78.8995765  18.8411153   7.4846947
  24.7360444  87.2982979  43.3215094  25.3371406  87.9681873  42.9956770
  23.9500308  87.7834702  43.5725546  84.5120119   9.0408720  34.6659541
  83.7629055   9.3755830  34.1729641  84.4391607   9.4575704  35.5246067
  98.1742598  62.7973604  46.9870710  97.9563738  62.8920650  47.9143190
  99.0323628  62.3732281  46.9847775  29.0077877  97.4536610  47.0853662
  29.7732782  97.5039768  46.5128946  28.4901714  98.2271385  46.8616867
  87.5323700   8.0396760  49.8331928  86.8391632   8.1766046  49.1874838
  87.3488878   7.1756376  50.2019930  40.6740904  72.4748516  13.6102521
  41.1596203  72.0222378  12.9205930  40.2817154  71.7717600  14.1278768
  95.3301229   7.3838589  88.1673251  96.2454309   7.6603863  88.1229070
  95.3704348   6.4285538  88.2120972  22.0236230  79.6161556  41.1476707
  22.5221705  80.4023170  41.3704538  22.4427342  78.9166880  41.6489935
  36.7924166  66.3148832  15.2711427  36.3209486  65.5718279  15.6477356
  36.1103010  66.8518400  14.8678756  25.3273058  85.7996941  30.9860945
  25.7732844  85.6021214  31.8096852  24.4181108  85.9604073  31.2386131
   1.3368441  12.2784397  68.7057774   2.2219135  12.0073387  68.9494769
   0.7728816  11.8773958  69.3670981 103.1458726  28.7473700  77.5992505
 103.8563719  28.4965727  78.1896059 102.4689999  29.1015551  78.1759958
  45.5337429  77.0349169  13.5456097  45.1190662  77.4950218  14.2753899
  45.1952410  77.4714565  12.7638912  20.4280497  46.2337038  85.4127191
  20.5528904  45.3285811  85.6980063  20.4502178  46.1887667  84.4568314
  19.2117631  96.9228077  42.3333263  19.7536635  97.3523712  41.6714716
  19.7631931  96.8983746  43.1153488   2.8314111  83.3491516  12.8799915
   3.1543672  82.7620125  12.1964729   3.5914141  83.5049534  13.4406614
  23.9978600  98.5944557  34.0527391  23.3557320  98.4343147  33.3611774
  24.7515488  98.9698792  33.5975051   6.0026681  80.0603962  24.5738935
   5.6522954  80.9017086  24.8665547   5.3592771  79.4167519  24.8705482
  51.3305569  96.7528248   6.6983169  50.9231758  97.5973129   6.5056777
  50.5958319  96.1437702   6.7722011  48.5034657  98.0974102  29.9763942
  48.4246206  99.0414906  30.1132321  47.6097107  97.7668381  30.0667238
  96.7648973  14.2626974  86.8004722  97.2480693  13.8762114  86.0701280
  96.0123029  14.6892712  86.3907515  59.6392463  22.5818265  24.2502928
  58.7663029  22.2665037  24.4843340  59.5095085  23.5041154  24.0294027
  42.4784708  44.7445917   1.1801311  43.4195757  44.5984697   1.2760444
  42.1383381  43.9104605   0.8564511  96.4708399  14.8327554  13.9204144
  95.7163881  15.3496564  13.6378407  96.3867401  14.0064062  13.4446931
  60.7961416  89.3001175  14.8271918  60.7300854  89.0015125  15.7342219
  60.3061676  88.6493683  14.3245149  34.1206455 100.5325890  11.9135284
  33.4941053 100.8526325  12.5625682  34.6417856  99.8820782  12.3841405
  41.2130547  74.3241453  16.2313843  40.8168650  73.6383343  15.6938577
  42.0655107  74.4835281  15.8262324  13.3875060  65.7235479   0.3555699
  13.3539999  66.6486025   0.1118924  14.0955603  65.6704569   0.9974985
  37.9867792  84.7939682  47.9559278  37.7881789  85.3036118  47.1704006
  38.1498671  85.4508877  48.6327553  26.9821669  84.4626066  78.1175594
  26.4682413  84.2628595  78.8999991  27.0537640  85.4171202  78.1152515
  76.9402241   5.9492792  31.4260626  76.3414239   6.0168565  32.1697688
  77.6412987   5.3751386  31.7344403 100.8566625  60.1244354  19.1609657
 100.2703453  60.7907724  19.5193803 100.7770522  60.2207851  18.2119596
  23.6677529  25.3078768  71.1519639  23.0488135  25.0385544  70.4732792
  23.2274843  25.0964377  71.9751828  69.9958706  90.4421902  20.7104588
  70.1095247  89.5567989  21.0560083  70.1733017  90.3582573  19.7735977
 101.2005495   7.8835882  27.4961948 100.8125709   8.4930814  28.1240702
 101.8242477   7.3728193  28.0122757  43.9681292  75.9847450  24.4944739
  44.8185110  76.3829088  24.6803570  43.4802055  76.6666079  24.0327120
  33.1530619  95.2408028  18.1088054  32.7009368  95.5158997  18.9063859
  32.9815888  95.9434319  17.4818039  19.0106237  94.6501637   0.0635915
  18.1101978  94.3588638   0.2071393  19.4851470  93.8534641  -0.1737450
   4.4587168  80.9524250  19.5566821   5.3718567  81.1429691  19.3419790
   3.9533240  81.5489864  19.0044796  52.9848766  99.9259567  35.7506800
  52.5545168 100.7421207  36.0054183  52.5036669  99.2447281  36.2203503
   8.3892900  85.4292488  17.7644026   8.1787294  86.3191509  18.0471981
   7.8170580  85.2750969  17.0127249  18.3831764  71.8757364  86.3321914
  18.4625746  71.2288973  87.0332898  18.5126568  71.3738367  85.5274774
  55.9003687 102.8308010  16.6483808  55.4698658 103.4560490  17.2314513
  56.4230394 102.2802734  17.2314441 100.1943754   5.0713552  29.9524212
  99.7180580   5.8723844  29.7340059 100.3518795   5.1356519  30.8943820
  45.8110809 101.2641048   2.2622873  46.1797905 101.6710377   3.0463088
  46.5728235 101.0422897   1.7267703  37.4995065  74.8050356   4.4491646
  38.1964016  75.4338169   4.2615265  37.0789027  74.6539927   3.6026952
  29.0327621  83.8889599  18.3391130  29.5039606  83.3337307  17.7178860
  29.3824577  83.6410522  19.1949677  39.9055028 102.7577496  44.5678186
  40.1452112 101.8382168  44.6828365  39.0947676 102.7321529  44.0596008
  62.4130129  23.6948408  44.6550369  62.5840997  24.5931066  44.3720531
  61.5791844  23.4686197  44.2429876   7.7023506  96.7973042  31.0254908
   7.4043804  96.1519718  31.6665792   8.6208999  96.5760326  30.8720732
  21.9825100   8.9436830  38.0032635  21.0656475   9.2155660  37.9623842
  21.9832908   8.1922544  38.5962129  27.4390340  77.8339291  33.9344931
  27.0670128  76.9641209  33.7886643  26.6792989  78.4140253  33.9847541
  30.7945919  74.8863316  14.6404111  30.8695030  75.1141357  15.5670869
  29.9770737  75.2965546  14.3582535  65.4794406   1.8649496  60.2619648
  65.7342051   2.6335729  60.7724094  65.0389456   2.2241605  59.4917917
  36.1052012  99.8876476  15.6424117  36.2244868  99.6243763  14.7298920
  35.4481745  99.2805195  15.9829235  24.2871690  74.0292931  31.6286993
  24.5607376  73.1358051  31.4211702  24.2163897  74.4618607  30.7777524
  28.8240229  37.0827688  27.5093555  28.2880609  36.4088644  27.0912266
  28.3648144  37.2819532  28.3252525  63.9232683  66.0144854   9.1569126
  64.6860647  66.1166286   8.5877544  63.7025261  66.9067669   9.4240040
  41.0659456  53.9130020  13.9787292  41.0630798  53.2529783  13.2854807
  41.9905472  54.0235567  14.2003596  84.5622768  33.9815256  86.4353834
  84.7789636  34.0526888  85.5057518  84.8085823  33.0870554  86.6709392
  48.9186357   9.1247095  26.9257760  48.5275899   8.2524312  26.8763494
  48.3588825   9.6698202  26.3728094  38.5257387  77.8515768  15.2137220
  39.0043879  77.5092125  15.9686482  38.4489608  77.1046925  14.6200001
  34.3488169  76.6632366   7.0686686  34.1484046  77.2427559   7.8036678
  33.5412693  76.6394377   6.5553170  94.0322231   3.4367002  12.3047137
  93.2266496   3.3090414  12.8057003  93.8404392   4.1753496  11.7269254
   7.3794581  44.7665045  88.9583164   7.3513771  43.8747427  88.6115997
   7.6841189  44.6634695  89.8598688  17.5842739  73.3131716  70.5632822
  17.4285294  74.0731546  71.1239962  16.9448591  73.4019205  69.8565225
  57.7152776  35.1629747  19.5555043  57.5885772  35.9165205  18.9790022
  57.2748803  34.4412912  19.1066623  36.6287112  78.2406712  23.7477636
  36.8280697  78.1355238  22.8174782  37.2042060  77.6153326  24.1882110
 100.7109232  78.0813360  36.9319582 101.2143875  77.5058746  37.5078034
 101.3422097  78.7382221  36.6383386  89.2540859  17.9155553  23.5263920
  89.6525692  18.1011594  24.3766832  89.9184583  17.4127782  23.0551600
   9.0156484  70.9523201  16.3894689   9.0197742  71.0703993  17.3393500
   8.5643059  70.1192141  16.2536323  10.5575454  96.5265179  19.4839144
  10.6763113  95.5889797  19.6360767  10.1036513  96.8404865  20.2659845
  58.4475613  81.1764622  43.1772423  59.0181112  81.3835526  43.9173889
  58.9021254  81.5373802  42.4161005  68.0749940   6.8385995  21.2749982
  68.7790583   7.4341787  21.0184669  68.5038852   6.1840929  21.8262792
  19.0395069  62.9802752  43.9067221  19.5603359  63.7630415  43.7271547
  18.1827784  63.1696653  43.5241222  41.0497379  97.3028564  42.5183678
  41.9499493  97.4398994  42.8134489  40.6999683  96.6416168  43.1155729
  28.4056401  60.5546808  33.5619712  27.4733424  60.6624603  33.7502241
  28.8475084  60.8793211  34.3465686 108.8391485  24.0155384  67.2759740
 108.4778442  23.6904070  66.4513652 108.9483895  24.9560234  67.1353118
  49.6673203  99.7978306  34.4853449  50.0110340  99.4511032  35.3086758
  49.2734623  99.0404415  34.0523577  59.9544286   6.4694704  20.0684571
  60.3838252   6.8852533  20.8160973  60.1410412   5.5365289  20.1734734
  26.7906666  65.4695320  41.8526936  27.7248073  65.6454468  41.9652462
  26.5081692  65.1244926  42.6996708  42.0698786  76.9137144  13.5114968
  41.3350821  76.3800621  13.2089710  42.7249908  76.2780190  13.7995017
  28.5717297  60.1456881  22.7394485  28.3297420  60.8487225  23.3422899
  27.9007864  60.1735544  22.0573258  28.7408329  48.4274408  88.7728200
  28.5231615  47.8796026  89.5269642  28.4408642  47.9236052  88.0162437
 108.0137828  47.4314642  24.4414878 108.1157373  48.3803892  24.3681383
 108.4464503  47.2070551  25.2653027  70.1304340  96.4053059  28.2335019
  70.7354879  95.6815243  28.0713844  69.2789459  96.0742188  27.9478812
  58.6628928  26.6748211  85.4736211  58.9086320  25.7678339  85.6558825
  57.7315869  26.6316816  85.2567326  44.5253621   1.0060895   8.7465167
  44.9329643   1.7705072   8.3393759  44.3779527   0.3986658   8.0215812
  65.1538849  95.7874680  14.7371304  65.4568434  96.1503220  15.5694664
  64.6442270  95.0156498  14.9836671  41.2021637  96.8207264  18.7738657
  40.7919550  95.9573364  18.7236965  41.8176603  96.8364239  18.0409634
  13.7320067  21.3635275  88.1282606  13.1404091  21.4094421  88.8793488
  13.3663059  20.6714985  87.5772752  28.5590601  77.8292084   2.9369244
  29.2107630  77.5225639   3.5673890  28.7968993  78.7414455   2.7711251
  59.3763494  91.0491276  31.2482262  59.1499281  91.8403339  31.7370629
  58.8461161  90.3601742  31.6487503  20.1075817  61.7115900  87.3943880
  19.7008969  61.4733622  86.5612714  20.4985882  62.5702879  87.2331584
  53.0824900  90.4170036  15.5022633  52.2740650  89.9698734  15.7527769
  52.8084040  91.0575581  14.8459125  86.4994621  67.1267080  24.8325920
  87.1792126  67.6192856  25.2925229  85.6867504  67.5867462  25.0425696
  85.6840967  15.4139436  30.6532502  86.1897062  16.1280168  31.0414505
  86.0697626  14.6193040  31.0220718  41.8743563  89.4530296   8.6016291
  42.1785593  90.0776196   7.9431552  42.2625208  89.7605228   9.4207835
  50.6337236   7.3955835   0.7805275  50.2410220   6.5231527   0.8100043
  50.0789069   7.9273809   1.3511452  25.9740615  66.4566183  68.7394810
  26.4388800  65.6432629  68.9360142  26.2359762  67.0568514  69.4375896
  47.3348427  77.5079060   6.7725980  48.2497168  77.7889824   6.7877418
  47.0679522  77.5114155   7.6918316  28.1964207  85.9166050  15.9445989
  28.4523845  85.2306938  16.5612292  27.2498918  85.8113003  15.8485651
   2.8134943  18.7269709  81.3359808   2.9084111  18.7452194  80.3836732
   2.7510048  19.6482441  81.5881489  21.2844300  63.0283594  23.6291718
  20.9096098  62.3243999  24.1584921  20.5519867  63.6233425  23.4686756
  54.8562120   9.6992601  32.1960354  54.9970816  10.1207269  33.0438232
  53.9897524   9.9987138  31.9207096   2.8307296  60.1925394  82.7149080
   2.6498653  59.5199987  82.0582484   3.5222412  59.8160097  83.2592146
  40.0003290  80.1359081  23.2774878  40.2602434  81.0155678  23.5511303
  40.5168200  79.9678612  22.4893093  31.1727881  95.6172276   2.1516927
  31.0813999  94.8881721   1.5382066  30.6052828  95.3844643   2.8865352
  77.0648264  12.4034418  15.2628374  77.7265333  12.9098714  14.7917664
  76.2553643  12.5543989  14.7747612  48.3125129  45.9026930  87.3637740
  48.9666190  45.2051088  87.4055876  48.6717143  46.5305826  86.7369071
  37.7253771  96.7708588  52.9249668  36.7725229  96.8617630  52.9188824
  37.9574466  96.6200638  52.0086527  27.8966784  73.3695841   9.6281588
  28.3360863  72.9014540  10.3380919  28.0793977  74.2931271   9.8011178
  84.5238994  21.6988672  12.8850973  83.8003134  21.0778535  12.8014052
  84.5408844  22.1611799  12.0471215  25.8924222  95.6748009  18.2880616
  26.5735316  96.1998844  17.8678095  25.4268837  96.2929535  18.8514364
  72.2352255  29.9002859  88.1240680  72.1318229  29.0717718  87.6559787
  71.4568897  29.9612448  88.6778808  35.0246407  54.1025564  80.2647661
  35.8880259  53.7126276  80.1278441  34.4085814  53.4186289  80.0022070
 103.4085264  16.3136551  61.0245554 103.4143414  16.7255661  60.1605360
 102.5545683  15.8847639  61.0796850   6.6731749   1.9419778  49.4064760
   6.6116772   1.1185850  48.9222622   6.5222130   1.6951192  50.3188944
  86.0324564  32.7627585  73.7839060  86.3427153  31.8628618  73.8846319
  86.6986742  33.2957861  74.2178135  72.4761866  11.2436307  47.1892071
  72.9906033  10.9756673  47.9506540  73.0751156  11.1456026  46.4489985
 100.8852886   9.9422182  30.5104923 101.7319940   9.5643533  30.2727199
 100.8776544   9.9295915  31.4675784  23.6536884  78.1341553   0.4598216
  23.8445950  77.9483938  -0.4595692  22.8963161  78.7189102   0.4337703
  32.6400471  54.5922613  19.9239838  32.3900557  54.0179873  20.6478262
  31.9085288  55.2038431  19.8398209  45.5336285  89.6627235  28.8708282
  45.8090830  90.5782700  28.8246560  44.6493053  89.6967697  29.2355728
   4.0664780  78.2178545   8.5916775   4.6174160  78.6346292   7.9291075
   4.5543861  77.4365473   8.8519359  49.4614792  97.6762199  18.2382166
  48.9541054  97.1359444  17.6324821  49.0446615  97.5383568  19.0887976
  26.8214726  70.0493526   1.4050014  26.2841511  69.6186304   2.0698285
  26.5565133  70.9684277   1.4414643  24.2125273  83.3623219  18.8427532
  23.4711957  83.6110592  19.3948305  23.9613128  83.6441803  17.9631627
   0.8873607  55.6726095  76.3395445   1.5999604  56.0857889  75.8519761
   0.0902964  56.0171911  75.9368245  23.4052038  73.9416933  55.7001162
  22.9120398  73.6337948  54.9397087  23.3201766  73.2368612  56.3421583
  19.0827143  98.1075478  30.6864309  19.0690303  98.5878277  29.8585558
  19.3645775  97.2247887  30.4465842   9.3458487  74.3033812  78.4276705
   9.5878912  74.5773050  77.5430171   8.9182450  73.4554979  78.3072929
  39.5486164  84.4872570  42.3284101  39.7507501  83.5519886  42.3029375
  39.5573092  84.7089005  43.2595539 101.7240788  86.8298817   6.0328221
 102.1022828  86.4223003   6.8119675 102.4679263  87.2412300   5.5926883
  77.8790640  20.3724111  32.1691132  78.0744146  19.4876684  32.4778271
  77.4598144  20.2421678  31.3185263  45.3399563 102.8239632  12.0429194
  44.5932674 103.4091377  12.1704161  45.2215624 102.4734497  11.1601067
  23.8829803  86.5394402  11.9667470  23.5813117  87.4028873  11.6844475
  24.8312163  86.6345310  12.0563960  49.8669587  13.0423940  29.3696237
  50.7037293  12.9554571  28.9130187  49.9617647  12.4956525  30.1495671
  15.4440094   5.4852554  77.3883419  15.6070400   4.6508715  77.8281753
  15.3125883   5.2501604  76.4698164  54.7099018  97.5011635  29.2968059
  54.8023224  96.5505695  29.2331481  53.8890648  97.6929092  28.8432789
  60.0688696  64.7731209   8.7827623  59.8252964  63.8540411   8.8931799
  60.4669285  65.0174522   9.6182758  20.2291870  89.4716930  13.7564969
  21.1624765  89.5405579  13.9576471  20.1625395  89.7305393  12.8373718
  14.3384434  53.4033701  76.0018520  13.4973170  53.3234427  76.4516871
  14.8877598  52.7277014  76.3993006  51.6265059  95.7584095  26.0373545
  52.4641514  96.1664104  25.8179927  51.2129879  96.3719749  26.6446257
  90.3860689  61.2351990  27.3444247  90.4279758  60.5556059  26.6716480
  89.5645930  61.6945410  27.1700287  33.4782624  60.0026131  37.1349788
  33.4523582  59.8202181  36.1956739  33.9967585  60.8037901  37.2091842
  37.8623581  68.8932896  16.3758290  37.3802018  69.5178604  16.9177389
  37.3743224  68.0744028  16.4623415  64.3406343  99.0236378  46.4702845
  64.3386984  98.7249660  45.5608702  64.7245550  99.8997116  46.4338446
  45.5672073 102.7088833   6.9993228  44.8345423 102.5939846   6.3941526
  45.6760883 103.6575127   7.0662409  35.1716995  68.5236454  18.8915277
  35.4077530  69.3201733  19.3669784  34.5249724  68.8119459  18.2474315
  84.6449127  47.9571459  86.4432110  84.4509401  48.6738035  87.0473716
  84.3300357  47.1729681  86.8928315  78.5323881  14.4640363  38.9816856
  78.7973284  14.8589910  39.8123765  77.9205011  13.7711919  39.2302680
  75.5900072  14.7593034  24.5092320  75.4395937  14.0821088  25.1687980
  75.3239392  15.5733407  24.9367523  64.4732689  24.6599878  65.9677839
  64.0152954  23.9340890  65.5440378  63.9146541  25.4209054  65.8090687
  74.3262053  96.0218811   2.7824485  75.1853275  95.7211494   3.0785921
  74.4316959  96.9653893   2.6603940  90.0914263  17.3355878  31.8130255
  90.9666752  17.1811117  31.4576292  90.1335548  18.2196249  32.1776271
  39.4509745  90.7191181  37.9456949  38.7486982  90.1862812  37.5727010
  39.0665293  91.5907383  38.0390263   5.5218992   0.1170171  55.3184843
   6.0490046   0.2037919  56.1127520   5.5889759   0.9713186  54.8919916
   3.0292711  15.1924146  43.8965940   2.1579323  15.2061666  43.5005951
   3.0295620  14.4097913  44.4477129  78.8060879  23.9714826  10.2987480
  78.5676645  24.1160406  11.2144375  79.2436718  24.7807706  10.0345516
  65.8432459  19.4213594  15.3289461  66.5246938  19.9203313  14.8785174
  65.2086447  19.2103685  14.6441126  82.3171257  17.9702104  41.3691759
  82.5627254  17.0857252  41.0978985  82.5061630  18.5160078  40.6058931
  15.0402317  22.9037679  15.6850052  15.5170307  22.2143377  16.1471438
  14.7757683  23.5145391  16.3729393  95.1169132  16.8896306  63.4532547
  95.2188610  16.1301435  62.8796577  95.7874416  17.5051893  63.1570768
  66.1694025   1.1291612  28.6097312  66.3570451   1.7297567  27.8884077
  65.8467816   0.3355039  28.1828141   9.3375517  45.8954355  85.6189023
   9.6869160  46.5434763  85.0071697   8.4138466  45.8151457  85.3810926
  80.0815128   7.4594034  22.2022080  79.8049330   7.9484094  21.4272189
  79.5395683   6.6704477  22.1936274  99.4382833  20.7142938   5.1803404
 100.1647161  20.7372583   4.5574480  98.6645674  20.9142316   4.6534425
  60.4202223  79.3440247  45.7019043  60.0206995  78.4875870  45.8539772
  61.3617754  79.1837502  45.7653570  80.0254940  20.4914964  41.1351538
  79.9637054  20.0275529  40.3001881  79.7934650  21.3959135  40.9243631
  82.8219150  27.9534353   0.7698380  83.0955623  27.0426286   0.6613053
  83.4755968  28.3314432   1.3580894  44.0283394  81.3712406  54.9760103
  43.2863903  81.9726467  55.0397015  43.8882732  80.7422733  55.6838369
   3.7928463  45.7422754  80.7610558   3.1115199  45.4346392  80.1632379
   3.9261652  46.6591856  80.5207770 105.0645851   0.2033246  39.1508484
 104.8174213   0.2339567  38.2266164 104.4545006  -0.4224192  39.5413184
  39.5511389  76.8197536  51.5807009  40.3183365  77.0550919  52.1024847
  39.3702936  75.9101105  51.8174982  79.3757414   9.1949380  20.2781677
  79.9851679   9.6332944  19.6843040  78.7608980   9.8805059  20.5393052
  90.2957700   5.7683671  39.4840693  90.4377579   5.5424036  38.5648227
  89.7575067   6.5593828  39.4558859 102.2866669  76.7346499  81.6049318
 103.1334510  76.7931196  81.1624752 101.7425575  76.2151262  81.0130964
  41.7871683  20.7762159   8.5091341  41.8257140  20.2668584   9.3186420
  42.5691782  20.5137456   8.0235386  68.0263327   2.2681631  26.3641095
  68.9000272   1.8977750  26.2388062  68.1491159   2.9551328  27.0192695
  70.3117180  74.1423178  18.3377886  71.2526178  74.1241264  18.1628299
  70.1411057  73.3303118  18.8150346  33.9351344  99.4835091  45.1007128
  34.7924328  99.3661022  44.6914577  33.9922380 100.3337765  45.5366039
   1.4970789  15.7964338  40.6311464   2.4065266  15.5290998  40.4982471
   1.2503347  15.3993810  41.4664268  87.5204372  75.2725935  31.7817736
  87.1916771  75.9783268  32.3386312  86.7920208  75.0722170  31.1939836
  97.2221874  41.5944684  13.8664055  98.0505966  41.1689962  13.6451793
  96.7761921  41.7017663  13.0262816   1.6947700  52.0064756  80.6670259
   1.6150118  52.3819372  79.7901569   2.5319005  52.3363421  80.9935777
  72.8018473  11.7744935  23.2479954  72.1737527  12.3403562  22.7990818
  73.5880946  11.8098558  22.7032042  27.0892073  79.5769522  74.6286301
  26.1662318  79.4982359  74.3874841  27.3163201  78.7200758  74.9897711
  55.7506704  81.2426090   3.4337822  56.0162210  81.9317627   4.0426975
  55.9208965  80.4273987   3.9056775  64.1963863  76.6147947  11.4858782
  64.1959238  75.9717703  10.7768297  64.9010372  77.2214556  11.2585819
   2.6685820   7.7212347  45.1913548   2.5880394   8.3971513  44.5183849
   1.7657480   7.4758733  45.3936338  37.3205757  75.7522058  13.6280787
  36.9072533  74.8958778  13.7380660  36.7698002  76.2036180  12.9884636
  84.2608856  10.5215658  15.9951222  84.2568563   9.5663656  15.9334207
  84.8121427  10.7102025  16.7545712  27.5671793  79.7363588  88.0755212
  26.7108370  79.8954413  87.6785322  27.5269009  80.1854632  88.9198654
  41.6619444  75.4301977  25.8477712  41.8150139  75.3479767  26.7890692
  42.5298834  75.5897141  25.4770088  79.7036957  13.7374414  35.0734043
  80.1219534  13.8371004  34.2182064  80.2581238  14.2390550  35.6710911
   3.6097584   9.1699422  29.8865438   2.8520069   9.3044675  30.4557085
   3.3245716   8.5033430  29.2616105  91.0700868  27.6294149  41.9338131
  91.4734625  26.9579710  42.4839830  90.7296108  28.2743276  42.5538063
  69.2443560  25.1020063  26.0791111  69.4964145  24.3569101  26.6245770
  69.7798227  25.8269227  26.4015961  23.6374998  94.7795677  20.6888556
  23.0297685  94.9341965  21.4120340  23.6698461  95.6138134  20.2206421
  38.8554478  26.5431798  17.2820365  38.1320483  26.3628591  17.8823781
  38.7459301  25.9054769  16.5766466  60.8564711  86.5661430  25.6613183
  60.9675360  87.1354866  24.8999143  61.1099291  87.1107006  26.4065981
  64.3855143  98.2048512  43.9627647  63.9803267  97.3461151  44.0837049
  64.2137146  98.4239101  43.0469418 107.6004480   6.7608083   1.9244947
 107.3781370   5.9921754   2.4498631 108.1858991   7.2717775   2.4834132
   5.4144026  45.9763739  70.0442247   4.6337916  45.8119986  70.5732422
   5.5594565  45.1574061  69.5704262  99.3495487  31.1581529  19.6167088
  99.1983722  30.6927885  18.7940240  98.9605163  32.0217241  19.4783783
 107.9685488  63.3000872  82.1247213 108.5842338  62.9244730  82.7540676
 108.1663194  62.8544638  81.3009916  86.5482019   5.2326501   0.9932277
  86.5936254   5.3655160   1.9400729  85.7413553   5.6740392   0.7278700
  14.2034603  67.3048994  81.8674271  13.7315394  66.9948027  81.0945361
  13.5751606  67.8653166  82.3228412  82.8299835  46.5027544  70.9630947
  83.7845888  46.4326021  70.9692089  82.5235941  45.6194613  71.1684041
  77.8289865  11.3881410  25.8599138  78.5974716  10.9494031  25.4949903
  78.1490921  12.2501100  26.1259460  57.8598547  85.6175709  23.9115667
  58.0289936  84.6843624  24.0409541  57.5519753  85.9256172  24.7639465
  67.4140309   9.9339212  11.1387372  68.1059216  10.3507627  11.6523147
  66.8667887   9.4922174  11.7880881  28.9444399 103.0350208  26.3127947
  29.6499825 103.3734131  25.7614946  29.0085745 102.0838451  26.2268877
  33.9361763  86.7948818  21.6259289  33.1535149  86.3656616  21.9715405
  33.6044335  87.3993015  20.9619617  53.7087727 100.0442791  23.1159997
  54.2040920 100.8620071  23.1629634  54.3752337  99.3667984  23.0016160
  90.9177660   0.6314577  54.4935036  90.8857273   0.1759256  55.3347492
  90.4471802   0.0553621  53.8911009  67.8285122  99.7762871  26.8174863
  67.5537062  99.9061584  27.7251458  68.2436895 100.6031704  26.5722871
  24.5996691   0.3923962  80.2405946  25.1986052  -0.0732115  79.6568839
  24.1729714   1.0396978  79.6791987  60.7476807  95.8298779  64.3429708
  61.3225794  95.3990746  63.7104082  60.2070236  95.1229954  64.6954489
   4.8648224  14.9385560  46.3399839   4.3041525  14.2752851  45.9375477
   4.7669134  15.7076086  45.7785559  87.0671295  25.3576673  45.0124741
  86.6884063  25.7339014  45.8069849  86.4520000  24.6705640  44.7560692
  34.1884613  81.2883091  19.2787433  33.4727025  81.2143040  19.9099684
  34.5084691  82.1843338  19.3834507  40.1085424  93.6890602   3.2299832
  39.5344996  93.2027531   3.8217640  39.7156334  94.5603180   3.1774199
  80.2633476  95.6236362   2.6440984  80.3744411  96.5743542   2.6482382
  80.9180546  95.3032875   3.2645568  71.7587994  18.7504114  29.3173790
  70.9152268  19.0288366  29.6738911  72.0067953  17.9953111  29.8508143
  30.1704144  80.7620335  48.7451982  30.0730968  81.3751030  48.0165672
  30.8671284  81.1380672  49.2831802 106.1812081  84.2092154  85.0555442
 105.4302349  84.0683004  85.6320982 106.9253292  84.3035624  85.6501977
  22.3656583  82.3248768  13.6537766  21.4132547  82.2427368  13.6046910
  22.5235772  83.2685661  13.6810851  53.0488371  23.5946001  31.5942287
  52.8238271  22.7396310  31.9611573  54.0058826  23.6050142  31.5805697
  42.4043608  76.4773941  34.7723174  41.7817831  75.7659245  34.6225286
  42.0232487  76.9818115  35.4910302  20.9691979  40.2391836  74.2431431
  20.2791430  40.7006571  73.7665861  20.7268120  40.3314516  75.1645379
  95.7845854  16.8329919   0.7773668  96.5716432  16.7462648   0.2395424
  95.7608913  17.7587045   1.0197002  28.3637118  92.3329926  13.0956006
  27.7789402  92.8855991  13.6141479  29.0249991  92.0327854  13.7191474
  65.6066086  42.1245501  83.8975285  66.1884197  41.3707945  83.9954548
  66.0360094  42.6750872  83.2427381  90.7096221   2.7852938  68.8321321
  90.8668067   2.1057150  69.4876485  90.5485859   3.5784266  69.3432479
   8.5402752  97.1987312  17.8121316   8.1457926  96.3438587  17.6394808
   9.2233540  97.0211159  18.4587252   8.4584183  25.6530643  13.0868208
   8.0000043  24.8128033  13.0939043   8.1728715  26.0884643  13.8900161
  98.8036634  45.5408096  45.9536171  97.8522791  45.5207634  46.0570478
  99.1388560  45.1012039  46.7350435   4.6249992  62.5582743  21.1780763
   5.0514627  61.7152691  21.3320351   4.8124492  63.0689001  21.9657016
  14.0413475  88.4635353   6.6007251  13.6047935  89.1628933   7.0870954
  14.2988706  87.8304195   7.2708589  57.4652997  99.9948224  75.2354090
  57.7183644 100.7677754  74.7306983  57.1829120  99.3604668  74.5765595
  29.9972916  40.3896141  35.2378750  30.6177187  41.1175728  35.2749157
  29.7611880  40.3229809  34.3126464  84.7907283  34.5038912  83.5236131
  84.2283978  34.4735262  82.7496021  85.4639914  35.1483557  83.3053945
  41.5478325  35.4351687  10.1626682  41.6769075  34.5612645  10.5312645
  40.8530521  35.3213620   9.5141631  27.4464893  69.3699598  11.9652104
  27.2999001  69.9624443  11.2278473  26.9817257  69.7775459  12.6960301
  15.6730247  33.2301569   2.1492678  16.3854373  32.6061988   2.2884642
  15.9550643  33.7520194   1.3980383  18.7057745  18.9857590  27.4845457
  18.2703924  19.8340869  27.5682926  19.0271318  18.9694309  26.5830493
  49.0176502  96.6819581  87.4491030  49.4358412  96.3759907  86.6442855
  49.6787182  97.2331580  87.8679109  78.0963572  29.7857401  69.8743431
  77.2133853  30.1390001  69.7657196  78.1416514  29.0589449  69.2530994
  78.7626902  57.0064207  87.9182945  79.5119301  57.0157637  87.3226570
  79.1396919  57.1831443  88.7801926 107.4987499  46.9569254   9.5776296
 107.9280178  47.2102880   8.7604594 107.3325456  46.0193157   9.4801700
  35.0465918  50.7087851   9.4758344  35.5639648  50.2613544   8.8062346
  35.3815103  50.3675032  10.3050435  83.5766052  14.9325479  22.0842743
  83.9478658  15.7452024  21.7407918  84.0276121  14.2401803  21.6011095
 101.7279354  83.3718284  61.9559328 100.8562580  83.5492023  62.3094218
 102.1069971  82.7349528  62.5616829  53.9616728  24.9609041  23.8909793
  54.0615749  25.1825237  22.9651642  54.0504789  24.0082788  23.9201593
  23.0223846  21.0588050  29.9479580  22.1931744  20.5807328  29.9573350
  22.9593158  21.6327763  29.1845369  94.2589488   7.9425451  37.8818838
  94.8668876   8.6582920  38.0672304  94.2756905   7.8548119  36.9288580
  30.4588056  19.8986351  22.3581195  29.5971799  19.8529959  21.9436908
  30.5484509  19.0633547  22.8169250  18.6208284  64.5437193  10.4944539
  18.2901216  65.2238417  11.0812211  18.2481503  64.7623158   9.6403122
  38.1248093  65.9843588   7.8739893  37.2022510  66.0612249   7.6306516
  38.5197735  65.4832697   7.1604443  29.5534968  55.8461332  37.1536613
  29.7518325  55.4135704  37.9841924  29.0076995  56.5937662  37.3973465
  37.0711613  56.8181896  20.2682757  36.5241241  56.0953236  20.5755973
  36.4611530  57.5460434  20.1484847 104.9915920  55.8482838  20.6955314
 104.3284787  56.5282917  20.5767965 104.6778328  55.1132059  20.1687956
  20.7257652  60.4791021   0.2006478  20.3592634  59.7447014   0.6931525
  21.3024473  60.0705528  -0.4449214  14.8258722  23.8673663   0.7576841
  15.3752720  23.2673693   0.2533082  14.0135896  23.3826089   0.9040984
  22.6348495  56.6472912  33.8151288  22.3039150  55.8687782  33.3672118
  22.1688962  56.6588211  34.6511841   7.3914903  46.5537930   6.0785055
   6.4633220  46.5361691   5.8452159   7.4039727  46.8477535   6.9893646
  53.6986164  82.2715076  83.0055820  54.0858856  81.4132556  82.8333686
  53.5138360  82.6294836  82.1372847  26.3530827  66.5195704  34.0162826
  26.9049382  66.0768414  34.6610165  25.5243611  66.0412264  34.0415621
 107.5243567  88.4547043  13.5292411 106.7290453  88.3363152  13.0099189
 107.2086054  88.7098980  14.3960810 100.4804720  90.3704929   8.2836539
 100.5279596  89.4919586   8.6606938 100.9150631  90.9308624   8.9265740
  16.7612791  29.1371369  24.3778038  17.0081413  28.2277250  24.2096853
  17.1975207  29.6354151  23.6866879  18.8876486  89.6268654  24.1356444
  19.1484976  89.7286797  23.2203174  18.4182453  88.7930107  24.1595888
 100.4357376  11.9052193  61.6746323 101.1639371  11.7741892  62.2819106
 100.7368746  12.5966808  61.0852020  96.5876187  72.3198223  13.0883586
  96.6301752  73.2319689  12.8012860  95.7260932  72.0180416  12.8003788
  47.2538844  86.4722594  84.2111497  46.9368974  85.6015237  83.9712094
  46.4804617  87.0331915  84.1528122  56.6031805  88.1739553  73.5764198
  56.1158374  87.3827752  73.8061170  57.1408096  88.3563050  74.3470924
  73.4143518  10.1009914  83.6977337  73.5723236   9.9645779  82.7635668
  72.7170755   9.4824574  83.9155625  31.6007638  26.1674428  16.6012359
  32.3042107  26.5487266  17.1266091  30.9882784  25.8101630  17.2442329
  49.0165949  30.2977157   1.7461547  49.1866493  30.5337381   0.8342303
  48.6147785  31.0795498   2.1249802  74.2588226  95.6133135  85.0080992
  74.1087190  96.5219363  85.2690701  73.6981217  95.1010378  85.5906977
  40.1437807  69.8225212  12.2498155  40.2145338  68.8759947  12.3735642
  40.7469368  70.0159931  11.5321791  42.7257967  66.0687256   2.4806103
  43.4100485  65.8808184   1.8381760  43.1672382  66.0016060   3.3272830
  91.5309920  28.5169813  87.1595250  91.4958301  27.7329800  86.6114928
  91.8581333  29.2021677  86.5766607  54.8144177  75.4246672  76.0011356
  55.6753663  75.2688893  75.6128948  54.3728021  74.5768198  75.9525232
  42.1023569  84.2027935  88.1993100  42.2812418  83.8229450  89.0595121
  42.6339493  83.6858662  87.5939773  16.9569231  21.6166374  78.6314242
  16.7357136  20.7032320  78.4498017  16.1544968  22.1007273  78.4364872
  17.6753986  40.2855062  10.3997350  16.8592322  39.8849940  10.1002407
  18.3542669  39.8750496   9.8641092  13.0834080  14.0818235  76.4655702
  13.6560513  13.3186791  76.3885991  12.9061152  14.3404219  75.5611770
  92.9041161   0.8273623  84.0241252  92.9229035   1.7760059  83.8978289
  92.2303619   0.6876204  84.6895282  63.4920605  17.7296183  84.1375671
  63.8431593  16.8572161  84.3161233  64.1068950  18.1116650  83.5112696
  11.5886509  33.3528161   8.6476111  12.2019696  32.8524566   8.1093633
  10.8252895  33.4810400   8.0845225  94.2760959  18.5108111  48.6069004
  95.0626364  18.1947872  48.1622498  93.5683527  17.9717657  48.2536881
   4.8581856  45.8278275  10.0658619   4.9805740  44.9139977   9.8086458
   5.3569865  45.9169340  10.8779526 100.5917373  26.3895819  87.4394950
 101.4694180  26.7295811  87.2654036 100.6275144  26.0876677  88.3471299
 106.1729832  42.1977472  11.3977742 106.3012240  41.2499523  11.4361036
 105.4206194  42.3143768  10.8176208  28.9120984  78.0367184  13.3045435
  29.5466089  78.4605074  13.8824940  28.8951278  78.5880232  12.5222373
  55.7950830  34.6563101  32.7076888  54.8812342  34.3717742  32.7197027
  56.1054611  34.5028758  33.6000776  43.4274626  97.2942448  29.0619040
  42.8064156  97.6551247  28.4292126  43.3948278  96.3486481  28.9169383
  33.1313586  71.1886930  30.0034070  34.0577722  71.1071444  30.2299857
  32.8944945  70.3307247  29.6512437  41.7783260  76.2164307   4.2967236
  40.8967686  76.5876484   4.3324977  41.6378498  75.2745628   4.1998282
  83.0104080  78.3655056  46.8774359  82.5564161  79.2080911  46.8643944
  83.8013331  78.5275277  47.3916523  47.1948671  68.8240480   3.2282174
  47.2158575  68.0501747   2.6652682  46.6648340  69.4576740   2.7446765
  41.3627720  59.5744562  19.5911789  42.3125315  59.5586300  19.7092426
  41.1022758  58.6538839  19.6214819  45.8853865  50.9619141   1.0480767
  45.1767683  51.4882326   0.6778284  45.8676672  51.1609888   1.9841793
   1.1076815  78.9169168  22.5283241   1.9989556  79.2215776  22.3578954
   1.2215438  78.1266069  23.0562210  55.9354130  85.6741508  85.9240635
  55.1053170  85.2124842  86.0425376  55.9977463  86.2535390  86.6834431
  15.7954133  20.3637075   4.0538338  14.8448861  20.4328465   3.9646772
  16.0151279  20.9749937   4.7568876  72.2696208   7.4729265  18.7480247
  73.0395912   8.0302347  18.6349475  72.6268028   6.5943826  18.8777280
 109.1145738  79.9176884  28.9287448 108.3680161  79.4000244  28.6272383
 108.9568323  80.7934570  28.5760760  21.6196060  59.3468094  12.2833860
  21.3360023  60.0819874  11.7399621  21.0074878  58.6421156  12.0713639
  94.3508353  22.0215056  78.3426909  94.7830095  22.1973250  77.5069015
  93.4158077  22.0567295  78.1409161  54.1822890  70.9771165  82.9582296
  54.5785276  71.3556393  82.1734063  53.2440058  71.1340960  82.8523426
   6.0218155  38.5070324   2.2605188   5.5965078  38.9802098   2.9756755
   5.4594612  38.6636019   1.5019174  22.4742436   7.9042745  10.6505299
  21.9717526   8.4229124  11.2788212  21.8317842   7.3106432  10.2618396
   0.8524707  51.5422726  12.1243584   0.5766650  52.2803497  11.5808499
   0.0943504  50.9580517  12.1375203   0.7036901  43.5970592  40.1612663
   1.5035006  43.0819893  40.2672625   0.9689543  44.3435001  39.6239662
  28.7555575  52.7300596  33.2311773  29.6647596  52.5328159  33.4562922
  28.5735297  53.5588551  33.6741161  95.6018748  26.1235878  86.7155297
  95.3829279  26.5925619  85.9103237  94.9153700  25.4621288  86.8016721
 105.3940453  22.8643963  78.3705561 104.8686709  22.5652477  77.6284473
 105.2140679  23.8027260  78.4286575 102.4867983  48.7003994   3.2745603
 102.5237716  49.5676756   2.8712037 103.2657767  48.2506227   2.9472601
   5.6672847  48.4523869  20.1649952   6.2358570  49.2037153  20.3337073
   6.2019813  47.8617430  19.6344543  22.7409601  63.5351992   8.3209938
  21.9532847  63.1813622   8.7340319  22.4117517  64.1422558   7.6581687
  92.6348069   2.9196665  87.3810068  92.8996363   3.3612415  86.5740954
  92.3234429   2.0614645  87.0932935  38.4146906   2.7537081  73.7449722
  38.5578181   3.6663124  73.4941630  37.4912764   2.7158043  73.9941780
  99.0440741  13.8065407  67.2517650  99.3398895  13.6408302  68.1468980
  99.3246331  14.7032520  67.0689337  19.6897030  24.2116404   2.7195367
  19.1836441  23.4035754   2.6348695  19.6738946  24.5970464   1.8434978
  76.8721669  23.5606787  74.9883382  77.4035510  23.9475081  74.2924743
  76.6596942  24.2953608  75.5639534 101.9573970  68.4587574  22.2285652
 101.3363053  67.9096222  22.7070284 101.4127089  69.1191626  21.8002963
  63.4782950  95.6231602  84.2520850  64.1930095  94.9940404  84.3501537
  63.2636205  95.8833321  85.1478850  69.2614174  92.9831982  20.5782270
  68.3475637  93.1727409  20.7907796  69.3627119  92.0502949  20.7670498
  36.7055392  60.8390856   4.8633513  36.1635876  60.5183125   4.1425014
  36.3389325  60.4215956   5.6427962  48.3791733  73.6126518  20.8313823
  49.2820692  73.4758043  21.1182261  48.2119894  72.8976965  20.2172804
  19.1578556  94.3044751  15.7498074  18.8379551  95.2036016  15.6758571
  18.4385086  93.8276052  16.1637700  10.6911969  30.9176135   6.0158110
  10.2825677  31.7559791   6.2312084  10.8605587  30.5086493   6.8645132
   2.2963965  30.6057835   1.8602471   1.4919829  30.1102924   2.0140037
   2.9977632  29.9634743   1.9686709  19.5381618  51.8621302  15.2624428
  19.6511424  52.4596167  16.0016847  19.0284419  52.3628616  14.6255064
  59.2619339  97.2898205  67.7048366  58.4182945  97.1122702  67.2889225
  59.3553082  96.5995177  68.3613412 101.5853668  41.8181562   8.4777761
 101.9441206  41.0163927   8.0973786 101.1598159  42.2617912   7.7440697
  48.2493976  91.8026932  83.1641351  47.3025671  91.7781790  83.3024900
  48.3579794  92.2624501  82.3316299  25.5660391  52.5272322   8.1291080
  25.8512807  53.2683325   7.5946552  24.6106410  52.5453281   8.0732596
  48.7165689  44.3722391  28.7108231  47.8787899  44.0157557  28.4153986
  48.5528469  45.3088856  28.8209152  72.9852002   0.8490536  79.4665419
  72.2366876   0.5135700  79.9599104  73.7494244   0.4878971  79.9157165
   7.5573862  67.2934628  20.9931135   7.2818249  66.6541195  21.6500258
   8.5006142  67.1558523  20.9058475  69.1020012  38.4308910  25.6856227
  68.2333755  38.2581210  25.3224850  69.4840574  39.0795708  25.0944567
  33.5494471  56.9653320   5.9814763  33.5521460  56.3997316   6.7536932
  32.9742765  57.6925707   6.2192553  36.1227775  78.9830017   6.0456461
  36.9660044  78.6814785   6.3837057  35.6506777  78.1792259   5.8281493
  95.2499069  80.6819057   3.4518868  95.9607042  80.3838348   2.8843009
  95.5140961  81.5603447   3.7253460  75.5327454  33.0009958  86.9635160
  75.2476569  32.6259539  86.1302699  74.7292560  33.0809996  87.4775544
  11.8311572  27.0808935  15.8870280  11.3106740  27.0919728  15.0837803
  11.8380141  26.1620903  16.1553288  87.5015560  77.3288592  83.4805642
  86.8621269  76.7549094  83.9023970  87.3195378  77.2432884  82.5447343
  73.9941159  98.4181937  86.2801321  74.8338429  98.8654002  86.1747901
  73.5628978  98.5152587  85.4310970 102.0606270   8.1590387  83.8916831
 101.2661114   8.6511967  84.0984617 101.7569365   7.4304173  83.3502852
  77.7922121  91.5167197  82.4290626  77.8998200  91.5895899  83.3773993
  77.6015822  90.5905946  82.2801064  23.7427616  34.0777469  18.4921634
  24.1485906  33.7825751  17.6770508  22.8024054  34.0487456  18.3157420
  99.6175171  74.4350672  31.6278720 100.5504866  74.2707062  31.4908123
  99.4369544  74.0793943  32.4980021   9.9576441  96.9874152  85.3628661
   9.0959231  96.5731581  85.4082857   9.9907819  97.3760661  84.4887485
   7.4381667  62.6774740  31.0040355   7.6204842  63.0641937  31.8604445
   7.2379506  61.7607069  31.1929345  61.3193097   4.5285866  86.8596266
  62.0506027   4.9797890  87.2813624  60.6745222   5.2171776  86.6973810
  59.3932573  97.0698317  56.3353603  59.5866886  96.1490401  56.1594097
  58.8868085  97.0572337  57.1475069  24.1312432  81.6375542  11.5080214
  23.3980465  81.4145756  12.0815468  23.8140845  82.3777866  10.9906197
  14.0103793  50.6904173  25.2678657  14.1957736  51.2737465  26.0037923
  14.0827131  49.8098469  25.6361008  94.8727528  87.2603448  82.3387914
  94.0717093  86.7388877  82.2873835  94.8583237  87.6353510  83.2193564
  44.6633339  38.9975953  22.8186750  44.7786570  38.4280038  23.5792637
  44.8711634  38.4405088  22.0685458  19.1149330  43.0596256   2.1853688
  18.1875515  43.2808304   2.2705987  19.5746863  43.8772821   2.3758824
  43.4609938  91.3229179  10.2203333  44.3727732  91.4036274  10.5002975
  42.9514551  91.4838028  11.0145116  27.4059200  97.8916454  27.5345945
  27.2730803  97.1650028  26.9258547  28.1208372  97.6017570  28.1012416
  65.7728473  85.2846488  47.0599453  66.5409962  84.7646793  46.8237059
  65.6262008  85.8525857  46.3035195  42.4149656  78.2989264  10.7679880
  42.3089838  78.0595541  11.6886950  43.3032465  78.6512756  10.7128417
  40.3617477  85.9000492  12.7614832  40.4212856  85.0137901  12.4047744
  39.6503186  86.3092136  12.2688580  90.5296495  54.5388815  73.5467045
  90.7695725  54.1082689  74.3672149  89.6003380  54.3390295  73.4341423
  22.9620695  33.2098842  22.7674747  23.5211062  33.5797930  22.0841908
  23.5701084  32.9486299  23.4590411  75.4668236  84.1738224   7.2507817
  74.6958351  83.6252213   7.3951781  75.3621674  84.9004650   7.8650039
  67.0331001  47.0391512  26.9698453  67.4387360  46.1783504  27.0733333
  66.7927837  47.0809650  26.0442472  94.9983516  24.9564764  57.8833477
  95.2974358  24.4343969  58.6278026  94.8345628  24.3154308  57.1916334
  97.3194113  33.1492827  48.7753622  96.4808311  33.5915110  48.9074414
  97.9759421  33.8232634  48.9512722  40.5952644 101.1307430   1.6448954
  40.4431391 100.5234909   0.9207851  39.9096704 100.9230137   2.2797486
  31.2836027  80.8234024  20.2518749  31.2241697  80.2336979  21.0035014
  30.6733394  80.4575729  19.6115792 101.6941046  25.9041418  13.1037080
 102.1114420  26.1145318  12.2683620 102.3709511  26.0736192  13.7589884
  11.2257553  15.2648899  85.2554895  11.6783930  14.6520111  84.6760674
  10.7435681  14.7063849  85.8652391  44.8106289  73.4421682   6.3184655
  44.5457458  74.3498087   6.1692637  45.7651043  73.4565020   6.2477422
   8.5711552  43.2001993  70.5695467   8.8114907  42.7721903  71.3913004
   9.2030503  42.8672144  69.9323146  11.9233358  81.1513805   8.3566624
  12.5649679  81.8571281   8.4369850  12.0401120  80.8217812   7.4656194
  95.4361381  10.0255653  76.7344766  94.9706879  10.2937672  75.9422283
  94.7537556   9.6719954  77.3050670  27.0617890  43.4921837  16.7767811
  27.3606277  42.5828362  16.7726469  27.3393083  43.8393545  15.9290266
   9.3410183  21.2005922  83.7626116   9.8489739  21.5516588  84.4940229
   8.5701634  21.7658970  83.7131713  11.8362452  22.3272869  78.5549598
  11.7697598  22.7051899  77.6780312  11.2908722  22.8930208  79.1015379
  57.5534821  58.4612703  20.9697294  56.9894838  58.9509726  21.5683365
  57.4844885  57.5532293  21.2645793  34.1841388  64.5193863   4.1581047
  34.0720344  63.7044096   3.6687401  34.5102477  65.1445484   3.5107559
  94.7064224  88.6122903  59.3026845  95.3905455  89.2454871  59.5200889
  93.9495913  88.8909110  59.8182528  11.5999676  41.7479536  57.7211254
  12.5386120  41.5936491  57.6145141  11.5363146  42.3160669  58.4888689
  60.2832413  76.5817118   6.0627192  59.6136570  77.1762562   5.7244718
  59.8977232  76.2144756   6.8581724  43.8478041  75.8901930   2.0070179
  43.1872034  76.2573147   2.5944331  43.9749527  76.5636683   1.3388142
  10.0498272  16.1892006  59.3321268  10.9728791  16.1038324  59.5707171
   9.5804430  15.7121632  60.0164835  15.4478670  12.6865122  74.9283938
  14.6072985  12.4953625  74.5122950  16.0848929  12.6359293  74.2157416
  74.9870902  28.5333654  76.3579481  75.3687012  28.8104460  75.5249815
  74.2334140  29.1107103  76.4799421  35.5306077  48.4995222  16.0314286
  35.1427031  49.3628931  16.1740899  35.0155520  47.9113197  16.5836692
   3.0850602  37.3022291  68.8714616   2.9056097  38.2378790  68.9640515
   2.2396399  36.9180224  68.6393278  78.0260255  11.8599102  67.3353426
  77.6243546  11.9445345  68.2000558  78.9508589  12.0597002  67.4802582
  29.6903253  68.5449648   5.8854812  29.7585177  68.4831238   4.9327180
  29.9473119  67.6784801   6.2007433  62.3552171  80.0804552  74.1817121
  62.9820100  80.6982120  74.5581941  62.2500364  80.3686341  73.2750039
 104.2005529  59.4938871  80.7714527 104.5497599  58.8334868  81.3699131
 103.6104956  60.0189993  81.3121264  78.0138793   9.0077898  68.6759965
  78.0898651   8.6029741  69.5400457  78.5450777   9.8018095  68.7359516
  21.9572687   4.6385327   7.0262283  22.0221472   4.9029091   6.1085534
  22.6804113   4.0237492   7.1500671   9.7776247   9.8707983  78.7644117
   9.5769192   9.5708487  77.8778570  10.5224682   9.3343756  79.0358727
  62.8269759  97.4485024  68.2719414  62.3563639  97.8340968  67.5329726
  63.5507909  98.0528411  68.4365671  99.1554990   7.0482704  77.2828858
  99.7295799   7.2729895  78.0151181  98.9517965   7.8883001  76.8716900
  25.1812482  88.1880283   1.5429592  26.0798669  87.8589058   1.5230913
  24.6579862  87.4784184   1.1702949   7.1043360  73.7030315  23.1870151
   6.6242677  72.9203224  22.9165888   7.7494216  73.8399839  22.4932289
  82.3042892   1.7388166  18.1707799  81.9154428   1.3228715  17.4013531
  83.2181143   1.4541067  18.1608343  96.4748826  51.0686705  88.1047226
  96.6323485  51.7979452  87.5050637  96.7929711  50.2984068  87.6338168
  49.1177464  93.2506466   9.3528116  48.6240244  94.0521908   9.5259815
  48.9137316  92.6790428  10.0930035  96.4550676  18.9368221  85.9041207
  96.4356842  19.2841217  85.0123583  97.3586717  19.0665075  86.1920713
  44.1706944  57.3041248   7.9604560  45.0961542  57.0615244   7.9304403
  44.0078831  57.5142908   8.8799965  11.9032562  61.4820051   0.5782263
  12.1132457  60.7530785   1.1620103  12.5946760  61.4657307  -0.0835180
  64.8009745  94.6350964  48.3811180  63.8449374  94.6046218  48.4171193
  65.0053540  95.5562647  48.2201664  13.7083269   4.9630282  67.0014660
  12.9913689   4.3583653  67.1927469  13.6733032   5.0835201  66.0525267
  12.3547685  36.0712504   0.5508791  13.2959116  36.1672759   0.4050680
  12.0573950  35.5104303  -0.1655564  70.3474808  64.2538738  20.4803586
  69.7691917  64.0588856  19.7429347  70.4592371  65.2041149  20.4523516
  40.7911444  93.3409119   0.1182049  40.9829187  94.0950966   0.6755693
  39.9735808  93.5710430  -0.3232235   6.7173840  21.7775843  75.8631079
   5.9311558  21.7602751  75.3174190   6.7654587  20.8998034  76.2418167
  61.6749239  75.1658297  13.9206612  61.9121075  76.0224295  13.5653937
  62.4493837  74.6228170  13.7737453  91.1293271   8.2803843  82.0218347
  90.2072396   8.1329653  82.2322081  91.3190010   9.1503832  82.3730485
  53.1754255  90.3864384  18.1154227  52.3675060  90.8667564  18.2965219
  53.2844019  90.4501820  17.1665847  47.8149986  57.7486086   1.0939280
  47.4216223  58.2110882   1.8339312  47.5463104  58.2530069   0.3260582
  16.2009823  49.6888924   7.9988825  15.7306576  50.3688765   7.5165451
  15.5828249  48.9597893   8.0490911  63.8216782  60.1282072   3.1227827
  62.9257154  60.4381895   2.9909018  63.7324858  59.1831398   3.2457688
  11.4504029  26.8980953  68.2480304  12.3822380  26.8060467  68.4466212
  11.1096169  27.4527809  68.9497583  74.0004324  16.8808568  37.0191193
  73.6639022  17.7411951  36.7685294  73.3619879  16.5484251  37.6500797
  67.8954521  97.9678258  70.9217708  67.1681515  98.1624468  71.5128605
  68.6579457  97.8955992  71.4958947  92.4389675  26.4791796  74.7808354
  91.9392123  26.2187597  75.5545645  92.3997083  27.4355766  74.7810762
 101.0222388  89.4389439  23.1736803 100.1332833  89.6012783  22.8580260
 101.4909859  89.1057301  22.4085140  56.2859920  88.0997594  80.7797842
  55.3505675  87.8968080  80.7847636  56.3253239  89.0506252  80.8824496
 105.4906477  88.6900520  46.1733103 105.4667301  89.2127991  46.9748020
 105.5326424  89.3353844  45.4676151  54.4032049  87.2553444  11.7866039
  54.8314857  88.0768299  12.0273769  53.5725451  87.5243092  11.3943088
  27.2920704  52.1300077  11.7772424  26.7232966  51.4111042  11.5017390
  26.9642115  52.8915834  11.2989724  51.5114069  95.7369804   9.3769747
  52.4363804  95.8749294   9.5810038  51.4248562  96.0073853   8.4628516
  13.4393549  75.7817698  19.2223275  12.6326752  75.8890247  18.7183475
  13.6782718  76.6709566  19.4840467  68.6443663  39.3663335  21.1627674
  67.7317524  39.3860030  20.8746958  69.0525627  38.6922550  20.6194210
  47.0288324  81.4898586  12.6043415  47.6988268  81.0149479  12.1126044
  47.4359512  82.3305798  12.8133142  46.2361860  86.0425663  19.3046558
  47.0007849  85.5770969  19.6436930  45.5580616  85.9025669  19.9655461
  56.5395394  95.4425963  80.3475540  56.6572586  95.7112607  79.4364052
  56.7678419  96.2196263  80.8577864  18.4496428  11.6263077  66.5148775
  17.5542570  11.9233200  66.3527195  18.8923527  12.3905203  66.8839471
  20.2614990  93.7766894  68.1549303  20.1966611  92.8742608  67.8424399
  20.8173195  94.2141303  67.5099938  20.3296973  34.3871424  65.9417169
  19.9117447  33.5326216  65.8352535  20.8675076  34.2944166  66.7280953
  10.9698367  54.0902376   0.5467856  11.1185145  53.2430077   0.9667020
  10.6380260  54.6503878   1.2484712  85.5589644  84.1340145  71.7014794
  85.2721420  83.3131322  71.3013320  86.1430613  83.8638171  72.4100404
  48.6602211  61.6984367  11.7665696  48.9952993  61.2452173  10.9929121
  47.7775383  61.9739580  11.5191996  56.5713930  71.9740868  20.5221534
  57.5242281  72.0641375  20.5070186  56.3984394  71.1746693  20.0249100
  76.5535747  12.7435610  84.2740368  77.4976840  12.9012844  84.2703487
  76.1809471  13.5103247  83.8387720  43.0922365  73.1088877   1.2890337
  42.8928947  73.3190393   0.3767130  43.5342312  73.8892698   1.6235127
  99.8865976  40.5492422  75.2711205  99.6146049  40.0394175  76.0342316
  99.6786609  39.9897596  74.5228021  20.5152488  70.4601002  15.0440276
  20.0072837  71.1485338  14.6147656  19.9665534  70.1787233  15.7761431
 105.9761181   9.4313738  72.0654087 106.5190878   8.6433670  72.0869558
 105.5657210   9.4158861  71.2007885  39.6497107  72.0715380  17.4461615
  38.7840652  72.3629284  17.1598363  40.0358582  72.8417158  17.8632283
  98.6866679  24.0671274  82.1733134  99.2660441  23.3066580  82.1260314
  98.6807694  24.4194386  81.2833290  46.9534115  97.1248063  66.5758865
  47.5201002  96.9928225  67.3359363  47.4574712  97.6975783  65.9978859
  50.0834799  55.6517220  15.0309265  50.2234650  56.2831497  15.7365739
  50.5865383  54.8815250  15.2954257  73.5886354  39.6564409  70.1490908
  73.4752899  40.5982992  70.2767413  72.7011753  39.3003771  70.1922648
  19.3963267  23.9900944  75.0904791  19.3746687  24.8945114  74.7777657
  19.5474936  24.0659782  76.0326164  30.2099872  66.1573601  10.5444694
  30.1899505  65.3595495  10.0159538  29.4159603  66.1118317  11.0770845
  80.0668546  36.9258520  84.5949061  79.3589868  36.3748953  84.2608293
  80.7837959  36.3157675  84.7681819  66.0129833  52.3369551  26.7067647
  65.3591347  52.2066736  26.0199285  66.3903522  53.1962061  26.5183282
 107.2725286  69.6323511  88.5382062 107.1145048  68.6981318  88.4022321
 106.5564456  69.9161741  89.1064512  30.1022148  65.8031034   6.8178153
  30.2138567  65.4018259   7.6796407  29.2979598  65.4136801   6.4746606
  27.5213122  64.1740084  10.7014191  26.7577553  64.1774178  10.1241839
  28.2273149  64.5373631  10.1668465  55.6671810  65.7005596  24.6966887
  56.5662146  65.5327797  24.4141650  55.1359463  65.0991297  24.1748619
   1.6911912  93.7862492  18.4725654   2.4474144  93.3154869  18.8229060
   1.7760772  94.6720600  18.8252306  79.8753754  93.2334527  78.1676917
  79.6028820  93.4773978  79.0522652  80.8128372  93.0566510  78.2460575
  44.3167114  35.4133463   3.9622596  43.3869457  35.3086400   4.1642472
  44.5787859  36.1996055   4.4411573  15.2413571  55.2918053  28.0179024
  15.4102886  55.7340956  28.8498139  15.1179600  56.0030127  27.3892617
  22.4296355  98.4436131  10.3048968  21.7023087  98.9609623  10.6507063
  22.3799467  97.6136303  10.7791173  68.1350136  95.7993698  14.5696247
  68.4603739  95.4893684  13.7244785  67.3296833  95.3023148  14.7131848
  28.6960173  56.0983181   1.0042783  28.3120203  56.9278574   0.7203001
  28.0044937  55.6763935   1.5141892  49.6920633  65.1170111   1.0645082
  49.7530651  64.2003345   1.3332383  48.7751055  65.3491259   1.2112959
  66.8108431  92.7343472  41.4780371  66.0724679  92.1957072  41.7624752
  66.9005815  92.5438794  40.5442803  56.2985754  89.8097134  17.6762486
  57.0952702  90.0661755  18.1407249  55.7655573  90.6045628  17.6580381
 107.7226661  91.5038872   2.3378371 107.5640629  92.3376465   2.7804762
 106.9122113  91.3286209   1.8596363  45.6044040  84.7370204  86.9624794
  46.1419121  84.1287097  87.4697013  45.5549172  84.3437060  86.0912241
  21.2876393  56.1999819  56.9877069  20.8063246  55.7989809  56.2639897
  21.9447304  55.5471727  57.2291891   8.1772095 100.7266808  56.1932659
   7.5087827 101.2436867  56.6428614   8.8792449 101.3508224  56.0093451
   7.2702051  34.6090052  76.8761818   6.9575192  35.2368471  76.2248247
   7.4465109  33.8123724  76.3756459  67.9019213  66.6014338  17.3029757
  67.6582527  67.4578285  17.6543260  68.2619762  66.7915821  16.4366996
 101.3427486  34.3326494  80.8080183 100.7426634  33.8448164  80.2439706
 101.6824093  33.6785814  81.4188020  30.7020140  83.5212517   0.6709430
  31.0480714  82.8839302   0.0462054  29.9980521  83.9636612   0.1966555
  35.3081965  56.8321085  44.7376585  35.7768393  56.7524004  43.9068460
  35.6966782  57.5986719  45.1591969   3.7663567  82.1349621   1.0863909
   3.3030307  82.9038429   1.4186209   3.1671387  81.7527390   0.4452386
  97.5903240  99.2560395  79.1141109  98.1652752  99.8703869  79.5704471
  97.8836552  98.3924779  79.4047134  75.0782195  86.6199978  60.8333485
  75.2148334  87.5670203  60.8601563  74.1709462  86.5008410  61.1142151
  17.3083079  53.0266237  17.6488781  18.1268799  53.4739161  17.4341583
  17.5646937  52.3408937  18.2655406  40.4045630  53.6100197   7.9945052
  39.5700479  54.0479422   7.8270400  40.6978846  53.9661741   8.8331634
  23.8714457  84.2737675  10.1384842  24.8242211  84.2092991  10.0729501
  23.7212324  84.8418522  10.8940959  41.0976171  79.6764469  20.7874489
  41.7279100  79.3791485  20.1312637  40.3748274  80.0416374  20.2771115
  64.1529027  91.7716321  75.7972484  63.2660118  92.1312531  75.8154731
  64.6856872  92.4251135  76.2503903 107.3349156  27.7195093  76.9277995
 106.9027414  27.7247116  76.0737328 107.5507679  28.6373732  77.0925968
  30.9519793  39.1048548  74.2885845  30.7012869  38.5113260  73.5806923
  31.8891217  38.9515993  74.4090597  21.8963933  54.2342520  33.2865095
  22.6201582  54.1170359  32.6711583  21.1684823  54.5391655  32.7448392
  60.0715065  80.9246254   9.0001839  60.9547138  80.6306839   8.7770808
  60.1144695  81.1238098   9.9354428  22.7097607  51.3100815  31.5583444
  23.5398865  51.5748787  31.1621070  22.6798797  50.3607082  31.4398980
  27.6823107  89.3859347  83.6157154  26.7637530  89.2558964  83.3799754
  27.6890466  90.2057561  84.1097580  21.4498758  40.3765392  28.2300568
  21.9979906  39.5953393  28.3043933  20.7209706  40.2156067  28.8292480
  41.8343353  97.9366207   9.0631741  41.1707926  98.4985638   8.6629689
  42.6629305  98.2470322   8.6980700   2.2165371  27.1065733  76.6631405
   2.3271276  26.4818213  77.3798601   1.7586972  26.6123936  75.9831421
  26.1237860  64.2478704  18.4974802  26.2000394  63.7687588  19.3226266
  26.0744452  65.1675558  18.7582052  54.2596579  22.1600389  23.6724210
  54.2025900  21.5994120  24.4461608  53.8581467  21.6445041  22.9729629
  76.6755835 101.5047701  86.9862312  76.5355889 102.3889836  87.3250482
  77.5728241 101.2898453  87.2411841  38.6916304  47.1080637  28.9192343
  38.0762625  47.8277874  28.7793946  38.2194495  46.4953470  29.4830227
  58.8291740  66.5871239  50.5775738  58.0415392  67.0041561  50.2283716
  58.5604858  66.2433147  51.4295340  44.3303537  79.8100233  43.4576559
  43.6288595  80.3259468  43.0602074  45.1058531  80.3668499  43.3885479
  54.9388742  75.1727581   0.4153168  54.2961121  74.6514654  -0.0656658
  55.7157421  74.6151972   0.4580835  37.7306104  35.2301145  33.4098721
  37.2275043  35.4417372  34.1962123  38.1790471  34.4123602  33.6253095
   9.8533989  23.9060757  71.2399535   8.9532496  23.7391159  70.9605257
   9.7995354  24.7132322  71.7516510  31.8310452  52.3172426  18.1806731
  32.2713089  52.9220963  17.5835526  31.9618559  52.6996088  19.0483809
  25.3877188  41.4539644  76.5826373  25.2129437  41.1863443  75.6803815
  25.9114529  42.2507879  76.4989333  35.7009459  96.1582661   4.9532050
  35.0732350  96.0258484   4.2428014  35.3339171  96.8783855   5.4659969
   2.0644431  67.3321867  20.7864404   2.6361367  67.4083471  20.0225043
   1.1786611  67.3319387  20.4236436  17.3428631  34.4123363  29.6327305
  16.9799626  33.6935592  29.1151452  17.0809591  35.2030826  29.1611862
  52.3282385  63.9157104   1.5452991  52.1303606  63.4156942   2.3371698
  51.6902161  64.6292686   1.5469112 106.8336310   0.7038996  79.5004271
 107.0171323   1.4512417  80.0696688 106.3751140   0.0805637  80.0638507
  90.3507295  31.6585466  46.3243286  91.2681320  31.6721651  46.5971224
  90.1497796  32.5705072  46.1141531  78.6516682  88.5008868  73.4967379
  78.3978621  89.1976913  74.1019468  79.0935246  87.8545340  74.0473990
  10.8051850  42.6229212  74.0091579  10.9691216  42.7220842  74.9469869
  10.6554438  43.5151407  73.6965268  28.4519315  55.2552700  34.5969915
  28.6625242  55.3534794  35.5255580  28.8038111  56.0452700  34.1867352
   8.9021660   5.8097145  76.7313044   9.8012043   6.1346075  76.7803900
   8.5285546   6.2529871  75.9696262  39.8052359  47.3354530  16.2850940
  39.1971016  48.0634499  16.4132416  40.6646395  47.7017260  16.4936543
  56.5044403  78.7917852  15.3788269  55.8302259  78.5193062  14.7563970
  56.0813332  79.4661808  15.9102416  10.4308535  28.5252497  70.5117481
   9.7627808  28.8118288  69.8890285  10.9028174  29.3255732  70.7418828
  34.8734832  87.9156208  28.0786824  35.5281901  88.4597492  27.6410627
  35.3765249  87.1967602  28.4613228  38.6021447  63.1601000  15.4027343
  38.2586265  63.1655598  14.5093155  39.1036057  63.9725304  15.4714978
 102.3544230  21.1904356  71.0772829 103.3059897  21.2730476  71.0146229
 102.0226898  22.0564196  70.8400969  19.2569867  97.6380213  37.2915690
  19.9117151  97.9175337  36.6516964  19.7675911  97.2562989  38.0055754
  95.0260367  20.1020071  79.8889248  94.1499915  19.7489473  80.0442474
  94.8858275  20.8362076  79.2909883  18.1988955  65.7866335  42.9272032
  17.3626387  66.0954428  43.2758331  18.8377762  66.4314985  43.2308626
  14.4900143  50.9823465  22.4855137  14.3158031  51.0282612  23.4256053
  15.4402149  51.0725641  22.4133205  97.8724422  25.1518890  87.5225696
  98.5871448  25.7042811  87.2058745  97.1444025  25.3390858  86.9299941
  50.5280975  96.8346938  55.4895728  50.2631489  97.7544840  55.4941218
  50.3125898  96.5190228  56.3671486  62.7473640  77.5979567  13.6192214
  62.6336432  78.5438919  13.5269606  63.1486988  77.3234272  12.7947259
 101.6778006  41.0517809  79.6754675 100.8225074  41.3340494  79.9995540
 101.7258420  41.4050791  78.7871497  11.0764624  24.6008703  89.4246749
  10.2794148  24.7276947  88.9100260  11.7420889  24.3607065  88.7800893
 102.2796502  15.2963707  80.8810048 103.1036367  15.0286028  80.4740887
 102.0563974  16.1211607  80.4495929  82.6152340  91.8610152  77.5050120
  82.7413622  91.7558011  78.4480147  83.4578530  92.1833857  77.1851640
  17.8497303  47.9023409  15.1574779  17.9021382  47.6211166  16.0709321
  18.6347592  48.4337807  15.0250685   0.4050947   1.1358950  86.3365911
  -0.2264355   1.8274996  86.1388911   0.0593902   0.7135079  87.1229176
  38.8112235  53.8159609  26.5022182  39.2954373  54.2568016  27.2003794
  38.0259204  54.3497610  26.3814378  57.6374149  67.9475784  15.9337795
  56.9045353  67.3465204  15.8001673  58.4169149  67.4036598  15.8207929
 106.2763284  40.0752939   3.9424303 107.1515487  40.4053892   3.7392992
 105.6904768  40.8004392   3.7252289  31.8569040  84.3108082  25.0421810
  31.8965816  84.7436237  24.1893482  31.4803267  83.4505272  24.8568845
  37.4041630  26.8983051  86.8623164  37.4815966  27.5202868  87.5857623
  36.4921166  26.6092512  86.8915506  65.5493307  68.8817453   5.2129626
  64.8971367  68.3149815   4.8010740  66.3113832  68.8285065   4.6361843
  94.3728088  19.8062147  12.1316254  93.4965347  19.6183885  11.7953217
  94.2259191  20.4131139  12.8571153  21.4178896  73.3406639  11.0121417
  21.9036818  74.1079140  11.3147342  21.5297627  73.3459330  10.0615168
  14.3100822  47.7594662   7.1185344  13.5709345  47.2915792   6.7299795
  15.0489008  47.5596952   6.5436679  14.1939808   6.3823483  81.9960170
  13.4655977   6.9940016  82.1035682  14.7070576   6.7454598  81.2741183
  60.8582401  96.4416695  28.3342004  60.4796743  97.1848202  28.8039422
  60.3028774  96.3387489  27.5614071  17.1891619  18.6920235  76.1635690
  16.7033221  18.0898211  75.6000655  16.9159485  19.5629236  75.8752661
  97.8311793  96.6124638  70.5100219  98.3838144  97.3440226  70.7850616
  97.0843807  97.0260199  70.0770156  22.1255207  36.7048955  31.2861681
  23.0190206  36.8203831  31.6095138  22.2139859  36.1019111  30.5480528
  49.1701984  91.7388344  22.5437260  49.8518181  91.8981647  23.1965995
  49.6321869  91.3358688  21.8085909  52.4345684  52.4378109  13.9421856
  52.7724028  51.6289377  14.3266618  52.9091167  52.5265741  13.1156540
  25.5137205 102.3034191   4.4700286  24.5913839 102.5178719   4.3302447
  25.6982255 102.6072311   5.3587878  64.5780468  65.1997375  24.3957925
  65.5344009  65.2070808  24.3562436  64.3048477  64.8963451  23.5300279
  29.3669200  89.6434021  32.9381204  29.2433500  89.9291134  33.8432908
  28.7686706  88.9030838  32.8368402  66.5968370  59.5897102  22.6531196
  66.7130136  59.8068619  21.7281461  66.2474108  60.3900719  23.0449843
  49.2871428  74.0784645  15.6499529  49.5604086  73.1796885  15.8336926
  48.7977314  74.3439198  16.4285672  53.5920095  76.6357756  16.1957502
  53.3772898  77.5431252  15.9793162  52.7544308  76.2438536  16.4429104
  32.3090816 100.1392841   9.4774789  32.5889230 100.9322453   9.9347901
  32.9518771  99.4769764   9.7312337 102.8288959   4.9045957  16.2085044
 101.9558452   4.6172536  15.9411848 102.6689552   5.5353368  16.9105077
  49.2215872  88.0221176  21.2313294  49.2530012  88.4982872  22.0610905
  48.6811638  87.2540188  21.4162779  66.0949372  12.3013319  19.6436799
  65.5811547  11.5266527  19.4153345  66.9278430  12.1791662  19.1880751
  70.2032471  77.1221447  10.7101500  69.8564339  76.9594860  11.5873563
  69.5411682  77.6700544  10.2886319  83.2944742  83.6926445  88.7136990
  84.1894404  84.0243085  88.7862487  82.7542940  84.3700083  89.1206585
  29.8403288  59.5448420  82.4634777  30.0662352  59.7584936  83.3687680
  29.7682167  58.5904142  82.4534808  19.9967170  62.6709414  38.9230585
  20.2077413  62.2207737  39.7410107  20.7659793  63.2108355  38.7414455
 101.4784636  21.1894581  58.3296769 101.4549842  22.0800802  57.9797237
 101.9441261  20.6828615  57.6642792 104.2863049  58.0321619  64.7881763
 104.3682184  57.2393915  64.2580407 105.1237264  58.1013033  65.2466242
  19.5816780  64.2560217  88.7264046  18.6875798  64.0168020  88.4822817
  19.8312641  63.6086294  89.3858075   6.3496567  39.0752813  66.0792940
   6.4701630  39.7431871  65.4043047   6.2108160  38.2637140  65.5911081
  46.9700384  80.7546425  42.2981596  47.5020838  80.8560181  43.0873871
  47.5329208  81.0640526  41.5884686  59.8570633  84.7925472  19.3345118
  60.7416296  85.1353455  19.2070174  59.4444370  84.8685265  18.4741640
  66.5946913  92.0386696  28.9125156  66.7323208  92.2617722  29.8331213
  66.0856104  91.2284088  28.9359546   9.0426540  78.1812716  17.0662701
   8.9990252  77.6345587  17.8507650   8.1658733  78.5570812  16.9871688
  17.7003264  66.4942169  11.9349241  18.3079863  67.2270870  12.0343268
  16.9695258  66.8553829  11.4332056  44.8178339  93.3630276   6.4328617
  45.5430222  93.9864349   6.3916546  44.1544962  93.7281990   5.8473152
  51.8262053  81.1556530   5.9682620  51.2693024  80.4010391   5.7768214
  52.2481537  80.9372616   6.7992246  42.7759552  80.5042267  28.6951017
  42.0485640  80.8171368  28.1573105  42.5660419  79.5871878  28.8717604
  74.0325689  97.2440434  13.9736676  73.1550026  97.4898052  13.6809075
  74.2525530  96.4733219  13.4503818   5.5793963   3.0607904   2.5888798
   5.4093943   3.0940832   1.6474855   6.5313110   3.1286539   2.6629132
  37.5926089  68.8879490   8.6820287  37.5200796  68.0113125   8.3045721
  37.7804351  69.4557333   7.9346496  53.7429523  96.6252708   5.3943926
  53.0303812  96.5187454   6.0245711  54.3405294  97.2460651   5.8112359
  59.6288061  66.1784363  29.1179991  59.2535162  67.0589590  29.1262650
  60.4771900  66.2836981  28.6874199  21.8653847  39.2479727  69.1095679
  21.9474102  39.5527861  70.0132244  21.6554762  38.3174440  69.1887896
  48.1717062  97.9441547   5.4700357  47.5054502  98.6185074   5.6026477
  48.8096762  98.3499336   4.8830351  23.6274385  83.7022018   6.4291167
  23.2526922  84.4702435   6.8602812  24.5657539  83.8862133   6.3851380
  46.3042021  64.4505835   0.1908189  46.2272739  64.2658949  -0.7452386
  46.5337896  63.6081743   0.5830830  44.9586773  88.9832497  26.2291646
  45.4348135  88.1805515  26.0165524  45.1965618  89.1693878  27.1374583
  38.4301162  91.1992645  22.3139381  39.1356778  91.1237144  22.9563618
  37.6812124  90.7716370  22.7292871 106.3733640  50.1010916  74.5686631
 106.5344586  49.9381849  73.6392872 105.4394474  50.3051207  74.6176998
  59.2902851  68.6531496  18.9043486  59.2933369  69.0050077  18.0141687
  58.8217306  69.3096685  19.4197834  33.0116510  80.8863354  23.7194633
  32.1796870  81.3465881  23.6088300  33.6776471  81.5634441  23.6002588
  35.2243733 102.0788383   0.6406046  35.3238153 101.3527107   0.0249074
  34.9314451 102.8126240   0.1002541 105.9729503  10.4515375   6.5908462
 106.4878725  10.3704656   7.3936629 105.4534839  11.2452997   6.7186093
  84.5093321   2.2662557  32.2146320  83.9430832   1.4990152  32.2979283
  84.2185472   2.6921285  31.4082170  97.7306293   6.8165792  13.8157725
  98.1902527   6.8631185  14.6541107  96.8237184   6.6199125  14.0504384
  55.8780909  78.8172293  26.1720681  55.4133463  79.6416664  26.0287118
  56.0817814  78.5009241  25.2919006  13.1729819  72.5196478  66.8128888
  13.6546780  71.6951010  66.8786471  12.2751738  72.2924921  67.0549075
  75.7757881  11.1263249  81.4231639  76.1638754  11.7135260  80.7744585
  75.5729314  11.6925737  82.1677749  20.3687153  14.4200910  12.5409305
  20.4608688  14.6981634  13.4522033  20.7222042  15.1490701  12.0311570
   1.1309148  39.9584124  56.5368955   1.8132950  40.1482031  55.8930294
   1.5852548  39.9745581  57.3792426  94.1115640   1.6006483  30.6525588
  93.1695102   1.4511693  30.5723786  94.3971370   1.8114580  29.7636056
  10.2188278  30.2722952  62.5935285   9.4940020  29.7217486  62.8897564
  10.9976317  29.8706457  62.9787271  37.8599358  88.8158798  18.5011888
  38.5474420  89.4574928  18.3225632  38.3323812  88.0063152  18.6951470
 103.2793226  56.3293764  80.5500661 104.1367903  56.3486025  80.9750502
 102.7033415  56.8014929  81.1513840  69.2862082  63.3312082  30.5584669
  69.9483156  64.0179539  30.4795265  69.5051241  62.7067995  29.8667836
  35.1245975  95.3580856  10.1303470  35.8979511  94.9023342   9.7980142
  35.1338696  95.1897812  11.0725880  26.5124297  83.4970856  10.7270098
  27.4255753  83.2167149  10.7885969  26.2817216  83.7591648  11.6182542
  58.1470919 100.0771809   5.3650200  58.1760359  99.3195534   5.9493136
  57.7337027  99.7483540   4.5667601  20.5839300  59.8052168  18.5630596
  20.0944257  60.2684832  17.8833544  21.4806652  59.7694445  18.2301688
  12.2814881  93.5245895  38.2173181  11.6038071  92.9697323  37.8311610
  13.0619370  92.9707527  38.2371449  30.6887937  75.9435558  10.3664160
  29.9100375  75.4434872  10.1220775  31.1557055  75.3754807  10.9792078
   8.8541342  20.0484774  50.5832927   8.3043839  19.3116972  50.8500545
   8.7043644  20.7143757  51.2543957  95.0297855   7.6750768  14.1641366
  95.5692791   8.4449495  14.3443501  94.9827884   7.6338018  13.2089818
  13.1305386  45.8104155  75.1760726  13.1553007  44.8842070  75.4164319
  12.2583128  45.9377882  74.8029427  39.3531370  84.7462273  17.5437760
  39.2352748  85.5355930  18.0722010  38.6482453  84.1626358  17.8244686
  43.4555864  86.2156773  30.4065347  44.2271090  86.5527248  30.8619285
  42.8395700  86.9483089  30.4045129  36.9557643  73.2535887  11.4714515
  36.8665433  73.9898539  10.8663166  37.8437614  72.9282808  11.3235819
  32.0372891  37.3219824  24.0876126  32.8127861  37.8824329  24.1146755
  31.7526793  37.2626972  24.9995971  65.9786844  95.7780075   1.4436993
  66.0478497  95.4061413   2.3229975  66.7280960  96.3694191   1.3741350
  46.0495234  78.9820004  23.0503392  46.1304712  79.6847248  23.6952090
  46.2228251  78.1813765  23.5455203   6.6880490  26.0538122  85.4690193
   6.0263277  25.4884264  85.8673896   7.2375704  26.3323376  86.2016057
   0.4385878  44.7320101  69.4237702  -0.3611230  45.0127337  69.8686187
   0.4838587  45.2827952  68.6422174  70.5796717  37.9801668  18.7858367
  70.9398769  38.0863107  19.6662998  71.3343166  37.7479375  18.2447147
  55.1595163  99.4374943  15.4995906  55.7088470  99.2432880  16.2590337
  54.3025398  99.6467686  15.8711064   6.7820150  62.0175648   7.1845186
   7.1357834  61.3681889   6.5767455   7.4636519  62.6870108   7.2432250
  81.5875791   4.9528993   5.0103104  81.6788458   5.8590520   5.3049099
  82.4636339   4.7087301   4.7117555  99.4116440  38.5763094  73.2709937
  98.5112944  38.4576819  72.9684489  99.9419203  38.5094759  72.4769084
  13.5292555  33.1531260  68.3016269  13.0008770  32.3663637  68.4359710
  13.3766009  33.3908770  67.3870795  57.4278116  37.6407170  18.0063021
  58.3758116  37.5579143  17.9030061  57.0818853  37.5575423  17.1176791
  45.9132099 100.9227848  34.3946624  45.9881687 100.3190136  35.1336312
  46.3480902 101.7216110  34.6929812  10.8019902  62.5063727  84.3342833
  11.5230919  62.6431200  84.9487285  10.0267578  62.4229548  84.8895250
  32.6438977  14.7584841  62.5232332  33.1241299  13.9477894  62.6916783
  32.4749447  14.7454569  61.5811531  49.4027758  79.2634583   4.5050675
  48.8054132  78.5238695   4.3937233  50.2249622  78.9682770   4.1137731
   9.3998578  94.0903958  77.9642610   8.8179448  94.6154317  78.5137598
   9.6587899  94.6810301  77.2569148  51.6021347  77.4623489  57.3501205
  51.6584396  78.2698774  56.8392849  51.7730999  76.7656374  56.7163992
  13.4231067  85.0971889  26.4144015  13.7444687  85.8396721  26.9259453
  12.9526913  84.5554733  27.0480299  75.1420544   7.3691286  43.7781858
  74.7933673   6.5493597  44.1283560  76.0798739   7.3300374  43.9657879
  33.6050701 100.9261131   7.0001036  34.3778515 101.4790058   7.1156335
  33.2202959 100.8665371   7.8745365  57.7847744  61.8174955  86.0380276
  57.1207405  61.7509005  86.7242180  58.5988022  61.9958326  86.5089698
  20.3710915  19.5271036  80.5380075  21.0511948  19.8440716  81.1323326
  19.7263027  20.2341101  80.5130504  22.1099043  42.2936964  22.1005654
  22.1819139  42.9323196  21.3911939  22.7000999  42.6217508  22.7790046
  31.0514712  83.7474155   9.6499127  30.9128165  82.8870010   9.2540699
  31.3072300  83.5573959  10.5525267  21.3797833  40.7386896  88.9000566
  21.1133410  40.0552103  88.2851543  22.1608855  40.3860590  89.3263955
  73.2634878 101.1472416  10.3854859  74.0077782 101.3204479   9.8090649
  73.3746815 101.7612839  11.1113071  61.0835409  55.3116941   1.2958466
  60.4952145  54.8827219   0.6744851  61.9368839  54.9090767   1.1347947
  41.7854452  83.8366318  26.9936919  42.4037361  83.5934162  27.6827431
  41.1952114  83.0861473  26.9256926   0.1112868  28.9115641  86.9432111
   0.7533027  29.0859816  86.2550043   0.6304265  28.8500712  87.7450495
  61.9027138  85.2540493   6.3039148  61.0685635  84.8452663   6.0729939
  61.8608570  86.1242676   5.9074301  46.0083271  18.1546709  61.8757455
  46.5627743  18.9283487  61.7745011  45.2998139  18.4414885  62.4519102
  34.9722910  92.4425888   0.3837565  34.1596746  92.3022938   0.8697651
  35.4290462  91.6028595   0.4333273  21.2070967  15.4671785  88.0281116
  21.2616230  16.0335562  87.2583883  22.0970751  15.4553434  88.3802951
  43.5354424 101.3897419   0.4263657  42.6900387 101.2714767   0.8594219
  44.1813850 101.1748123   1.0992674  68.6554337  58.3985996  26.4473772
  67.7151966  58.5772228  26.4306808  69.0192223  59.0825653  27.0095849
  86.3207022  82.6547798  85.4286985  86.3162628  81.7061909  85.3006770
  87.2119156  82.9225548  85.2045082   9.3008400  11.9486258  71.0143583
   9.8781468  11.7998907  71.7632418   8.6551358  11.2439081  71.0660272
  73.3279848  80.1015377  23.8913012  73.3961487  80.9987068  24.2179036
  73.9150238  79.5965576  24.4539857   8.8384510  59.8774263  71.9299941
   9.7799803  59.9985907  71.8072443   8.7145783  58.9284632  71.9109170
  37.6974511  94.7504425  14.0109026  38.1211615  95.6029606  13.9113593
  36.8781281  94.9420166  14.4672382  16.4739025  86.5215302  29.8682857
  16.4059460  86.1030006  30.7264495  17.2087371  86.0790157  29.4435096
  47.6265001  52.7352333  18.0314445  48.5625744  52.7171707  18.2306337
  47.3373175  51.8315125  18.1575084 101.8055884 102.2371729  63.9996950
 102.1445290 102.0204266  64.8682420 101.1405674 101.5702494  63.8288228
  37.6643491  90.7601643  14.4478488  38.4340596  90.1966095  14.3692088
  38.0121231  91.6001987  14.7472358  40.7145596  42.7938271  25.3719211
  41.0653877  43.4902191  25.9270692  39.8528767  42.6032162  25.7426023
  78.3439684  83.5589695   9.0972674  78.8112688  83.4410381   8.2702523
  78.5116529  84.4697475   9.3393582  95.8366051  37.4738714  84.7901152
  96.0325613  38.3969137  84.9508123  95.9873547  37.3567888  83.8521396
  70.1939344  67.3923874  32.7928805  70.9875107  66.8576431  32.7700901
  70.0885153  67.7029991  31.8936372  88.8548088  94.2244148  22.9748726
  87.9061508  94.2307186  23.1023002  88.9715672  94.3783379  22.0373726
  66.4013766  13.7833227  31.1076593  67.0082186  13.0462755  31.1764455
  66.4598082  14.2217077  31.9565630   8.8338686  23.2604572  87.9082005
   7.9068733  23.1378338  88.1128293   9.1846014  22.3721191  87.8443420
  45.6170845  64.4840240   3.7834865  45.5616045  63.8170385   4.4677997
  45.2117157  65.2595186   4.1714558  62.9690838 102.7456188  28.4223366
  63.7730694 102.7280807  28.9415050  63.2540274 102.5378513  27.5324631
  45.9356785  91.2683868  11.8137336  46.6541576  90.8717155  11.3211262
  45.5094194  90.5312729  12.2509944 101.7409872   7.8913034  11.0924828
 101.7666458   7.4782194  11.9555759 101.0664200   7.4078763  10.6155312
  82.5695801  87.7894211  33.5972786  82.1154785  87.7674961  32.7549362
  81.8988419  87.5511265  34.2372441   1.1406804 101.9011137  83.9312874
   0.8175970 101.8196508  84.8286240   1.6165472 102.7316019  83.9225219
  71.8839859  10.7106794  20.1754713  72.6038383  11.3068403  19.9689877
  71.3979100  10.6288541  19.3549430  77.6476097  73.5674953  51.6693544
  78.0723953  73.8325071  50.8535385  77.0068932  74.2576218  51.8409443
   0.6161699   3.4166349  15.1187813   0.5358181   3.0312742  14.2462707
  -0.2329912   3.2564558  15.5304861   4.0549210  49.2095947  35.9034753
   4.9021533  49.4754410  36.2609029   3.8769984  49.8456907  35.2106833
  36.4058518  61.4424515  19.1005766  35.9729981  60.5890036  19.1227770
  37.2779274  61.2596798  18.7508523 101.1464707  72.8026589  64.8989694
 100.8271471  72.3652896  65.6882565 100.3851238  72.8376278  64.3198650
   4.0552577  68.8147306   4.3220523   5.0013971  68.9598179   4.3229938
   3.9405558  67.9796362   4.7755823  26.4165807  35.0689316  14.8746479
  27.1022320  35.7028198  15.0851154  26.6734552  34.7116470  14.0245914
  67.8611342 101.9846877  87.6304266  67.5144664 102.6942977  87.0895840
  68.4525887 101.5071829  87.0487054 103.2277741   1.4565250  74.8779707
 104.0518799   1.2929270  74.4193642 103.4672799   1.4666006  75.8046679
  65.2475372  79.6227511  69.2361860  65.3097287  80.4140385  69.7711878
  64.5007006  79.1464456  69.5989518  58.8381815  49.5563126   7.9446155
  59.5103264  49.3747282   8.6014837  59.3262577  49.6815348   7.1307790
  88.5021080  36.6407657  18.5390592  88.8974847  36.8609262  17.6955914
  87.9920710  37.4159050  18.7741113  34.9444270  59.0850449  20.2688169
  34.0175104  58.8489962  20.2321863  35.0066662  59.6982431  21.0011744
 103.0367293  28.4795067  70.4186778 102.6383319  28.0956575  69.6375410
 103.6230483  29.1563532  70.0805395   0.7809974  36.0762713  69.0586750
   0.1774956  36.3249323  68.3585446   0.5142833  35.1895258  69.3010967
  36.4666367  48.4642935   8.7072700  35.9022951  47.7563763   8.3964574
  36.7212558  48.1973696   9.5905322  14.8621966   3.7257835  81.7863988
  14.2644430   4.4685337  81.7012797  14.3158795   2.9581139  81.6177224
  97.2569289  10.7004425  51.1794560  97.1050110   9.7553751  51.1775057
  98.0978122  10.8087751  50.7351487  33.6605765  33.9207098  54.1087596
  34.2901207  33.5398886  53.4964793  34.1095902  34.6853087  54.4693200
  71.8158627  36.6026855  14.8390675  72.2512054  35.7916355  14.5765638
  71.5664768  37.0185971  14.0138078  12.8382183  36.0643885  81.6201227
  12.2144629  35.5999300  81.0620611  12.7004029  35.6950495  82.4923752
  59.0115896  80.7593211  74.8666637  58.0932060  81.0265740  74.8295109
  59.2201868  80.4937848  73.9710014  96.0899798  98.0045470  83.2126908
  95.2482668  98.2482632  82.8275280  96.6913954  98.6932286  82.9293929
  14.8925043   8.3981726  77.1941368  14.4680096   7.6918385  77.6810925
  15.0509478   8.0286572  76.3254671  22.0227289  39.1003442  22.4686003
  22.1940303  38.8305497  21.5663242  22.0899582  40.0549984  22.4499989
  67.8927612  37.7383327   5.6908953  68.1569195  38.3412910   6.3858008
  68.6855888  37.2403669   5.4916757  25.7867241  46.0655975  14.7850549
  26.3881612  45.4118347  14.4285429  25.2965641  45.5969620  15.4605937
  20.6691742  53.5455751  10.3392351  21.3041663  52.8705692  10.5787814
  19.8171234  53.1261492  10.4589105  10.8627535  45.2506373  73.0476599
  10.4913784  45.9409163  73.5970454  11.3360955  45.7199308  72.3606782
  31.1754442  33.5274527  76.7900734  31.1677529  34.1942522  76.1033742
  30.6984354  33.9271280  77.5173657  47.9554367  69.7348881  -0.0052524
  48.7773705  69.3178034  -0.2635078  48.2246399  70.5253458   0.4626620
  99.6901528  80.6044658  58.4707873 100.1808563  80.5965527  59.2926018
  98.7752596  80.5138262  58.7372272  14.7502971  35.6371903  36.9653249
  13.8588011  35.3320765  37.1337700  15.2838421  34.8428416  36.9892240
  84.3748250  17.7898237  83.8475923  83.5933556  17.3316309  83.5384076
  84.1003492  18.7031815  83.9292936  69.3142000  92.0811471  82.5241499
  69.5040623  92.8876885  83.0033969  69.1081849  92.3730525  81.6361301
  88.4284856   9.0643236  42.4447291  89.1854837   9.3306086  41.9229262
  88.3594193   9.7336838  43.1254809  50.3820562  69.7654629  19.2146564
  51.1966944  70.2254820  19.4170761  50.6427383  69.0723276  18.6081588
  74.4350576  74.3463373   6.0746384  73.5322571  74.6617031   6.1162263
  74.9116087  74.9023008   6.6911066   7.8307177  45.0772974  83.0451517
   8.3085228  44.3777392  82.5995605   7.9116131  45.8318541  82.4617754
  25.2873780  13.4545157  54.6231382  24.8743845  12.5992987  54.7426050
  24.8491217  14.0227196  55.2566283  66.5397787  53.7884188   8.5274667
  66.2290049  52.8840923   8.4845293  67.1765327  53.7891769   9.2421550
  38.0838658  14.8700735  63.7296741  37.1324183  14.8059294  63.6467783
  38.2732035  15.7997391  63.6027758  24.3718077  17.7107832  77.1488087
  23.7742401  18.3590529  77.5214939  23.9263464  17.3995134  76.3608329
  17.1115768  60.2364302   4.9673760  17.6342356  60.0290251   4.1927519
  16.2049758  60.1921320   4.6634930  60.1181689  87.4664410  73.3125965
  59.9555603  86.7378553  72.7134709  59.7280565  87.1870884  74.1408520
  21.6412712  13.1473419  80.4429798  20.8008791  12.6899168  80.4700791
  21.4428927  14.0313074  80.7519840  26.3677098   2.8301975  76.6717963
  26.8832375   3.4159968  77.2261386  25.6222368   3.3607981  76.3907902
  41.9791698  68.6233234   5.5488253  42.2149801  67.7046061   5.4200488
  42.7904940  69.1040850   5.3849560  94.2118039   1.7458078  76.5436928
  95.0545278   1.2927219  76.5161006  94.2815843   2.4226019  75.8704083
  24.9716926  67.7649403  11.7674720  25.0096488  67.1845675  12.5277078
  25.8224869  68.2034540  11.7581940  91.5442516  70.2931595  22.2150683
  91.5482820  70.8975363  21.4728117  91.9414116  69.4919300  21.8737030
  77.6489573  38.5136435  88.4384787  78.5067948  38.8492796  88.6986645
  77.5007685  38.8838884  87.5683113  91.9650998  18.6727974  78.7217431
  91.2363877  18.9145300  79.2933862  91.7045274  18.9866325  77.8558080
  64.7739363  61.5618992  25.6117439  65.0121307  61.9165087  24.7551537
  65.1345444  62.1885204  26.2390709  37.6934505  67.7369261  11.5314519
  36.7591405  67.7414703  11.7394745  37.7982330  68.4347725  10.8847225
  23.1769395  67.1116447   2.1965267  23.5523582  67.3657751   1.3534905
  22.3808002  66.6313410   1.9691516  14.6152378  28.1045076  67.2117631
  14.0578009  27.6090500  66.6117494  15.4444433  27.6263783  67.2183053
  30.6617761  71.3570261   8.3652556  30.8941627  70.6245184   7.7945930
  31.3449860  71.3644981   9.0356284   3.1215522  66.6919184   1.6339076
   3.0664054  66.6239977   2.5871009   3.1101844  65.7849550   1.3281032
  71.3156501  97.3951586  76.9833069  71.6058580  96.7815026  77.6581709
  71.4009277  96.9078835  76.1638419  66.3309813  76.9891310  25.6020713
  67.2439528  76.8465710  25.3522873  66.1768913  77.9174614  25.4268718
  12.3998667   1.8412230  76.7735844  12.5731255   2.5280640  77.4173717
  11.4499356   1.8564865  76.6568308  45.0569773  63.5551834  16.4602673
  44.1565943  63.7772417  16.2231398  45.5177116  63.4970808  15.6232595
  67.6992464  63.2137203  21.8049526  68.2663393  63.8265324  22.2730327
  67.3639727  63.7167406  21.0627985   3.6616564  75.0022602   1.4575307
   4.1363275  74.7156382   2.2377656   4.1178516  75.7958651   1.1776949
  90.7070067   8.0929348  64.8281686  91.5431251   8.3784792  65.1964133
  90.1803150   7.8502104  65.5896871 104.7874203  21.8990585  35.0691550
 105.4483309  21.6896841  34.4091599 104.4224777  22.7371618  34.7851937
   7.8165877  38.0370927   9.4439316   7.3000407  38.1375480  10.2435064
   8.6985362  37.8300047   9.7529829  35.8117653   0.2835438  65.6530993
  35.6195999  -0.6438520  65.7918255  35.3231264   0.7349560  66.3413541
  96.0746398  30.7236597  82.2474359  96.4468112  31.5994474  82.3509579
  95.1292195  30.8551905  82.3189442  45.7117153  10.7696745  86.6822837
  45.4087712  11.4864037  86.1248313  45.4469753   9.9761030  86.2171082
 100.3194346   2.2295115  82.8508072 101.0973754   2.7867434  82.8276609
  99.6185675   2.7821943  82.5050317  29.0871406  85.2466679  12.4529421
  28.2577848  85.6824780  12.6490676  29.5156622  85.8214855  11.8187606
  96.3221947  99.9512442  75.6060927  96.3843409  99.0389308  75.8890216
  96.0159031 100.4220494  76.3811807  29.6214509  35.9150195   7.5544041
  30.0672531  35.7803941   8.3906865  28.8288021  36.4013839   7.7810979
  61.0001087  43.5886288   3.7953398  61.1593771  43.6148977   4.7388315
  60.9611797  42.6556635   3.5848925  16.9511725  49.6465990  78.9952640
  17.8937794  49.5672438  79.1416149  16.5770603  48.8744661  79.4196342
  57.0128012  69.7575188   2.4726856  56.6407156  69.0656424   3.0195796
  57.6772594  69.3144512   1.9450314  35.0122477   4.0359041  85.7555096
  34.5583512   3.5421965  86.4384903  35.6999422   4.5119688  86.2209936
  36.6187787  22.5728059  17.5512516  36.2358236  22.2210979  18.3549178
  36.0483861  23.3040285  17.3141897 105.9186449  26.7533657  68.0826013
 105.7412662  25.8343241  68.2829254 105.4455223  26.9162724  67.2666089
  30.5755497   6.3963148  72.9514770  29.8697258   5.9187052  73.3872883
  30.2737833   7.3044893  72.9319649   9.4869543   0.4597113  79.5846574
  10.3714062   0.1004097  79.6544896   8.9477755  -0.1261976  80.1159065
  31.9556499  41.3935041  42.8443527  31.5274143  42.1847677  42.5176239
  31.2863755  40.7127428  42.7745962 108.8308945  33.6355135  69.7552268
 107.8876629  33.7104628  69.6105521 108.9762487  32.7019236  69.9085884
  32.4216057  51.0953257  52.9289715  32.5967671  50.3383276  52.3699491
  33.1868626  51.1527655  53.5010807  28.8635088   4.6027205  84.6442093
  29.3165375   4.3363449  83.8441830  28.0403448   4.1145155  84.6271999
 109.0693440   0.4346821  48.0090945 108.2576384   0.3191969  48.5030882
 109.6890249   0.7899544  48.6462777  83.9735031  69.5228338  23.7266731
  84.8696613  69.8588324  23.7421107  83.9743328  68.8704777  23.0262041
  26.8002106  29.6823618  78.2709436  27.5663162  30.2289793  78.0962448
  27.0075108  28.8418696  77.8624933  24.4342114  10.7065365  80.2038406
  24.9370219   9.8951265  80.1329677  24.5680214  10.9930918  81.1072855
  99.3779007  87.7083381  58.5762017  98.7010351  87.0322283  58.6072605
  98.9114872  88.5023578  58.3150046  71.8109369  60.2839661   3.5079280
  71.5227461  61.0103464   4.0606958  71.1650753  59.5945835   3.6623591
  48.1947088  93.5169888  14.7012711  47.2465134  93.4177494  14.7867453
  48.3715677  94.4049358  15.0119293  25.8743931   5.0964758  86.1719708
  24.9870087   4.8947069  86.4687415  25.8277107   6.0063765  85.8784823
  15.8684230 103.0307674   5.9375900  16.3666451 102.2135353   5.9494114
  15.1865423 102.8861046   5.2815843  68.2314825  89.0229702  24.2139673
  67.5476503  89.6882248  24.1362119  69.0413189  89.4856358  23.9987302
  29.8809481  55.7917118  21.2938547  30.2911973  56.4471436  21.8580627
  29.3945694  56.3030386  20.6471634  71.5419720  17.3338998  13.3789504
  71.3297080  17.4622358  12.4544477  70.9627055  17.9377569  13.8437569
  37.4783827  17.1367952  70.0443177  38.1527449  16.5905544  70.4481571
  37.4661328  16.8632814  69.1271083  61.5068722  89.9536228   9.3555599
  60.6304264  89.8259354   9.7185701  61.7651606  90.8255577   9.6543026
 109.2351307 109.2351307 109.2351307 109.4712190 109.4712190 109.4712190
