
43370  0.0000000e+00
  37.9899502  45.2820158  17.8531969  37.3027539  44.6804285  17.4219763
  37.9770517  46.2158108  17.4685311  37.7621913  45.2198839  18.8352180
  39.3938065  44.7942305  17.7379596  39.2954659  43.7171698  17.8735137
  39.9045277  44.9809742  16.3313329  39.7737265  46.0278082  16.0572326
  40.9789515  44.8043394  16.2811029  39.2504120  43.9851141  15.3277540
  38.3524060  43.2363987  15.7741547  39.7550344  43.8869286  14.0942049
  39.2819166  43.3352661  13.3928287  40.3987455  44.5957565  13.7727976
  40.2637291  45.4392862  18.7742591  39.8790646  46.4736176  19.3521476
  41.4713955  44.8635149  18.9926887  41.7058277  44.2012930  18.2670152
  42.5552464  45.1816082  19.9927700  42.1253443  45.8074713  20.7748079
  42.9404354  43.8287258  20.6015491  43.0640697  43.1562757  19.7526526
  43.9087343  43.8088083  21.1016464  41.8314648  43.1342745  21.4152074
  41.0915995  42.6457119  20.7811642  42.4955225  41.8113518  22.0555234
  42.9965496  41.2913036  21.2390518  43.2733250  42.1148539  22.7562475
  41.7244577  41.1888599  22.5094652  41.1708546  43.9740658  22.5064993
  40.5724192  44.8061657  22.1355653  40.5481911  43.2933235  23.0869961
  41.8115091  44.3354464  23.3109021  43.7812757  45.9015417  19.4156206
  44.3983746  45.4020405  18.4619272  44.3357038  46.9279289  20.0786042
  43.8086748  47.3096848  20.8510017  45.6346130  47.5469398  19.7940361
  45.7865620  47.9250050  18.7830579  45.8985996  48.7946320  20.6411743
  46.6872740  49.4863415  20.3451562  45.0019932  49.4117641  20.6989884
  46.2362576  48.4865189  21.9460797  46.1382532  49.2979240  22.4496818
  46.6913223  46.5738440  20.0425386  46.3993168  45.5129385  20.6358099
  47.9915619  46.8880272  19.6422911  48.4661436  48.0541420  19.0109932
  48.8212109  48.8018656  19.7201753  47.7391720  48.4696627  18.3131719
  49.6549797  47.5709295  18.2268834  50.3607464  48.3820295  18.0477285
  49.2339468  47.1070814  17.3348761  50.2667999  46.4510870  19.1163123
  50.9756279  46.7365503  19.8935997  50.7829905  45.6488562  18.5889828
  48.9959431  45.8800983  19.7916973  48.7573147  44.9443054  19.2862833
  49.2891169  45.6239891  21.2830400  49.5795870  44.4986916  21.6748905
  49.1504717  46.6351461  22.2004890  48.8339615  47.4811411  21.7485833
  49.2345428  46.5384340  23.6999440  50.0936794  45.9034157  23.9161301
  49.5126677  47.9837847  24.2552972  50.3442049  48.5277987  23.8073039
  48.6555767  48.6170340  24.0261936  49.8297834  48.1054688  25.7820058
  49.0855789  47.4876499  26.2845635  51.2413406  47.6501846  26.1143112
  52.0475101  48.3209753  25.8172536  51.3624096  47.5023413  27.1874332
  51.2872839  46.7081928  25.5678296  49.7262478  49.5315742  26.3403034
  48.6812878  49.8176384  26.2206006  49.9888086  49.5425415  27.3981547
  50.4785061  50.1414061  25.8399892  48.0865479  45.8993483  24.4801712
  48.2296228  45.0467539  25.3598738  46.9180346  46.2335014  23.9561749
  46.9075251  46.8252850  23.1377745  45.7333136  45.4493523  24.3449640
  45.6886339  45.5764151  25.4266119  44.5009422  46.0585976  23.6257911
  44.7337151  46.1971283  22.5699830  43.7320089  45.2950096  23.7431550
  44.0200853  47.2590256  24.3267322  43.8129520  46.8026638  25.2946854
  44.8157120  47.9779196  24.5223570  42.8187132  47.9227543  23.6413336
  41.9650459  48.4944344  24.3973947  42.6783609  47.8744364  22.3911595
  45.8111668  43.9436054  23.9104629  45.6411791  43.0258846  24.6902275
  46.2856531  43.6798859  22.6923895  46.3110781  44.4821501  22.0793462
  46.5599918  42.3713207  22.2156310  45.6244040  41.8348265  22.3735833
  46.9668722  42.4089098  20.6877446  47.8955603  42.9546309  20.5209208
  47.0983696  41.4223909  20.2432346  45.9895992  43.0135155  19.8561478
  46.1687660  43.9520550  19.9491167  47.5566626  41.5960169  23.0346227
  47.5764036  40.3629923  23.0942750  48.5613632  42.2183037  23.6297607
  48.6896706  43.1817150  23.3550334  49.6055651  41.6492414  24.4289684
  49.8952007  40.6742477  24.0370464  50.8130836  42.6246881  24.5573092
  51.2020350  42.8731728  23.5698533  50.3898191  43.5527325  24.9415970
  52.0164919  42.1870327  25.4752135  51.6214466  41.9481039  26.4626098
  52.6833868  40.9413862  25.0341320  52.0056820  40.0894976  24.9784493
  53.0332422  41.0122395  24.0042377  53.5086441  40.6586695  25.6876755
  53.0807447  43.2993126  25.4503202  53.4372330  43.3836603  24.4237256
  52.5534439  44.2207766  25.6972313  53.8869047  43.2353973  26.1811566
  49.0936708  41.4281702  25.8476710  49.1667032  40.2956820  26.2745786
  48.4386349  42.4587250  26.4433956  48.3969307  43.3648920  25.9992981
  47.7563095  42.3081541  27.7033925  48.5254240  42.1700811  28.4633255
  47.1148157  43.6858130  28.0220175  46.3501692  43.9292049  27.2843313
  46.7698431  43.6324930  29.0546131  47.9330730  44.4037819  27.9665422
  46.7729473  41.1260223  27.7656436  46.8182182  40.2871704  28.7010264
  45.9973335  40.9569979  26.7124844  46.2354517  41.5969038  25.9682250
  45.0794220  39.8216558  26.4389133  44.4536257  39.7375321  27.3273969
  44.1859245  40.0392103  25.2511120  43.7239885  41.0212946  25.3522515
  44.8095274  39.9614477  24.3605137  43.0833197  39.0171099  25.2743578
  42.9029179  37.9499745  24.4760418  43.4320784  37.6431847  23.5859442
  41.7251921  37.3831248  24.8095465  41.2821579  36.6189647  24.3197656
  41.1787939  37.7993894  26.0520315  39.9555278  37.5780749  26.7004275
  39.2395663  36.8942213  26.2689781  39.6750712  38.4505558  27.7317119
  38.8016105  38.3936024  28.3643460  40.4943705  39.5403457  28.0918169
  40.1904535  40.1777267  28.9090014  41.7016172  39.7987342  27.4048018
  42.1457720  40.7345915  27.7102542  42.0303440  38.9333367  26.2956738
  45.8577871  38.4939671  26.3770127  45.6096745  37.5235486  27.0495963
  46.8756533  38.4098911  25.4852748  46.9967175  39.1786909  24.8415422
  47.8172636  37.3274803  25.4049850  47.1686697  36.4805388  25.1811218
  48.8074064  37.4836898  24.2278719  48.2758379  37.6625705  23.2932377
  49.4165134  38.3625031  24.4394660  49.6227646  36.2427950  24.0142226
  50.1832581  36.5399766  23.1278634  50.3337622  36.0947108  24.8270297
  48.7392712  34.9837303  23.7436652  47.5046253  34.9624109  23.6634040
  49.3303442  33.8485026  23.6226821  48.7104321  33.0677199  23.4608412
  50.3352022  33.7534571  23.5862947  48.4519768  36.9415832  26.7475605
  48.4667158  35.7718134  27.1489286  48.9484596  37.8601360  27.5180745
  49.0207863  38.7946153  27.1417522  49.6323681  37.6853561  28.8424969
  50.5287313  37.1011019  28.6344528  50.1011276  39.0919232  29.4274235
  49.3276453  39.8398328  29.2529035  50.3051138  39.0656543  30.9131718
  49.3619013  38.9685655  31.4507866  50.9222269  38.2098222  31.1867118
  50.9309387  39.8987103  31.2332702  51.3741732  39.5913601  28.7766171
  51.6693354  40.5970907  29.0757775  52.2036982  38.9913225  29.1507125
  51.2169504  39.4506431  27.7072334  48.6784935  36.9589901  29.7867846
  49.1130257  35.9689879  30.3618002  47.4659300  37.3887515  30.0639200
  47.1535349  38.2166123  29.5769238  46.4682150  36.6467762  30.8509636
  47.0232391  36.5203691  31.7805171  45.2205038  37.4910164  31.0941124
  45.5268955  38.4711266  31.4596343  44.6784401  37.5688362  30.1516628
  44.4025803  36.8603754  32.2337890  43.9549160  35.9894228  31.7551041
  45.1251125  36.5562940  32.9911399  43.2925367  37.7579689  32.7898884
  42.7643442  38.2407618  31.9676805  42.6291084  37.0845842  33.3325839
  43.9080000  38.8349891  33.7139344  44.4505119  38.3993673  34.5529866
  44.4237852  39.6200490  33.1609964  42.7698946  39.4577241  34.4603658
  42.1141624  38.7608194  34.7835302  43.1637716  39.9831915  35.2277350
  42.2701359  40.1138067  33.8773561  46.1865854  35.2917552  30.3209019
  46.2771225  34.3612671  31.1576867  46.0215855  35.0980020  28.9861035
  46.0119581  35.9537172  28.4496737  45.8339167  33.8226175  28.3144021
  45.1201820  33.2084966  28.8635254  45.4257345  34.1959310  26.8470478
  46.1104250  34.9556136  26.4699793  45.3812075  33.3535051  26.1568069
  43.7474251  34.8725724  27.0566583  44.0362644  36.1195064  27.4395776
  47.0942688  32.9278898  28.3710647  46.9896984  31.8091416  27.9007578
  48.2502365  33.3297873  28.8446999  48.4001732  34.3121886  29.0249896
  49.3337727  32.4762130  29.1914892  49.4087982  31.5411758  28.6363530
  50.7095766  33.1438899  28.7928653  50.6342697  33.4189391  27.7408290
  50.7904530  34.1041303  29.3022776  51.9521189  32.2286940  29.0211797
  51.7093325  31.1700869  28.9289355  53.0190182  32.4300313  27.8835320
  52.7146864  31.9411993  26.9580436  53.2800627  33.4738779  27.7093482
  53.9392138  31.8721581  28.0570769  52.6031494  32.5298667  30.3945732
  53.4562349  31.8813372  30.5939889  53.0970335  33.5007572  30.3551793
  51.8721819  32.4012947  31.1928558  49.2152214  32.0096636  30.6850433
  49.0355349  30.8602023  31.0202718  49.1467428  33.0186605  31.5721059
  49.2439604  33.9620209  31.2246537  49.0642214  32.9520321  33.0464268
  49.9455452  32.3553348  33.2816291  49.2900038  34.3441653  33.7875247
  48.4428692  34.9698973  33.5065866  49.4097662  34.2189240  34.8636627
  50.5130386  35.2213168  33.3679771  50.5730104  35.2219844  32.2796273
  50.5944681  36.6478300  33.8688207  49.7142553  37.2176695  33.5711408
  50.5505419  36.5776420  34.9556708  51.5433073  37.0746040  33.5437274
  51.7755175  34.5423460  33.8812876  51.8015766  33.5198069  33.5046744
  52.6524544  35.0969172  33.5473156  51.6841078  34.4073319  34.9590230
  47.8013563  32.2915792  33.6292648  48.0000257  31.5054893  34.5666313
  46.5417957  32.4705887  33.0961704  46.3949013  33.0737662  32.2994900
  45.3097630  31.8390703  33.7296247  45.3906012  31.9417262  34.8117661
  44.0679359  32.4545383  33.0780888  43.2063437  32.2438097  33.7116098
  44.2720127  33.5197449  32.9695201  43.7260008  31.8770790  31.7394829
  44.6226120  31.9726825  31.1270738  43.3681679  30.8474898  31.7405415
  42.6373577  32.7623749  31.1183071  41.7697144  32.8522730  31.7719221
  43.1165600  33.7407851  31.0838127  42.2202110  32.2414684  29.6825504
  43.0919504  32.2024894  29.0293694  41.8496609  31.2219524  29.7892356
  41.1880207  33.1140256  29.1474104  40.3132343  33.0610895  29.6494627
  41.5129662  34.0671468  29.2253113  40.8756351  32.8304362  28.2297516
  45.2588511  30.3417230  33.7326241  44.4212914  29.7215748  34.3896890
  46.0504436  29.8136210  32.8762817  46.6294622  30.4695249  32.3716640
  46.2997198  28.3306336  32.8166032  45.4754066  27.7331924  33.2060623
  46.3350105  27.8408241  31.3454604  47.2353125  28.3000875  30.9372497
  46.3754463  26.7578578  31.2286282  45.1659775  28.2714486  30.3694654
  45.4188919  29.3141866  29.4281554  46.3735247  29.8166943  29.3774962
  44.4019699  29.7434425  28.5515404  44.6005249  30.5582333  27.8710318
  43.1620073  29.1146636  28.6247706  42.1685696  29.3607903  27.7157354
  42.4491549  29.8526692  26.9405413  42.9532099  28.0631208  29.5410919
  41.9190645  27.7524948  29.5197368  43.9509583  27.5292730  30.3995800
  43.7473440  26.8335581  31.2001562  47.5242043  27.7660370  33.6320543
  47.7541018  26.5723801  33.6054325  48.2568979  28.6495662  34.3850231
  47.9590368  29.6132565  34.4368863  49.3522835  28.3412313  35.2803659
  49.8041821  27.4536467  34.8375535  50.3088570  29.4961524  35.2674222
  50.5747509  29.7179675  34.2338872  49.8965406  30.4080391  35.6993532
  51.5400934  29.2338991  35.9681177  52.3016071  29.5265937  35.4621267
  48.8587666  27.9976463  36.7174482  47.9388332  28.6306834  37.2236538
  49.4253683  26.9276977  37.2722578  49.9599743  26.2894559  36.7004657
  49.2598104  26.6557074  38.7567401  48.2327318  26.8640518  39.0564108
  49.5969296  25.1660800  38.8061929  50.6397486  25.0515294  38.5103750
  49.4850016  24.6397257  40.2179766  49.5457315  23.5516357  40.1962662
  50.2873564  24.9661875  40.8796120  48.5447741  25.0380683  40.5992937
  48.7480640  24.3196130  37.9618859  48.9752102  24.3200040  37.0291448
  50.2823019  27.5094533  39.5961642  50.0244856  27.9193878  40.7035303
  51.2909937  28.0855775  38.9465261  51.3235569  28.1184459  37.9375863
  52.5411749  28.7825704  39.4665956  52.7090406  28.4004831  40.4735374
  53.6958551  28.2928753  38.5716724  53.6325407  28.6624932  37.5482106
  55.1172018  28.6338830  39.1027689  55.3552389  29.6878123  38.9589858
  55.2743244  28.2248664  40.1008272  55.8044720  28.1093907  38.4389377
  53.7317610  26.8815756  38.6332321  53.3014822  26.5884304  37.8266788
  52.3490191  30.3094363  39.4423842  53.3107758  31.1548543  39.3966460
  51.1113024  30.7587099  39.4174433  50.3552246  30.0955343  39.5104814
  50.6681252  32.2506738  39.3157005  51.4925003  32.8958964  39.6193290
  50.2873850  32.4907088  37.8987241  51.0517359  32.1789670  37.1869040
  49.4482946  31.8387723  37.6558042  49.9390888  33.9072657  37.6575756
  48.6744070  34.3629551  37.4612617  47.7941084  33.7485647  37.3429275
  48.7109852  35.7912540  37.3032713  47.9173803  36.2880921  36.9245315
  50.0044441  36.2906075  37.4834681  50.5041075  37.5692606  37.5445580
  49.9173450  38.4514308  37.3350644  51.8678856  37.7443194  37.6942849
  52.3221254  38.7211657  37.6178265  52.7396011  36.5850210  37.9159403
  53.8060713  36.7275238  38.0093884  52.1759081  35.2463531  37.8965211
  52.7524805  34.3699050  38.1530499  50.8062744  35.0777340  37.6866794
  49.5273304  32.4290776  40.2856541  48.6296940  31.5741992  40.4132509
  49.5891571  33.5682058  40.9231949  50.3885651  34.1566062  40.7365751
  48.7799692  33.9489055  42.0701694  47.9545116  33.2512212  42.2114182
  49.7019434  33.8683176  43.3318424  50.6654835  34.3442321  43.1496382
  49.2473078  34.3186069  44.2142487  49.9184847  32.4700093  43.8347769
  48.9783764  31.9442129  43.6679220  50.7394743  32.0583034  43.2477713
  50.4194164  32.3481417  45.2358484  51.4705896  32.6364493  45.2314091
  49.9037695  33.0406356  45.9011745  50.1631832  30.9256387  45.6611347
  49.0907574  30.7371187  45.6115532  50.7249260  30.2152133  45.0546408
  50.6969213  30.6958985  47.0340443  51.6812420  30.8994508  47.1329260
  50.1384401  31.2100935  47.7002335  50.5963516  29.7471333  47.3654461
  48.1499958  35.3049707  41.8627119  48.8264990  36.2560153  42.1802664
  46.9775391  35.3990412  41.1755466  46.1813641  34.2459488  40.6237793
  45.6168270  33.7335658  41.4028025  46.7822361  33.5228157  40.0723028
  45.2503443  34.8193693  39.6504641  44.3094158  34.8580933  40.1993322
  45.1974297  34.2780757  38.7058473  45.6092119  36.3147473  39.4613314
  44.8291063  37.0463753  39.2509437  46.3367033  36.3432121  38.6501312
  46.3661957  36.6785312  40.7396603  47.1569061  37.3901606  40.5020332
  45.4286575  37.3157930  41.7060041  44.8952723  36.6295934  42.5922155
  45.2318239  38.6147785  41.5719128  45.8134174  39.1423702  40.9366989
  44.2322779  39.3370628  42.3402309  44.5225382  39.5121503  43.3761787
  44.0092993  40.6865883  41.6589355  45.0251675  41.0811949  41.6389942
  43.6048698  40.5060911  40.6629658  43.0922174  41.6615486  42.3826170
  42.0701742  41.2826967  42.3833752  43.5076427  41.8247604  43.8540268
  43.0877542  41.0355568  44.4776869  44.5956182  41.7900991  43.9107227
  43.1366539  42.7971983  44.1778088  43.0832672  42.9839897  41.5720081
  43.9776134  43.5949087  41.6945744  43.0488873  42.7012062  40.5198908
  42.1679831  43.5629559  41.6951418  42.7817488  38.6528111  42.3864126
  42.3297834  38.2225990  41.3007545  42.0403767  38.6849332  43.4992981
  42.5137615  39.0224528  44.3251801  40.6240797  38.1907153  43.6030149
  40.6279230  37.1071601  43.7213135  40.0290632  38.8302088  44.8790073
  40.8613873  38.9276814  45.5760336  39.8320341  39.8593426  44.5787430
  38.7872052  38.1836247  45.4533291  37.6810503  38.0286837  44.8748779
  38.8225484  37.8004336  46.7183304  38.0163598  37.4175191  47.1911287
  39.7138691  37.7017307  47.1829939  39.7898626  38.6611366  42.3909521
  39.8852444  39.8577857  41.9948769  38.9007998  37.7426696  41.8958378
  38.7975407  36.3263655  42.2413397  38.9308643  36.2194800  43.3178616
  39.5801163  35.7734704  41.7217398  37.4226928  35.7949400  41.7245770
  36.6797853  36.0605717  42.4766588  37.4514818  34.7103143  41.6203451
  37.3058963  36.6574216  40.4519081  36.2824416  36.6524124  40.0769186
  38.0110502  36.1790538  39.7721863  37.8914499  38.0113840  40.8552933
  38.4064722  38.4154558  39.9837565  36.7489052  38.9722085  41.2738848
  36.1490035  39.6349311  40.4338884  36.4592743  39.2046928  42.5288677
  36.7651391  38.5493302  43.2338858  35.3761768  40.0859642  43.0289507
  34.8764539  40.5199718  42.1629143  34.3669343  39.1722488  43.7682438
  34.1268110  38.2879615  43.1779242  34.8763061  38.9516497  44.7063112
  33.0450416  39.8817372  44.0379143  32.5933528  40.6448555  43.1651688
  32.3950768  39.5794654  45.1634312  31.7096949  40.1962042  45.5757236
  32.8904343  38.9783955  45.8064222  36.0245490  41.1891842  43.9152145
  35.3737974  41.7244768  44.8145342  37.3086071  41.5821314  43.6422348
  37.8387308  41.0487986  42.9679823  38.1287313  42.6485634  44.3825674
  38.3493114  42.2888851  45.3875923  39.5209622  42.9178190  43.7309694
  40.0575113  41.9940519  43.5144567  39.2597628  43.5036612  42.8496838
  40.2030468  43.7816620  44.5345879  40.5473423  43.2988262  45.2895308
  37.2975254  43.9635181  44.4753551  36.7647982  44.4509077  43.4781361
  37.3698092  44.6651506  45.6101513  37.8680348  44.3108797  46.4141178
  36.7729187  45.9856558  45.7856750  35.7010841  45.8770084  45.6199455
  37.0577312  46.4070129  47.2839975  36.4776731  47.3123550  47.4628448
  36.6939712  45.6505871  47.9794121  38.5541987  46.8035507  47.5770378
  39.4674945  46.1328697  48.3749914  39.4281483  45.0802279  48.6133051
  40.6224155  46.9056416  48.4030485  41.3802576  46.4936543  48.9284515
  40.3995228  48.1607580  47.9555798  41.1625862  49.3060923  47.9702520
  42.1674490  49.2541504  48.3626270  40.6467342  50.5200005  47.5170708
  41.1091661  51.4870739  47.6487207  39.3648314  50.5581045  46.9384766
  39.0618348  51.5438986  46.6178322  38.5360456  49.4085264  46.9382477
  37.5471926  49.3593836  46.5067816  39.0639567  48.2087421  47.4606609
  37.3161173  47.0994759  44.7918653  36.7059660  48.0970526  44.4898605
  38.5936260  46.8709993  44.4281435  39.0147710  46.0759497  44.8870945
  39.3037748  47.6242352  43.4121847  39.5263004  48.6383533  43.7440681
  40.6253338  46.8788958  43.0230188  40.4667044  45.8584166  42.6743555
  41.1228848  47.5354242  42.3092175  41.6652060  46.9799852  44.1595411
  41.1469412  46.5816832  45.0318146  42.8880644  46.0495424  43.9916086
  43.6850691  46.5736532  43.4641600  43.3385420  45.6858635  44.9151373
  42.5415564  45.3186083  43.2610130  42.1782780  48.3871984  44.4092560
  42.5832081  48.8591576  43.5140562  41.4335775  48.9569807  44.9650192
  43.0362463  48.2534361  45.0681162  38.4441257  47.7133894  42.0813799
  38.3110714  48.7400007  41.4109516  37.9783654  46.5652180  41.6140985
  38.1416917  45.7711601  42.2165012  37.2234464  46.4550638  40.4137611
  37.7040100  46.8440723  39.5160818  37.1329141  44.9467945  40.0552654
  36.4470720  44.4097900  40.7105112  36.5068579  44.8318529  39.1704249
  38.4533811  44.1779089  39.8622727  39.6105814  44.6999407  39.2973447
  39.7777295  45.7289743  39.0152860  40.6641817  43.8607597  38.8369656
  41.6354322  44.2355776  38.5495925  40.5730820  42.4899960  38.9961910
  41.4713097  41.6078997  38.5755467  42.3216486  42.0381832  38.4598517
  39.3851972  41.9459295  39.5505071  39.3886399  40.8752298  39.6919250
  38.3832550  42.7505064  40.0996780  37.5290370  42.2506571  40.5319548
  35.8828878  47.1434498  40.5440521  35.4204488  47.7713871  39.5976686
  35.3091455  47.0590496  41.7408895  35.6970572  46.4950418  42.4835348
  34.1152883  47.7934122  42.0574617  33.4660053  47.6283073  41.1976480
  33.3722830  47.2427511  43.2682371  34.0704894  47.2591972  44.1051006
  32.4903917  47.8589582  43.4433317  32.7933073  45.8545303  43.0251074
  31.7128921  45.6777620  42.1578836  31.6216540  44.3290901  42.0436573
  30.8792663  43.8865232  41.3960457  32.6323342  43.7637091  42.6955175
  32.8871155  42.7955866  42.5615931  33.3346248  44.6548843  43.3565617
  34.2940474  44.5450783  43.8401461  34.4033718  49.3401432  42.1277475
  33.4226847  50.0477457  42.1843672  35.6237030  49.7873211  42.3777103
  36.3491297  49.1818953  42.7345276  35.9745717  51.2409592  42.2577333
  35.0828028  51.8065357  42.5278807  36.9664812  51.5310860  43.3347034
  37.9724002  51.1712503  43.1185007  37.0294595  52.6033306  43.5202360
  36.6672540  51.0158587  44.2474508  36.4347434  51.6475105  40.8590841
  36.4737201  52.7840376  40.4819441  36.7917180  50.7016134  39.9546289
  36.6750765  49.7356272  40.2254963  37.3750377  50.9385872  38.5762763
  37.5793386  50.0113726  38.0408955  36.4624238  51.8313408  37.6476169
  36.1485219  52.7664471  38.1114507  36.9781232  52.2070217  36.7638659
  35.1853752  51.0970020  37.3484468  34.7433877  50.7507610  38.2827210
  34.5333719  51.8031454  36.8342972  35.4087114  49.9195910  36.3537979
  35.9427285  50.3157568  35.4900956  35.9317255  49.0542698  36.7609596
  34.0048862  49.4102240  35.9374928  33.5147333  48.8856983  36.7576909
  33.2656384  50.1539803  35.6401062  34.0600181  48.3205605  34.9854851
  33.1727409  48.0573368  34.5810676  34.6392393  48.5575914  34.1927528
  34.3886328  47.4659967  35.4119039  38.8496423  51.5209723  38.7865329
  39.2861533  52.2790146  37.9162621  39.4802833  51.1974239  39.8961282
  39.0388203  50.5667973  40.5499792  40.8681917  51.5872049  40.1241350
  40.9970999  52.6026917  39.7496104  41.2752676  51.5546846  41.5584230
  41.1105537  50.5311918  41.8952179  42.3455763  51.7296886  41.6676283
  40.5205297  52.5600290  42.4763823  39.4472337  52.3895502  42.3923016
  40.8692884  52.1339369  43.9540768  41.9391203  52.1423817  44.1626263
  40.4425907  52.8910398  44.6119738  40.3629208  51.1807966  44.1064358
  40.8117437  53.9981079  42.0848131  41.8891811  54.1631031  42.0855856
  40.3418446  54.2460871  41.1330748  40.2910519  54.6327829  42.8018665
  41.7223692  50.6225204  39.3502355  42.8638697  50.9777784  38.8471341
  41.1796761  49.4176960  39.1904187  40.3184700  49.2390060  39.6869087
  41.4360046  48.5712194  38.0230594  42.0428085  48.9713478  37.2107840
  42.1540260  47.2954178  38.5375571  41.5921497  46.7592907  39.3023896
  42.3563862  46.5447521  37.7735782  43.5222006  47.4763966  39.1849065
  43.5014868  48.3369589  39.8535728  43.8710737  46.1689854  40.0036860
  43.4377670  46.3276052  40.9912014  43.5186625  45.3311014  39.4021344
  44.9340725  46.2373400  40.2348948  44.5949411  47.7141571  38.0928135
  44.4078398  48.4741306  37.3341751  45.5026245  48.1193781  38.5400343
  44.8515177  46.7677784  37.6167655  40.1371813  48.1860542  37.4069929
  39.1954231  48.1186485  38.1626058  40.0951529  47.8348684  36.1230350
  40.8503628  48.0694151  35.4947400  38.8338447  47.4616814  35.4326320
  37.9080105  47.5439978  36.0019803  38.6586761  48.4288836  34.2776918
  38.6947703  49.4306803  34.7057128  39.4336867  48.2435513  33.5339785
  37.3133159  48.3702946  33.6281657  36.5791559  47.4128628  33.8354683
  36.9700265  49.2239380  32.7638841  39.0031767  46.1103725  34.8207068
  39.8312235  45.9249687  33.8896203  38.1502461  45.0945616  35.1486611
  37.0658326  45.0890017  36.1347437  36.3658524  45.8575439  35.8069158
  37.4176526  45.1920271  37.1612453  36.2961292  43.7892723  35.9742236
  35.4140949  43.9149380  35.3462720  36.0005951  43.5014486  36.9831419
  37.3801017  42.8543615  35.4276419  36.9133663  42.0276117  34.8921561
  37.9572940  42.5734138  36.3085651  38.2738781  43.8014889  34.5781064
  39.2850161  43.3952045  34.5530128  37.6642299  43.7499809  33.1986952
  37.9433513  42.7978039  32.4467063  36.9644499  44.7643089  32.7929330
  37.0444965  45.6084347  33.3416986  36.2730289  44.9452972  31.5584469
  36.0163140  44.0229750  31.0373688  34.8553801  45.5485439  31.8423080
  34.2161393  45.2531672  31.0103083  34.3744421  45.0885010  32.7055359
  34.7960997  47.0175886  31.8150353  35.5181289  47.2840691  32.3888540
  37.0410824  45.6577301  30.4494166  36.4232230  45.8937311  29.4334745
  38.3273244  45.9444380  30.6631279  38.7900448  45.8078051  31.5504384
  39.2982173  46.6607428  29.8021674  38.8824987  46.7564964  28.7991166
  39.5007420  48.0702114  30.2900672  39.7853899  48.1075048  31.3415837
  40.3849936  48.9114189  29.3607473  41.3481092  48.4021664  29.3265700
  39.8516679  48.9925146  28.4136009  40.5984020  49.9079418  29.7473979
  38.2540035  48.7377214  30.2968240  37.8834653  48.8485384  31.1754751
  40.7124662  46.0206795  29.8310947  41.2399864  45.8051729  30.9233475
  41.3286448  45.6863546  28.6347294  40.8956289  45.7878208  27.2655559
  41.3701248  46.6239309  26.7518616  39.8342967  45.9508753  27.0782518
  41.4641714  44.6227312  26.4795089  41.4897346  44.9919415  25.4542637
  40.7715368  43.8092089  26.6952658  42.8415203  44.4878817  27.1119452
  43.4671307  45.2700901  26.6819882  43.3234024  43.5187387  26.9828773
  42.5684738  44.8022556  28.5768700  42.3402691  43.8918638  29.1311312
  43.7515545  45.4285765  29.2684960  44.6387005  44.6573877  29.7693467
  43.9560747  46.7555523  29.2859435  43.3117247  47.3527145  28.7876344
  45.2678633  47.3342323  29.6438217  45.9474325  46.5459490  29.3199468
  45.3817463  48.7718391  28.9584994  44.7629356  49.4686413  29.5238638
  46.8527126  49.3739986  29.1910887  47.6622391  48.7412167  28.8272834
  46.9724560  50.3203297  28.6636281  47.0210266  49.5489597  30.2537036
  45.0453234  48.7902260  27.4297023  45.1645660  49.7300482  26.8906188
  45.8050966  48.0856276  27.0914793  44.0796661  48.2963181  27.3216939
  45.5661440  47.3738194  31.1641240  46.6738749  47.5354338  31.6873407
  44.5030546  47.1848631  31.8817282  43.6449862  47.0771408  31.3599849
  44.4572115  47.1034241  33.3662581  45.0320578  47.9573298  33.7247276
  43.0306482  47.2023582  33.9476848  42.4165535  46.4377546  33.4718990
  43.0397701  46.8729973  34.9866939  42.3932076  48.5255194  33.8767409
  42.1370268  49.4168282  34.8485255  41.5627146  50.4944754  34.3059540
  41.2959480  51.3836527  34.8578644  41.6135931  50.3887701  32.9644632
  41.3896894  51.1443186  32.3327088  42.1212482  49.1067362  32.6355195
  42.2078753  48.6690903  31.6519713  45.1193285  45.7764673  33.8377643
  45.6188583  45.8256769  34.9596572  45.2440643  44.7807264  33.0173659
  44.9937820  44.9076462  32.0471311  45.9410191  43.5663128  33.3458900
  45.5655479  43.1816816  34.2941427  45.7587957  42.5658560  32.1644688
  46.0889578  43.0487728  31.2447500  46.5980577  41.2589455  32.4754500
  47.6467228  41.4997053  32.6499152  46.1412859  40.7101774  33.2990479
  46.6547203  40.7386827  31.5193009  44.3226051  42.1728373  31.9392633
  44.0517521  41.5825272  32.8146410  43.6805820  43.0519629  31.9943929
  43.9818192  41.4086151  30.6939912  44.3799400  41.9751501  29.8521829
  44.4546986  40.4293966  30.6190133  42.9093504  41.2393904  30.5976009
  47.4837112  43.7418175  33.5932398  48.1918669  43.0484915  34.3191051
  48.0688143  44.7374153  32.8748155  47.4967051  45.2604675  32.2273493
  49.4742775  45.1317739  33.1049800  50.0526381  44.2454624  33.3658719
  50.0920582  45.7150221  31.7745280  49.5629120  46.6185188  31.4715362
  51.1594963  45.8148718  31.9712830  49.9242496  44.8619366  30.5227423
  48.8514519  44.7806787  30.3478003  50.4863310  45.5017281  29.2691374
  50.0930500  46.5163422  29.2059684  51.5659189  45.4819345  29.4181323
  50.1826477  44.9981451  28.3513784  50.5271435  43.4922266  30.7103014
  51.6143608  43.5518026  30.7604527  50.1279020  42.9658175  31.5772533
  50.1698399  42.9008532  29.8672628  49.6540833  46.1164188  34.2802811
  50.7115793  46.1670828  34.9011302  48.6776352  47.0179558  34.5254707
  47.9609203  47.1116257  33.8200307  48.7122583  48.0204868  35.5571890
  49.6731901  48.5343218  35.5834246  47.5758362  49.1008949  35.2728581
  46.5656662  48.6935377  35.3143239  47.7451420  49.8039722  36.0884047
  47.8337240  49.8475170  33.9473963  48.7484360  50.4337692  34.0352225
  48.0182076  49.0728188  33.2031488  46.5484762  50.7484531  33.7133622
  46.6677523  50.9999847  32.6595116  45.6710148  50.1347589  33.9171863
  46.5483046  51.9891834  34.5315909  47.2800636  52.2108698  35.1915026
  45.7930231  53.0250072  34.3922472  44.8649597  53.1438875  33.4525037
  44.6344423  52.4096966  32.7983403  44.5622015  54.0946293  33.2958698
  46.0136795  54.0704966  35.0992632  46.7656517  54.0017271  35.7700157
  45.4216194  54.8881578  35.0676847  48.5784388  47.2933435  36.9362783
  49.1596460  47.7339077  37.9159975  47.8190756  46.1578894  36.9845128
  47.2321320  45.9535265  36.1883736  47.5948811  45.2284479  38.1097484
  47.1480322  45.6478024  39.0111804  46.5561199  44.1835499  37.7143717
  45.6486607  44.7404385  37.4809217  46.9070768  43.7714577  36.7682695
  46.1944151  43.1523561  38.8183689  47.0958805  42.5447512  38.8975906
  45.9815121  43.6234331  39.7779894  45.0567198  42.3214579  38.2776380
  45.2868271  41.1316681  37.9273558  43.9306307  42.8402519  38.1565285
  48.9530134  44.5591307  38.5263228  49.2811394  44.3665028  39.7170424
  49.6749401  44.1424227  37.5026274  49.4081640  44.4464397  36.5771508
  51.0491180  43.6601591  37.6997018  51.0448837  43.1277990  38.6508465
  51.5944862  42.6269865  36.6411138  51.6197109  43.1995058  35.7139206
  53.0135298  42.0639753  36.9791794  53.7976694  42.6687527  36.5236902
  53.2784653  41.8063021  38.0046129  53.0569458  41.0349607  36.6223264
  50.7017565  41.4261770  36.3674378  50.5610085  40.7602453  37.2188044
  49.6993208  41.7998266  36.1585855  50.9547520  40.5956888  35.1007700
  50.7463884  41.0862446  34.1499615  51.9321156  40.1177216  35.1672029
  50.2907228  39.7314596  35.1173139  52.0930862  44.7857904  38.0365300
  52.8679085  44.5767736  38.9371586  51.9589281  46.0100365  37.4509597
  51.3393164  46.0907555  36.6574454  52.6967621  47.1710062  37.8137493
  53.7426519  47.0131445  37.5505066  52.2942352  48.0405712  37.2942090
  52.5105906  47.4544477  39.3263412  53.5823870  47.5680017  39.9874640
  51.3019848  47.4930191  39.9053264  50.5044079  47.3344564  39.3062997
  50.9374952  47.7290630  41.3033962  51.4265537  48.6559153  41.6031885
  49.3949366  47.9850769  41.4410210  48.8739443  47.1820259  40.9196997
  49.1325092  47.9835939  42.4989605  49.0673733  49.4619656  40.8060408
  49.4545031  49.6443939  39.8035693  47.6411343  49.3506336  40.5152845
  47.0800495  49.1638803  41.4309311  47.2585058  50.2687311  40.0694132
  47.4239874  48.5041809  39.8637748  49.3259811  50.6775093  41.7054367
  50.3321028  51.0368013  41.4892864  48.6823082  51.4827585  41.3513803
  49.1709900  50.4251575  42.7544355  51.2751865  46.5156269  42.1983862
  51.1132669  46.5999269  43.4277153  51.7398214  45.4288292  41.5815115
  51.8702364  45.4440451  40.5800819  52.2343683  44.2153311  42.2754860
  52.5150299  43.7012577  41.3562155  53.4562159  44.5100975  43.2073975
  52.9803610  44.9053717  44.1048479  53.9641762  43.5628557  43.3885479
  54.4450951  45.4437780  42.5578165  54.6703911  44.9785280  41.5981865
  54.1564322  46.4812565  42.3892689  55.7523584  45.3951168  43.3294535
  55.9883451  44.3334436  43.4020424  56.4063072  45.9758663  42.6789379
  55.7153845  46.0525465  44.6541643  54.8238039  46.4137316  44.9619436
  56.6814470  46.1552715  45.5297995  57.9441595  45.8441973  45.3201437
  58.2240295  45.5972052  44.3816471  58.6657667  45.9468985  46.0193110
  56.4314222  46.5212679  46.6895199  55.4483318  46.5869761  46.9116116
  57.1283960  46.2866068  47.3818064  51.1518764  43.3018351  42.9039192
  51.4097309  42.5318336  43.8397694  49.9036598  43.4143209  42.3847914
  49.7416496  43.9637136  41.5529108  48.7217045  42.8087282  43.0388689
  48.8591099  42.9069805  44.1157007  47.3768950  43.6372995  42.6980114
  47.2985315  43.5924244  41.6117620  46.5590143  43.0396938  43.1005526
  47.4748993  45.0721693  43.1920052  48.4638405  45.4899931  43.0035543
  46.4205647  45.9847689  42.4551201  46.1956596  46.9284821  42.9520416
  46.7611313  46.1885023  41.4399290  45.5064631  45.3922033  42.4180174
  47.1725845  45.2575016  44.6707487  47.6797867  46.2053156  44.8510361
  46.1061382  45.4207277  44.8261547  47.6386452  44.3631315  45.0842619
  48.5977268  41.3560200  42.5919533  47.9059935  40.5441093  43.1729126
  49.3275833  41.0403490  41.4772654  49.8719597  41.7652225  41.0319328
  49.2977762  39.7181654  40.8433247  48.8992643  39.1266847  41.6676044
  48.4220266  39.6752048  39.5701838  48.7736320  40.3393221  38.7806129
  48.4956646  38.7527370  38.9942217  47.0687675  40.0549603  39.8054743
  46.6180801  40.1837254  38.9676785  50.8259773  39.2297959  40.6847668
  51.6766453  40.0475073  40.3213501  51.1580229  38.0046391  41.0764074
  50.4389000  37.4542665  41.5236807  52.5333071  37.7010894  41.3509607
  53.2119274  38.2137966  40.6692648  52.9130554  38.0720091  42.8141689
  53.9395142  37.7614379  43.0091858  53.0138636  39.1507864  42.9332876
  52.0414639  37.5361967  43.9293861  52.4151707  36.5713811  44.8361635
  51.3501263  36.5080976  45.6801414  51.4551449  35.7860184  46.4763641
  50.3038788  37.1800065  45.3055096  49.3818283  36.9711876  45.6609297
  50.7847118  37.9820013  44.2618656  50.1776409  38.6436391  43.6617851
  52.7364731  36.2127328  41.1638021  51.7972565  35.4493856  41.0124683
  53.9781237  35.8006573  41.2627220  54.6570778  36.5219188  41.4599562
  54.4966364  34.4651508  40.9847546  53.7474346  33.9456201  40.3873587
  55.7778406  34.5969629  40.1068211  56.4708519  35.2727199  40.6080055
  55.5423164  34.9652863  39.1083407  56.7244768  33.0589485  39.8970151
  54.9028730  33.7399960  42.2613478  55.5006981  34.3048811  43.1660366
  54.4073391  32.5566339  42.5166512  53.8912296  32.2537112  41.7030334
  54.7202444  31.6642690  43.6604548  54.8205662  32.3291445  44.5183420
  53.5193014  30.6911397  43.8325310  53.8071346  29.8575544  44.4731474
  52.6967001  31.1997032  44.3353176  53.0728292  30.1250720  42.6172161
  52.1579075  29.8721313  42.7605200  56.0690212  30.9968042  43.6334705
  56.4945364  30.4293609  44.6651125  56.8140078  31.0362959  42.5035906
  56.3904476  31.5325356  41.7325878  58.2191324  30.6242943  42.3303938
  58.3314562  29.8108244  43.0471611  58.5355663  30.0826192  40.9771442
  58.0458736  29.1140604  40.8761406  58.2642889  30.8174706  40.2191830
  59.9693441  29.8605561  40.9507561  60.7116890  28.9272189  41.6234636
  61.9714165  29.2338181  41.4105082  62.6960278  28.5122061  41.7578077
  62.1035814  30.3277230  40.6333256  62.9395199  30.7140994  40.2185726
  60.8220577  30.7035422  40.2886724  60.5892849  31.5593171  39.6723366
  59.0564680  31.7959094  42.8603458  59.8219252  31.5627122  43.8313580
  58.8984680  32.9841638  42.3520565  58.1599522  33.1244183  41.6774988
  59.7988081  34.1015363  42.6210260  60.8226299  33.7311769  42.6733017
  59.6261597  35.1055241  41.4470339  60.1258612  36.0323811  41.7287016
  58.5681248  35.2879071  41.2588692  60.3452063  34.5194745  39.8978901
  59.5560169  34.7570848  43.9652538  60.4665375  34.8519373  44.8177719
  58.3394003  35.2436113  44.2548561  57.6432800  35.0268555  43.5559034
  58.0266428  36.0363269  45.4600000  58.8161373  36.7869616  45.4967117
  56.6791821  36.7467952  45.1918459  55.8437634  36.0521412  45.1044798
  56.4498043  37.7440476  46.3439751  56.3249207  37.3732829  47.3613453
  57.2586775  38.4686708  46.4374924  55.6073284  38.3729649  46.0562229
  56.5981913  37.5345516  43.8886833  57.5460100  38.0324030  43.6840343
  56.3121510  36.8337607  43.1043530  55.8562040  38.3326936  43.9116716
  57.9981804  35.1743603  46.7580509  57.0818233  34.3516064  46.8966722
  59.0084553  35.2682257  47.6607513  60.1931667  36.1572218  47.5785685
  59.9684668  37.0405054  48.1764126  60.5176020  36.3650322  46.5589285
  61.2813950  35.3166151  48.3214903  62.1048880  35.9291720  48.6885500
  61.6645384  34.5467734  47.6516819  60.5121994  34.8735571  49.5395088
  60.5502462  35.7561851  50.1779652  61.0078621  34.0694237  50.0833750
  59.1222286  34.5591903  48.8988972  59.0629721  33.4803987  48.7546730
  58.0063295  34.9891710  49.9661541  57.6526785  34.2382956  50.9044313
  57.4517012  36.1629319  49.9278927  57.5832987  36.7448807  49.1129589
  56.5394545  36.9212556  50.8085775  55.6372309  36.3325310  50.9744024
  57.3171759  37.1265841  52.1296072  57.2826767  36.2281013  52.7457571
  58.3532238  37.3234987  51.8540478  56.8207932  38.3216143  52.9950094
  56.9870329  39.2312121  52.4178600  55.7597923  38.1641197  53.1888628
  57.5604725  38.4955883  54.3677187  57.1432161  39.3726730  54.8624134
  57.3599148  37.6625347  55.0414419  59.0920115  38.6194420  54.1366673
  59.4359016  37.7841759  53.5266113  59.1886091  39.5485854  53.5750103
  59.9317074  38.6175394  55.3060389  59.6285534  39.2717624  56.0132837
  59.9016142  37.7080083  55.7441568  60.8819818  38.7299466  54.9828625
  56.1757803  38.2995057  50.2180719  56.9125652  38.8902211  49.4223022
  54.9545479  38.7487078  50.5497742  54.4507694  38.1171536  51.1559486
  54.3251371  40.0367403  50.2659512  55.1472092  40.7524681  50.2710438
  53.7505627  40.0697088  48.8390112  53.6473942  41.0689974  48.4160614
  54.4682074  39.5320559  48.2193232  52.3656082  39.4361377  48.6366558
  51.6017389  39.8936987  49.2653322  51.7969465  39.6369457  47.2316122
  51.9915342  40.6870651  47.0137024  52.4143362  39.0926933  46.5169668
  50.7808971  39.2592311  47.1172571  52.0686197  37.9719615  49.0048170
  52.8669834  37.2982144  48.6937141  51.9317150  37.9416847  50.0857639
  51.1373758  37.7431941  48.4865999  53.2900858  40.5094004  51.4335775
  52.7372980  39.6227407  52.1095085  53.0566740  41.7875624  51.6532612
  53.5759687  42.4769020  51.1286163  51.9112158  42.2346783  52.5018930
  51.9506979  41.7869949  53.4949303  51.9076347  43.7528944  52.5687408
  51.7236280  44.0823936  51.5461588  51.0208797  44.1456079  53.0662680
  53.1729364  44.4944096  53.1214142  54.0369129  44.4544888  52.4580479
  52.9022121  45.5303049  53.3257151  53.7196636  43.8875103  54.4079924
  53.0165529  43.9908934  55.4176521  54.7775602  43.1712723  54.3704081
  50.5553293  41.7663860  52.0224714  50.4059935  41.6434956  50.7658863
  49.5500088  41.6725874  52.9356527  49.5423985  41.7253304  54.3879938
  49.3446445  42.7532482  54.6919250  50.5092621  41.4330530  54.7976923
  48.4369564  40.6947994  54.7497797  48.1481886  40.8088875  55.7946253
  48.7992668  39.6920609  54.5231867  47.3228979  41.1457777  53.7694788
  46.9973755  42.1078300  54.1651964  46.5959644  40.3366089  53.8395596
  48.2069540  41.2359190  52.4838781  48.2149029  40.2464676  52.0266819
  47.4665546  42.3156643  51.6126490  47.6761723  43.5139322  51.8509007
  46.6259861  41.7977810  50.7549524  46.7408705  40.8021593  50.6299067
  45.7135677  42.5745440  49.8974037  45.7735348  43.6508179  50.0591040
  46.1023664  42.1982479  48.3933163  46.0723162  41.1186790  48.2459164
  45.1425457  42.8875732  47.3760843  44.0913439  42.9274321  47.6615334
  45.4881382  43.9017200  47.1756268  45.0987482  42.3938942  46.4052820
  47.5464392  42.6112747  48.0278015  47.5616169  43.7002277  47.9825068
  48.2487106  42.2843552  48.7946367  48.1087732  41.9488764  46.7254496
  49.1544628  42.2088051  46.5609264  48.0555630  40.8743191  46.9003916
  47.5090027  42.1587276  45.8398199  44.3082857  42.0336008  50.2565002
  43.9419842  40.8860683  49.9900532  43.5065365  42.8773546  50.9542036
  43.8001394  44.2155743  51.3068581  43.7764931  44.8514557  50.4218721
  44.7787428  44.2855310  51.7817640  42.6455593  44.7128868  52.2302675
  41.9377613  45.2329540  51.5847874  42.8917694  45.3270006  53.0964899
  41.9701624  43.3920670  52.5647497  40.9228230  43.5323858  52.8321266
  42.4046087  42.9142475  53.4428453  42.1600437  42.4828053  51.4508820
  42.1289682  41.5017271  51.9248247  41.0066938  42.5255775  50.4606390
  40.9735250  43.3971930  49.5753336  40.0738096  41.5376425  50.5492210
  40.0894165  40.8867598  51.3213682  38.9435983  41.3400078  49.6268177
  39.3071556  41.3557291  48.5993528  38.2800460  39.9334192  49.8630047
  37.6228404  39.8042274  49.0030670  38.9957976  39.1117787  49.8895454
  37.3888469  39.7742605  51.1777115  36.5299201  40.4453373  51.1801577
  36.9173503  38.7918282  51.1527777  38.2494044  39.8585653  52.4846554
  37.7487659  40.3368425  53.5508728  39.4013810  39.3738461  52.4766397
  37.9505801  42.5301170  49.6004105  37.2219896  42.7383184  48.5630846
  37.8739691  43.3180714  50.7246494  38.5925579  43.1068993  51.4022446
  36.9662738  44.4264078  51.0623264  36.8131971  44.9867010  50.1399708
  35.5690765  44.0600061  51.3940477  35.2520514  43.4812546  50.5264950
  35.4249167  43.3969831  52.2471189  34.5860529  45.1733446  51.4545918
  34.1418576  46.0166550  52.4802446  34.3304062  45.9238338  53.5396004
  33.1578350  46.8614960  52.1016502  32.5669813  47.4391079  52.6824760
  32.9197717  46.6017342  50.7447052  31.9308329  47.1045732  49.8245811
  31.1706758  47.7828598  50.1830482  31.9467354  46.7139912  48.4826517
  31.2631941  47.0595264  47.7212238  32.9209185  45.7940578  48.0398655
  32.9545712  45.3897905  47.0389462  33.8058138  45.2425909  48.9513636
  34.4254708  44.4036722  48.6709404  33.8489509  45.6770039  50.3288555
  37.5646472  45.4240608  52.1024513  38.1618619  44.8808622  53.0227470
  37.3704791  46.7649889  52.0977306  37.1434546  47.4836397  50.8719826
  36.0728121  47.6507664  50.7540798  37.6388550  47.1141195  49.9741316
  37.7076149  48.8880491  51.1648655  37.2297001  49.6460152  50.5442286
  38.7500119  48.9351940  50.8497524  37.6665139  49.0813112  52.6625299
  36.6557002  49.3289804  52.9865932  38.4064507  49.7902918  53.0339384
  38.0144978  47.6510191  53.0828667  39.1022992  47.5855303  53.0603981
  37.6577473  47.4357271  54.5096254  36.5476775  47.0720387  54.8250151
  38.6228323  47.5982046  55.4501295  39.8543191  48.3346653  55.3914595
  39.5920992  49.3156004  54.9950933  40.5665684  47.7472830  54.8119926
  40.4598379  48.4462690  56.8060160  40.1590776  49.3461370  57.3425627
  41.5340757  48.2713938  56.7465544  39.7128630  47.3986769  57.5374842
  39.5157719  47.5929928  58.5917568  40.2444506  46.4490318  57.4768162
  38.4587979  47.1372890  56.8289948  38.2322001  46.0718060  56.8678617
  37.3535252  47.8647137  57.5317574  37.4433756  49.0447760  57.6776648
  36.2955070  47.1457720  58.0281162  36.4885449  46.1580896  57.9425240
  34.9576712  47.6660824  58.4213686  34.4148588  47.9916048  57.5339603
  34.1421866  46.4724445  59.0778780  34.0899158  45.7101345  58.3005428
  34.7084165  46.0732126  59.9193668  32.8196907  46.9526148  59.6328354
  33.1218553  47.6795864  60.3866959  31.8929386  47.5958824  58.6059380
  31.1140084  48.1811285  59.0946627  32.5000715  48.4131479  58.2166100
  31.5286279  46.8589544  57.8901768  31.9907546  45.8296776  60.3217840
  32.6350832  45.4098082  61.0942173  31.0642362  46.1037207  60.8263302
  31.7859793  45.0448847  59.5935917  35.1361632  48.8419151  59.3768215
  34.4696665  49.8783350  59.1539478  36.0195374  48.7041044  60.3704786
  36.4947248  47.8132391  60.3447294  36.1238599  49.7405720  61.3842487
  35.1562619  49.9027014  61.8591833  37.1800828  49.1669369  62.4141407
  38.1067204  48.8503170  61.9354010  37.2948122  49.9719667  63.1399918
  36.8417025  48.2904673  62.9667711  36.5503120  51.1748219  60.9390497
  36.1402750  52.1262264  61.5797710  37.3259830  51.2927675  59.8703909
  37.6950622  50.4484415  59.4568825  37.5363183  52.4978065  59.1006804
  37.4761868  53.3533382  59.7734022  38.9222789  52.5306702  58.4836054
  39.0045428  51.6741896  57.8144455  39.2101359  53.3401251  57.8127718
  39.8506474  52.3188782  59.5280600  39.9061131  51.3830614  59.7348833
  36.4916468  52.7267933  58.0244875  36.2778449  53.8956404  57.6397133
  36.0586143  51.6606331  57.3997164  36.4465976  50.7429934  57.5655508
  35.2013135  51.8063354  56.1684179  35.6917071  52.5017595  55.4872370
  35.0157022  50.4093266  55.5518055  35.9590340  49.8959589  55.3655767
  34.5305634  49.8242950  56.3331366  34.0115190  50.4874802  54.0615368
  34.9912882  50.9590101  53.2852554  33.7984324  52.3921919  56.5137434
  33.3035994  53.3424377  55.8240032  33.1944633  51.8202782  57.5486612
  33.6459875  51.0552597  58.0292559  31.8053722  51.9458628  57.9010630
  31.6308045  51.6955090  58.9474583  31.5318537  52.9963446  57.8021812
  30.8385348  51.2130785  56.9696617  29.6560144  51.3041830  57.2925854
  31.2095380  50.4626894  55.9918976  32.1896005  50.4409981  55.7487726
  30.2512884  49.9666548  54.9442673  29.2333961  50.1468039  55.2900219
  30.4432106  50.7969046  53.6345530  31.2628198  50.4024506  53.0339289
  29.2626977  50.3851318  52.6786947  29.1460395  49.3080711  52.5585508
  28.3397412  50.7606077  53.1205845  29.4973612  50.8060884  51.7010260
  30.5174685  52.3192978  53.7175417  29.6440554  52.6747513  54.2642641
  31.4557076  52.6795816  54.1394424  30.4188371  52.7200794  52.7087116
  30.4728651  48.4425306  54.5656347  31.5564418  48.1011868  54.0217257
  29.5048881  47.6168156  54.9684286  28.3228540  47.8633165  55.7953358
  27.4884510  48.3129835  55.2571249  28.5265017  48.6332703  56.5395164
  28.0313039  46.5084934  56.4072132  26.9562793  46.4196491  56.5638447
  28.4649253  46.4779234  57.4067831  28.4793854  45.4176569  55.5008936
  27.7083659  45.1627350  54.7738123  28.7985873  44.5521593  56.0815239
  29.7035241  46.1579132  54.8219824  30.6725049  45.9220219  55.2619123
  29.8530054  45.8301878  53.2477617  29.4122720  46.5911055  52.3782015
  30.3920579  44.6355581  52.9596424  30.8686900  43.6185122  53.8769054
  30.2056384  43.5376596  54.7382593  31.8948650  43.7264347  54.2282104
  30.7785249  42.3789835  52.9604483  29.7404599  42.0465422  52.9608774
  31.4402246  41.6220188  53.3814573  31.2293863  42.8199196  51.5320873
  30.9931183  42.0782757  50.7690430  32.3147678  42.9105997  51.4893913
  30.6139755  44.2107916  51.5513372  31.3340425  44.8930025  51.0994530
  29.3503547  44.2360020  50.6635809  28.4771252  43.3499908  50.8389473
  29.2590570  45.2735233  49.7540808  30.0926781  45.8432627  49.7301960
  28.1238842  45.4019499  48.7355709  28.3905602  46.2006521  48.0434275
  27.9457211  44.1609764  47.8617764  27.5594473  43.3224773  48.4412766
  27.2418046  44.3972540  47.0637941  29.2043471  43.6691046  47.2538614
  29.6165609  44.2782545  46.0736990  29.1002655  45.1049852  45.6085634
  30.7665992  43.7846231  45.3995275  31.1183310  44.3641281  44.5587826
  31.4478946  42.6727009  45.9286642  32.3480868  42.3865652  45.4050446
  31.0571957  42.0493317  47.1107960  31.5354967  41.1426878  47.4508286
  29.9879980  42.5953674  47.7860117  29.6559477  42.1201086  48.6971998
  26.7777038  45.9051228  49.3179798  25.7543421  45.5807972  48.7533665
  26.8253112  46.6519547  50.3641081  27.7709651  46.9187641  50.5978966
  25.7576728  46.8344688  51.2969685  24.8204637  46.6411829  50.7750654
  25.8332062  45.8696270  52.4610043  26.8802857  45.7884836  52.7527857
  25.1189113  46.2493277  53.1915617  25.3824592  44.4565344  52.0997620
  24.3325520  44.4667339  51.8070364  26.0242367  44.1809702  51.2629223
  25.7852745  43.4621572  53.2405853  25.0828838  43.2721949  54.1828251
  27.0236158  43.1123829  53.2210827  27.3066831  42.4932957  53.9672041
  27.6529503  43.3581495  52.4703264  25.6884384  48.2614613  51.8402052
  26.5467024  49.0829039  51.7549658  24.5764518  48.6170006  52.3905325
  23.9204884  47.8778505  52.5990438  24.1927505  50.0317049  53.0466223
  24.4233847  50.8166599  52.3263741  22.6590466  49.9828053  53.2770109
  22.4837494  49.2366171  54.0519810  22.3623204  50.9557295  53.6687565
  21.6888881  49.7386217  52.0549965  21.7719722  50.5659246  51.3501787
  21.8825936  48.7768698  51.5800190  20.2510262  49.7744274  52.5394726
  20.1751208  49.0345335  53.3362818  19.9182653  50.7260990  52.9538298
  19.2791116  49.4204855  51.4310265  19.5878470  48.4612083  51.0156155
  18.3322179  49.3928528  51.9702196  19.2279673  50.4791307  50.3890800
  18.5046911  50.3032017  49.7064209  18.9003742  51.3368034  50.8100128
  20.1378202  50.6190538  49.9735069  24.9902534  50.1811409  54.2908478
  25.3058505  49.2521143  54.9886942  25.4837155  51.4317369  54.5849895
  24.8956442  52.6996374  54.0500927  23.8061929  52.6762533  54.0245962
  25.2154374  52.8800154  53.0237913  25.2645373  53.8163233  55.0214624
  24.4482541  53.8275623  55.7437229  25.2898407  54.7794819  54.5117807
  26.6330552  53.3379889  55.5714321  26.7149043  53.8251114  56.5430880
  27.4362421  53.5772371  54.8744726  26.4281130  51.7896175  55.6311274
  27.3680925  51.3051605  55.3668594  26.0064363  51.3501358  56.9935179
  24.8497701  51.5148592  57.4688196  26.9710302  50.8187342  57.7753782
  27.9219460  50.6860304  57.4619293  26.7013979  50.2817440  59.2212439
  25.7125211  49.8243380  59.1893721  27.7675223  49.1832781  59.5570898
  27.6552367  48.5138512  58.7042332  28.7162590  49.7083759  59.4463301
  27.6652002  48.5678434  60.9504080  26.6895914  48.8032150  61.3757181
  27.7748322  47.0403099  60.6815767  27.6737475  46.4628267  61.6004896
  26.9729710  46.7170525  60.0177813  28.6884475  46.8488121  60.1187754
  28.7974095  49.0012121  61.8285942  28.7102985  50.0770521  61.9805098
  28.7293315  48.4994602  62.7938509  29.7737908  48.9089775  61.3529110
  26.6050148  51.3336897  60.3208256  25.8508515  51.1779737  61.2170792
  27.5940084  52.3066664  60.3476334  28.2953763  52.2913980  59.6210289
  27.7195883  53.3415556  61.4007139  27.6269341  52.9138088  62.3989868
  29.1002178  53.9359426  61.4833450  29.1448522  54.8025036  62.1430302
  30.1409531  52.9011440  62.0253706  29.7085094  52.3673296  62.8716183
  30.2249885  52.2090244  61.1875057  31.0489702  53.4437132  62.2884750
  29.6375108  54.3121958  60.2547932  30.4655004  54.7432661  60.4788685
  26.6147852  54.3500662  61.3389683  26.2302089  54.8093224  62.4116707
  26.0784531  54.6707487  60.1697874  26.4412117  54.0292168  59.4791794
  25.1149726  55.6833696  59.7784519  24.2973590  55.1028538  59.3511248
  24.6716189  56.5769339  60.9613943  24.0128756  56.0614443  61.6602755
  25.5490184  56.9405270  61.4962530  23.9255905  57.7516556  60.7253265
  23.1287813  57.6992035  61.2581921  25.7204580  56.6179228  58.7290716
  26.8567038  57.0381451  58.9034081  24.9678898  57.0650053  57.7089310
  23.6663461  56.5383577  57.3935270  22.9468989  56.9154739  58.1203556
  23.5290146  55.4594994  57.3206568  23.4144473  57.0636225  55.9446859
  22.3616099  57.3192501  55.8251619  23.6928630  56.3181496  55.1998043
  24.2701221  58.2694674  55.8528280  23.7457466  59.1886282  56.1141109
  24.6462274  58.3381701  54.8320818  25.4872608  58.0152464  56.8175554
  26.3263845  57.5722313  56.2811661  25.9527540  59.3809605  57.3869944
  26.9713640  59.9373722  56.8897867  25.2854395  59.9058580  58.3878136
  24.4191504  59.4359207  58.6087275  25.5874825  61.1457968  59.1482306
  26.0037112  61.8612003  58.4389687  24.3061328  61.6600752  59.8715973
  24.5856309  62.4831057  60.5293226  23.5455179  61.9815731  59.1601181
  23.6205292  60.6740284  60.6347036  23.0809832  60.1690292  60.0219488
  26.7085934  61.0076857  60.2198887  27.4778247  61.9452333  60.3559017
  27.0890975  59.8149824  60.7541990  26.4708400  59.0655613  60.4781055
  28.3756256  59.5277739  61.3722229  28.6634827  60.3481770  62.0296240
  28.2799959  58.2973480  62.2725630  27.5069189  58.4369421  63.0281878
  27.9847836  57.4546099  61.6474676  29.6113563  58.0070972  62.9628515
  30.4173541  57.6843977  62.3038149  29.9775910  58.9082003  63.4547806
  29.3612123  56.9685936  64.1217470  28.9427114  57.4826527  64.9870205
  28.5681248  56.2703705  63.8541698  30.6210709  56.3581276  64.4880486
  31.3718700  56.3702440  63.8125801  30.9527397  55.8140659  65.6431389
  30.1484156  55.7088041  66.6574574  29.1504025  55.8636379  66.6474533
  30.4696441  55.1631355  67.4443293  32.1436167  55.3831291  65.8446598
  32.7670097  55.3112411  65.0532579  32.4301386  55.0797796  66.7644358
  29.4790936  59.4537926  60.3390026  30.4801607  60.1691675  60.5695009
  29.2037034  58.8201380  59.1666698  28.5881901  58.0269909  59.2769718
  30.2229929  58.8582039  58.0589151  31.1227036  58.4063101  58.4765434
  29.6871614  58.1043053  56.8571520  28.5989881  58.1644201  56.8379831
  30.0550389  58.5586214  55.9371710  30.0854874  56.6569519  56.9936895
  30.0049448  56.4509773  58.0610180  29.0760541  55.9015751  56.1005163
  29.1917968  54.8373699  56.3058805  28.0657768  56.1857748  56.3949203
  29.3303609  56.1360216  55.0668478  31.5256381  56.3778591  56.4164829
  32.1993613  56.9334364  57.0688105  31.7123270  55.3046083  56.4537191
  31.5292120  56.6224051  55.3542757  30.6593847  60.3454447  57.7905750
  31.8283486  60.6805944  57.8172207  29.7222304  61.2582874  57.4816656
  28.7873292  61.0461998  57.7995968  30.0413179  62.6255560  57.0342398
  30.8296967  62.5862837  56.2825632  28.8151908  63.1796360  56.4614105
  29.0097642  64.0922213  55.8980036  28.4575796  62.5165176  55.6736946
  27.8028059  63.3808422  57.4208498  27.0077014  63.4903574  56.8941450
  30.6465292  63.5093927  58.1519794  31.4586544  64.4507551  57.9183912
  30.2731490  63.1315374  59.3728161  29.5600319  62.4585056  59.6148682
  30.9542966  63.7986755  60.5227900  31.1000490  64.8677254  60.3679037
  29.9749541  63.6237574  61.7030525  29.0924692  64.1869783  61.3995600
  29.6568704  62.5812387  61.7118502  30.4151726  63.9554644  63.1651783
  31.0589004  63.1353903  63.4832859  31.0085058  64.8672104  63.2343197
  29.3045092  64.0679264  64.2079163  29.8608804  64.4388485  65.0687170
  28.4993219  64.7398996  63.9108944  28.8581991  62.7085590  64.5891380
  29.4568419  62.1973372  65.2218962  27.6733494  62.1529245  64.2156696
  27.3170710  60.9703541  64.6803713  28.0000210  60.3477573  65.0878668
  26.4251018  60.5853605  64.4041967  26.7523932  62.7303600  63.4844542
  26.9180012  63.6102486  63.0170441  25.9205651  62.1855640  63.3073759
  32.4003124  63.3388567  60.6799412  33.3322406  64.2550230  60.6897116
  32.6718903  62.0797586  60.5554676  31.9470024  61.3853359  60.4440451
  34.0679073  61.6569376  60.3789377  34.6769381  62.1634054  61.1277151
  34.0513468  60.1288795  60.3507423  33.2208514  59.7032642  59.7875118
  34.9657297  59.7469187  59.8967505  33.9341617  59.5705843  61.7331457
  33.8808012  58.3337450  61.8683815  33.9506435  60.2725840  62.7619839
  34.8156476  62.2195721  59.1494560  36.0171437  62.5877380  59.2318106
  34.1844916  62.3452091  57.9932833  33.3404207  61.7909527  57.9720879
  34.8056412  62.7514219  56.7137432  35.7520318  62.2317600  56.5640688
  33.8177466  62.5574160  55.5941200  32.8861046  63.0135918  55.9288597
  34.1388011  63.1125975  54.7127581  33.6384177  61.1610413  55.2201033
  32.6349878  60.6813717  54.3177938  32.5759673  59.3545961  54.3676424
  31.9969702  58.7438726  53.6907530  33.5965133  58.9538956  55.2215719
  33.8703084  57.9818487  55.2377701  34.2395687  60.1064730  55.7239532
  34.9623513  60.0984859  56.5264082  35.1415348  64.2550278  56.7049360
  36.1833429  64.5693827  56.1206484  34.4911027  65.0346708  57.5811911
  33.9064932  64.5579290  58.2527971  34.9176025  66.4083672  57.9385614
  34.8914313  67.0089817  57.0293427  34.0704417  66.9395733  59.0496683
  33.0209041  66.9484806  58.7555552  34.3014550  66.4121532  59.9751711
  34.3125105  67.9831028  59.2510271  36.4078093  66.5474749  58.4350348
  37.0783901  67.5831223  58.2373953  36.8997216  65.4596043  59.0109015
  36.3150764  64.6363831  59.0354061  38.3022428  65.3946829  59.5569801
  38.5363650  66.2373114  60.2075672  38.4999704  64.2723751  60.5639648
  39.5593619  64.3218040  60.8156443  37.7479863  64.5597935  61.8609619
  37.8019190  65.5580711  62.2952986  36.6959786  64.2890739  61.7710257
  37.9396081  63.8572598  62.6720285  38.3220077  62.9484224  60.1624393
  37.3747134  62.8631496  60.0321865  39.3642879  65.2307367  58.5040665
  40.5159378  65.2863073  58.8827944  38.9675307  65.0043440  57.2122622
  37.9816031  64.9500132  56.9999075  39.8257661  64.8620749  56.0370541
  40.8391666  64.6140623  56.3526678  39.2137098  63.7022638  55.2404976
  38.3190441  64.1465187  54.8042488  40.0002527  63.6673927  54.4866896
  38.8849020  62.3458672  55.9517241  37.9746246  62.4815655  56.5357494
  38.4614968  61.1937904  54.9597311  37.7709961  61.5679169  54.2038679
  39.3424249  60.7734108  54.4746065  38.0704498  60.4152107  55.6146955
  39.9917531  61.8542147  56.7744923  39.7975206  60.9098101  57.2828960
  40.8688021  61.7205286  56.1412382  40.2798510  62.6369047  57.4762726
  39.8248553  66.1709642  55.2835560  38.7654901  66.8123817  55.0228500
  41.0050106  66.5746212  54.8426771  41.8413067  66.1010218  55.1531887
  41.1472893  67.5965500  53.8106394  40.7790470  68.5202074  54.2571259
  42.6850796  67.5667715  53.3889914  42.9628038  68.4514141  52.8159571
  43.2663441  67.6531696  54.3070173  43.0815697  66.3111258  52.5979805
  42.9759789  66.4139843  51.3756418  43.5415173  65.2156591  53.0995226
  43.7713909  64.4576740  52.4728489  43.6197090  65.1405096  54.1036797
  40.2771711  67.3457336  52.5198030  40.0405836  66.2417459  52.1645069
  39.7659397  68.4492970  51.9540119  40.1691771  69.2836857  52.3556328
  38.8047600  68.4903049  50.8115053  37.8161216  68.3216190  51.2383986
  38.7414169  69.4655895  50.3288937  39.1195178  67.4120808  49.7654724
  38.1874609  66.6803217  49.4079638  40.2979469  67.4066448  49.1966677
  41.0137224  67.8421879  49.7606421  40.6407499  66.4781570  48.1032181
  39.8762894  66.5715456  47.3318672  42.0112419  66.8462467  47.5138044
  41.9792652  66.6878033  46.4358521  42.1291780  67.9170322  47.6799631
  42.8205729  66.3842916  48.0792046  40.6055737  64.9815989  48.5614681
  39.9923658  64.1600370  47.8677750  41.0682917  64.6913910  49.7757578
  41.6387510  65.3825235  50.2416229  40.8044624  63.3439445  50.3795671
  41.1419058  62.6453447  49.6139288  41.6705799  63.1626177  51.6189623
  42.6763821  63.3958483  51.2695742  41.4206266  63.9521646  52.3276567
  41.6689157  61.7471218  52.2214317  40.6799793  61.4266014  52.5491047
  42.0679855  60.6535721  51.2604666  41.7443609  59.7179604  51.7165327
  41.6632128  60.7145596  50.2502489  43.1527472  60.6152153  51.1608505
  42.6721334  61.6622639  53.3515167  42.8340054  60.6782866  53.7916279
  43.6526871  61.9333076  52.9601717  42.4024010  62.2889233  54.2016029
  39.3480468  63.0747032  50.6596088  38.8383293  61.9378233  50.7264709
  38.6140275  64.1977072  50.7503748  39.0114832  65.1219893  50.6618500
  37.2573185  64.1135263  51.4113808  37.2792530  63.3334255  52.1723413
  37.0356584  65.4005384  52.2701883  37.8079224  65.4025173  53.0394125
  37.0882583  66.3084221  51.6692924  35.6003499  65.2999687  52.9169798
  34.9529266  65.1367521  52.0554113  35.5148435  64.3891621  53.5096169
  35.0850654  66.5294218  53.5460901  33.9550257  66.9717598  53.2765388
  35.8064675  67.0642900  54.5324755  35.4951096  67.8130770  55.1345348
  36.6798377  66.6063547  54.7506952  36.1701822  63.8851881  50.3649664
  35.2885294  63.0231237  50.5948353  36.4090896  64.4868374  49.2267036
  37.2497630  65.0462389  49.2057323  35.8274961  64.0354109  47.9937792
  34.7424841  63.9915323  48.0882549  36.1616683  65.0713301  46.9230223
  35.5419517  65.9593821  47.0471859  37.2232914  65.3179455  46.9384480
  35.8829117  64.6490049  45.4401922  34.6465158  64.0944529  45.0363398
  33.7994981  63.9719296  45.6950855  34.5412850  63.5644054  43.7565565
  33.6165261  63.1911230  43.3419704  35.6059551  63.6482954  42.8339720
  35.4377770  63.2704830  41.8362856  36.8538451  64.1863918  43.2145596
  37.6901674  64.1891050  42.5312138  36.9242883  64.7403336  44.5108366
  37.8758740  65.1989841  44.7356176  36.1345100  62.5556374  47.6655102
  35.1915789  61.8322897  47.4732447  37.4325871  62.1308851  47.7344036
  38.1914139  62.7811480  47.8808641  37.8045201  60.7363033  47.3995161
  37.5477529  60.5256987  46.3613319  39.3646550  60.6984472  47.4596310
  39.7247720  61.3995790  46.7067480  39.7077084  60.8329582  48.4854603
  39.6813202  59.6818161  47.2266293  37.0129132  59.7676611  48.3445883
  36.2896919  58.9013863  47.8377533  37.0178056  59.9736643  49.6733761
  37.5457859  60.7394409  50.0669718  36.5669703  58.9460373  50.6022406
  36.9613361  58.0203629  50.1830721  37.1318698  59.1289091  52.0435476
  36.7521214  60.0721788  52.4361467  36.6271687  57.9943752  52.9931545
  37.3356581  57.9726696  53.8212061  35.6295347  58.2859421  53.3215094
  36.6049743  57.0146894  52.5158453  38.5035300  59.1534281  51.9543171
  38.7076330  59.9533939  51.4644194  35.0197029  58.8870335  50.4296589
  34.3940687  57.8181601  50.5939484  34.3389463  60.0489426  50.2501822
  34.8678660  60.9061241  50.1754856  32.8392577  60.2316141  49.9287653
  32.2594237  59.8277617  50.7587004  32.3749924  61.7135572  49.8075581
  33.1682944  62.2868729  49.3278885  31.4847517  61.8061161  49.1854620
  32.0343995  62.2955179  51.2053537  31.3039660  61.6348362  51.6723347
  32.9201984  62.2907972  51.8405247  31.4580488  63.7324238  51.2127399
  32.0959496  64.3072557  50.5413580  30.4488516  63.7283325  50.8009148
  31.4816141  64.4987535  52.6311541  30.6735826  64.1735744  53.2864761
  32.4540257  64.3872452  53.1108189  31.3874245  65.8970022  52.5014162
  30.5164242  66.1937761  52.0850182  31.4517689  66.3437843  53.4049320
  32.1323013  66.2733459  51.9325352  32.4061513  59.5122385  48.6420488
  31.5278387  58.6241245  48.7450886  33.0604219  59.8559046  47.5144434
  33.8973498  60.3741503  47.7404308  33.0388284  59.1898870  46.1931992
  31.9931459  59.2578268  45.8931494  33.9437866  59.8982716  45.1371050
  33.7710619  60.9722853  45.0681496  35.0247240  59.8496437  45.2686691
  33.7577629  59.4013500  43.6882830  34.4042230  59.9537563  43.0063486
  34.0004897  58.3399534  43.6370993  32.2898293  59.5520639  43.1528616
  31.4904499  60.4029226  43.5640860  31.8025208  58.8084316  42.2226763
  30.8395290  59.0243387  42.0078993  32.2726130  57.9548025  41.9572639
  33.1671858  57.6262283  46.3347626  32.1770430  56.9695520  46.0596418
  34.2632461  57.0661497  46.8418503  34.8533702  57.7029943  47.3578787
  34.4562459  55.6466055  46.9981432  34.3072009  55.2528095  45.9927511
  35.8883905  55.3308678  47.3179579  36.5078974  55.6899929  46.4961672
  36.2210226  55.9021711  48.1845999  36.2437367  53.8459635  47.6633692
  35.6870008  53.3964109  48.4855890  36.2355137  52.9591131  46.4443827
  35.2303886  52.7368307  46.0860348  36.8154359  53.3804893  45.6232643
  36.7546415  52.0485926  46.7436600  37.6680779  53.7552071  48.2817745
  38.3000612  54.2698669  47.5580215  37.6135516  54.3727827  49.1782856
  37.9134488  52.7573586  48.6453629  33.4878540  54.8838186  47.9421377
  32.9949379  53.7755299  47.7541733  33.1122231  55.5811739  49.0621090
  33.6711812  56.3915682  49.2877960  32.1031809  55.0700808  50.1275444
  32.4131370  54.0574741  50.3857422  32.0947599  55.8748865  51.4430141
  31.3949752  55.4950094  52.1873856  33.0252123  55.6337881  51.9570494
  31.8999171  57.2305489  51.3022947  32.7760267  57.6142836  51.2199450
  30.7282948  54.9031305  49.4675636  30.1487350  53.8445711  49.4719601
  30.2270007  55.9840012  48.8117027  30.8347702  56.7901564  48.8404608
  29.1043591  55.8406544  47.8687239  28.1958604  55.5800915  48.4117126
  28.9234638  57.1965933  47.1808386  29.8185253  57.5316572  46.6567230
  28.1773281  57.0751667  46.3955784  28.4029198  58.2148170  48.2249451
  27.3830938  57.8990889  48.4448767  28.9425421  58.2814217  49.1696548
  28.3900881  59.5736790  47.6073599  29.4462442  59.7875929  47.4434137
  27.7927327  59.6303272  46.6973829  27.8299642  60.5685520  48.5648966
  26.9761300  60.3325558  49.0500498  28.2664943  61.8055344  48.7805319
  29.0996003  62.3936176  48.0051231  29.5514941  61.7928314  47.3306179
  29.3016934  63.3783007  47.9068375  27.6975942  62.6595736  49.5943308
  26.9697332  62.3699713  50.2318621  27.9483223  63.6372948  49.5583153
  29.2960286  54.7070074  46.8242407  28.3618689  53.9039946  46.6149092
  30.4274845  54.6498775  46.1053514  31.0244751  55.4631567  46.1531019
  30.7534456  53.6534166  45.0556517  30.0342751  53.6712313  44.2367601
  32.1584225  53.7944937  44.3692350  32.8673959  53.4715796  45.1315880
  32.2293591  52.9103708  43.1066370  31.2876153  53.0311346  42.5712538
  33.0598450  53.2095671  42.4672031  32.3351359  51.8380117  43.2708263
  32.6448441  55.0785542  44.0298080  32.8110766  55.5966711  44.8207092
  30.6019783  52.1881866  45.6025362  29.9649835  51.2796879  44.9744081
  31.1753845  51.8766069  46.7639875  31.6835833  52.5628376  47.3033571
  31.1377597  50.4867935  47.2977543  31.1734986  49.7799587  46.4687777
  32.3019481  50.1313210  48.2145977  32.3412418  50.9577513  48.9242268
  32.1265554  49.2223072  48.7899494  33.7089133  50.0444555  47.6444674
  33.9623666  50.9943819  47.1738243  34.6860290  49.7434902  48.7184143
  34.5162082  48.7341499  49.0932369  35.7432604  49.7201204  48.4541893
  34.5705819  50.4386091  49.5500278  33.8373947  48.9803791  46.5184069
  34.8471832  49.1364574  46.1388445  33.7351871  47.9431057  46.8373346
  33.0930281  49.2793369  45.7804060  29.8137021  50.1429987  48.0723810
  29.4309258  48.9388132  48.0934334  29.0299296  51.0953474  48.5270357
  29.1193771  52.0838785  48.3402252  27.7734017  50.6834602  49.1297579
  27.8517318  49.8158979  49.7849751  27.2651005  51.8861103  50.0262213
  28.0590010  52.2718859  50.6657553  27.0656204  52.7892923  49.4495392
  26.1850834  51.6039419  50.7937765  26.3562250  50.7087183  51.0952520
  26.6607213  50.3429985  48.1367874  25.7541156  49.5566082  48.3904982
  26.6912794  51.0170889  46.9628096  27.4309921  51.6760254  46.7660046
  25.7350779  50.6957388  45.8604574  24.8385000  50.3948641  46.4024162
  25.4508686  52.0002699  45.0543118  24.5923543  51.8160629  44.4084692
  25.3048468  52.8622437  45.7053089  26.6047955  52.3266125  44.1287327
  27.5185728  51.9693995  44.6036148  26.4442945  51.7800808  43.1994104
  26.6118431  53.8381863  43.7884569  25.5736971  54.0190172  43.5097885
  26.7327833  54.4006968  44.7142267  27.5786114  54.3546915  42.7986479
  28.0038929  53.6727524  42.1869278  27.9392648  55.6149769  42.7187490
  27.4266505  56.5706682  43.4315252  26.8562984  56.3272953  44.2287493
  27.6013684  57.4835682  43.0363226  28.8736057  55.9227324  41.8667650
  29.2003751  55.2534628  41.1845636  29.1932821  56.8803358  41.8366480
  26.0591102  49.5037937  45.0229216  25.3310585  49.3116093  44.0245628
  27.1954298  48.7974119  45.2943993  27.7847576  49.0716934  46.0674238
  27.8210711  47.9442787  44.4274092  27.8231001  48.4813595  43.4789133
  29.2919326  47.7095366  44.8114014  29.8890376  48.6024189  44.6260977
  29.3521023  47.4090242  45.8574295  29.6966457  46.9015837  44.2018700
  27.1207786  46.5756702  44.1931534  26.5669179  45.9602308  45.1440668
  27.1137214  46.0280180  42.9762840  27.7688193  46.4010572  42.3041296
  26.4913440  44.7127056  42.6206541  25.8387899  44.4068003  43.4383917
  25.6214690  44.7537518  41.3731050  26.2980676  44.8973513  40.5306673
  25.0537014  43.3511925  41.1566067  24.4133902  43.3662176  40.2746344
  25.8198237  42.5924063  40.9972477  24.4331145  42.9941130  41.9784737
  24.5514560  45.6531620  41.3083887  25.0111675  46.4924765  41.3846254
  27.7247500  43.7652445  42.4644804  28.6180496  44.1762781  41.6908073
  27.7952242  42.5697803  43.0517912  26.9790697  42.1780872  44.1942787
  26.1137867  41.7494726  43.6886311  26.5689278  42.9937029  44.7898102
  27.7335715  41.1737347  45.0097656  27.0872474  40.4520988  45.5093718
  28.4325743  41.6225815  45.7154846  28.6330175  40.5357027  43.9857960
  28.1040978  39.7108078  43.5084152  29.5682096  40.1919031  44.4277525
  28.8687682  41.6321945  42.9829407  29.5926142  42.3478127  43.3728743
  29.1507387  41.2018490  41.5363741  28.3048320  41.3507414  40.6331778
  30.3649521  40.7197142  41.2620020  30.9562731  40.5117607  42.0539570
  30.6791735  40.1592731  39.8825812  30.1594067  40.6777000  39.0768647
  32.1756244  40.2651310  39.5806289  32.6952314  40.0621367  40.5170584
  32.6803017  39.3922782  38.4275365  32.4402022  39.8071861  37.4486065
  33.7674499  39.4373012  38.3628488  32.3357558  38.3708024  38.5887170
  32.5006986  41.7197084  39.2558146  32.2306180  41.8727779  38.2109571
  32.0274353  42.5158310  39.8305416  33.9590168  42.0685816  39.4371223
  34.2260933  43.1243563  39.3912458  34.4127774  41.7278385  40.3677702
  34.5114636  41.6764688  38.5832167  30.1243567  38.7439322  39.7513843
  30.3825498  37.9936552  40.7070017  29.3293977  38.3873105  38.6971688
  28.8900137  39.1846299  37.6026821  29.5873404  40.0034761  37.4256825
  27.9501414  39.6458626  37.9060149  28.6922836  38.3026242  36.4143133
  29.6544075  37.9501820  36.0425591  28.1622124  38.8475323  35.6331587
  27.9659295  37.1781611  37.0728302  28.1166410  36.2920332  36.4562464
  26.9079590  37.3504114  37.2706389  28.7562752  37.0617342  38.4306526
  28.0424380  36.7853785  39.2066455  29.7499180  35.8501673  38.4980536
  30.8750272  35.9152484  38.0245972  29.3445826  34.7152829  38.9424062
  28.4508848  34.7929406  39.4064999  30.1019359  33.4021068  38.9155316
  31.0092354  33.5220456  39.5075846  29.3457770  32.3210478  39.7232437
  29.2679095  32.6302767  40.7655573  28.3817482  32.1659684  39.2387867
  30.0437975  31.0199142  39.8133016  29.4444275  30.2855849  40.3514624
  30.1340103  30.6192160  38.8036466  31.3921142  31.0688114  40.4756546
  32.3677278  31.6728187  40.0473309  31.4628100  30.4935002  41.5512657
  30.4130626  32.9248667  37.4711084  29.5391345  32.7364683  36.5966678
  31.6816616  32.6073337  37.2435570  32.2668314  32.7501988  38.0542779
  32.2669911  32.0855522  36.0177398  31.7792749  32.6386976  35.2150798
  33.7736940  32.4589396  36.0476923  33.8519597  33.5135126  36.3119888
  34.2094326  31.8874979  36.8672562  34.5228696  32.1822214  34.7644687
  34.2692375  32.9791212  33.5759425  33.4874821  33.7114239  33.7137532
  34.9612474  32.7241588  32.4166846  34.7005343  33.2972789  31.5392113
  35.9434724  31.6899967  32.4577618  36.7172170  31.5555739  31.3558340
  36.5422988  32.2878981  30.7602549  36.2235999  30.9521031  33.6044264
  36.8956351  30.1067686  33.6178160  35.5190110  31.2427068  34.8526073
  35.5867147  30.5950809  35.7142305  32.0565104  30.5632067  35.8180547
  32.6807261  29.7387981  36.4590621  31.1863160  30.2150440  34.9089074
  30.7680130  30.9348655  34.3370843  30.7624245  28.8005447  34.8711133
  30.9678626  28.4408569  35.8793378  29.2475581  28.6607957  34.6827650
  29.0877032  29.1795206  33.7375283  29.0847373  27.5905585  34.5555115
  28.3446407  29.2537904  35.7356143  28.5646510  30.2479649  36.1246085
  26.8349099  29.4450974  35.2350616  26.4099360  28.5293698  34.8240495
  26.1256576  29.8782372  35.9403634  26.8205476  30.1186013  34.3781567
  28.4241891  28.3318830  36.9061470  28.6261225  27.2935319  36.6431880
  29.1136527  28.7348604  37.6480079  27.4836612  28.3460164  37.4568915
  31.5960598  27.9373932  33.8950253  31.0445118  27.4769258  32.9283333
  32.8642178  27.7521920  34.2000198  33.2546973  28.2454681  34.9901485
  33.8718343  27.2309375  33.2133102  33.4882903  26.3526702  32.6940393
  34.1781592  28.2808685  32.1598625  33.2698798  28.3893204  31.5670991
  34.2876410  29.3103552  32.5008512  35.3887510  28.0836987  31.2405992
  36.2004995  28.3018112  31.9345689  35.5120039  27.0257831  31.0088134
  35.2096105  28.9507294  29.9571323  34.1819954  28.8601947  29.6051288
  35.3353119  30.0058508  30.2000761  36.2679863  28.7347579  28.8572240
  37.0775318  29.4628835  28.9079142  36.7198086  27.7437139  28.8996196
  35.6986141  28.7558675  27.5707293  35.6432843  29.7149134  27.2588444
  36.2730598  28.3441734  26.8491912  34.9357820  28.1042290  27.4543071
  35.0765252  26.7122579  33.9666057  35.9345865  27.4460864  34.3544912
  35.1505160  25.3461075  34.0400791  34.4564533  24.7848630  33.5674500
  36.4212489  24.6107578  34.2754579  36.7243218  24.7320914  35.3154230
  36.1207128  23.1428576  34.0433812  35.4713774  22.7484035  34.8249626
  35.6072903  22.8839064  33.1174016  37.3637176  22.2434616  34.0241003
  36.9359851  21.2579679  33.8398504  38.0537891  22.5528026  33.2391095
  38.1478453  22.1730947  35.3865504  37.9965472  22.9427409  36.3099480
  38.8083959  21.0562515  35.4996920  39.4170904  20.9609342  36.3000083
  38.8513207  20.4222631  34.7146344  37.6436973  25.1834202  33.4851623
  37.5146723  25.2747083  32.2436261  38.7420964  25.4781556  34.1930413
  38.7072110  25.3323722  35.1918554  40.0499821  25.8909869  33.6254072
  39.8168182  26.2708259  32.6306891  40.6374025  27.0217156  34.5523763
  40.5165339  26.6869688  35.5826378  42.1709061  27.1576309  34.2254376
  42.3636627  27.3624444  33.1723475  42.4407911  27.9992080  34.8634148
  42.7152586  26.2643647  34.5317960  39.9768281  28.3784413  34.1942883
  40.1615238  28.6330557  33.1506586  38.8966966  28.2482719  34.1273928
  40.2788877  29.5128322  35.1177192  39.5188808  30.2864099  35.0078607
  40.2126122  29.2380643  36.1704350  41.2493706  29.9830413  34.9590588
  40.9609556  24.6659684  33.5408521  41.3470173  24.1234732  34.5554328
  41.2097597  24.1681886  32.3163867  40.3100109  24.3743277  31.1725831
  40.2120304  25.3715229  30.7435083  39.4191432  23.9733195  31.6559577
  40.5790663  23.3810878  30.1491785  41.3420582  23.8321877  29.5147896
  39.7104359  22.9615760  29.6416426  41.3410378  22.2413278  30.9752822
  41.9790792  21.6065574  30.3604102  40.6650543  21.5379190  31.4614558
  42.0170259  22.9379654  32.0965409  41.9033098  22.2532630  32.9369903
  43.5274363  23.3173251  31.9498777  44.0548372  23.7630939  30.9166241
  44.2007399  23.3458996  33.0868745  43.7497091  22.9222894  33.8851404
  45.6030512  23.8722205  33.1991363  45.5557823  24.8753023  32.7752185
  46.0708570  24.0084100  34.6269751  46.0359907  23.0174589  35.0796366
  47.1240139  24.2844343  34.5742059  45.3545427  24.9687362  35.5783129
  45.6298065  26.1889052  35.6366110  44.2613220  24.5057869  36.2343907
  43.7630224  25.1581860  36.8227530  43.9563131  23.5666299  36.0221267
  46.6512108  23.1978750  32.2650719  46.5488482  22.0489717  31.8897319
  47.7362585  23.9503074  31.9151258  47.6978874  24.9135160  32.2165561
  48.9336586  23.5192132  31.2614322  48.5789680  22.7468348  30.5789900
  49.6067381  24.5716333  30.3869295  48.8278484  24.9419665  29.7203851
  50.0126076  25.2812719  31.1078858  50.7446909  24.1229391  29.5974231
  50.4696989  23.7667632  28.7494135  49.9159718  22.7487254  32.1759462
  49.5751238  22.5365567  33.3900952  51.0233450  22.2781682  31.6973186
  51.2237692  22.4364972  30.7201457  52.0343924  21.5317798  32.3977661
  51.6080475  20.5456662  32.5819016  53.2467651  21.4470935  31.4099717
  53.0919504  20.8966923  30.4819679  53.4458399  22.4675417  31.0826302
  54.8163509  20.7246923  32.0735145  55.3994417  20.3877902  30.9196496
  52.4699974  22.3155618  33.5897946  52.7064371  23.5142469  33.5401964
  52.5196600  21.6359186  34.7722173  52.4202728  20.6407475  34.6312928
  53.0769873  22.1440029  36.0539842  53.0339479  23.2319856  36.1043811
  52.4862289  21.4726949  37.2866392  52.7980042  20.4363036  37.4162126
  53.0187416  22.0937300  38.5659719  52.6046610  21.5840101  39.4359255
  54.0945339  21.9442630  38.6578298  52.8783607  23.1725311  38.4982777
  50.9661055  21.4588213  37.3310041  50.5294275  22.4531317  37.2373962
  50.6410742  20.8412766  36.4936924  50.6794310  20.9472179  38.2498002
  54.6117496  21.9287157  35.8904052  55.0566387  20.7776308  35.9503865
  55.3427696  23.0116081  35.7853103  54.9446154  23.8922787  36.0785604
  56.8117142  23.1362867  35.5910897  57.3482513  22.4304485  36.2251425
  57.2663403  22.8345871  34.1215467  56.6468000  23.3130479  33.3630347
  58.3333397  23.0390835  34.0332961  57.1664906  21.4606357  33.9051700
  56.2462759  21.3651991  33.6488533  57.2860575  24.5445466  36.0174513
  56.4089489  25.3622890  36.3439679  58.5602331  24.8186922  36.0401249
  59.2311621  24.1545081  35.6812191  59.1343307  26.1665940  36.2833595
  59.1896009  26.2604856  37.3679018  60.1368904  26.2302208  35.8603597
  58.2604313  27.3616362  35.7459784  57.6591825  27.2391772  34.6667814
  58.3093977  28.5213876  36.4726114  58.8365269  28.5307431  37.3340893
  57.5928116  29.8191595  36.1461377  56.5567827  29.4830275  36.1881065
  57.7669001  30.7777143  37.2805834  57.6398802  30.2179074  38.2071805
  56.8846369  31.3918233  37.1000719  59.3040848  31.8191314  37.2109294
  58.0590582  30.4192615  34.7595096  58.9538908  29.9133205  34.0872216
  57.5311565  31.6071677  34.4135523  56.9014168  31.9658852  35.1170039
  57.5780821  32.2449636  33.0629015  58.3010817  31.8147135  32.3698950
  56.1676359  32.0262694  32.4933410  56.1580563  30.9402275  32.5856495
  55.3277826  32.5011134  33.0005622  56.3148022  32.3461103  30.6990361
  56.7556715  33.6048317  30.7775283  57.9887247  33.6899328  33.1069827
  58.0564499  34.3455338  32.0235825  58.3363152  34.2773342  34.2553473
  58.2839584  33.7165356  35.0937200  58.9734316  35.5662584  34.4937229
  58.1711197  36.2959599  34.3844938  59.2798901  35.6592536  36.0056210
  59.6733856  36.6608500  36.1790228  60.0585604  34.9575400  36.3045740
  57.8894043  35.4236484  37.1448803  60.0762415  35.9410286  33.4501743
  60.2422619  37.1005893  33.0396914  60.9566879  35.0327492  33.0306077
  60.8330679  34.0801454  33.3426428  62.1053362  35.3832626  32.1611094
  62.6191187  36.2667584  32.5400043  62.8163576  34.5607257  32.2384334
  61.5696239  35.6172037  30.7463527  61.9167089  36.5949821  30.0880861
  60.7058048  34.7811842  30.2407670  60.3853464  34.0827036  30.8961558
  60.0484085  34.8038340  28.9215708  60.7892132  35.0405836  28.1578541
  59.4450092  33.4011149  28.7142134  60.2373362  32.7036572  28.9859939
  58.5732222  33.2509065  29.3510270  59.0037203  33.1980491  27.3326230
  59.7469759  32.6881456  26.3442993  60.7855940  32.4281573  26.4860058
  58.9442682  32.4630213  25.2323842  59.3412256  32.0563078  24.3974543
  57.7008486  32.9564881  25.4374909  56.6407633  33.1305337  24.5703220
  56.6775942  32.6740170  23.5922432  55.5757236  33.9394999  24.9667525
  54.7849560  34.2585850  24.3039656  55.5680990  34.6176505  26.1761427
  54.7209072  35.2408767  26.4216328  56.6415787  34.4098091  27.0605445
  56.5598631  34.7645354  28.0773497  57.7562094  33.5740113  26.7332220
  58.9686012  35.9312654  28.7663770  58.7735844  36.4755750  27.6998281
  58.2969570  36.2613344  29.8630667  58.3966923  35.6566930  30.6659150
  57.5971127  37.5126362  29.9846530  56.9791174  37.6831317  29.1031098
  56.6216373  37.4383998  31.2141609  57.2950602  37.0391417  31.9725752
  56.2522936  38.4454560  31.4078760  55.4986811  36.4275932  31.1426973
  55.8803558  35.5718708  30.5857778  54.9705887  36.1236548  32.5365591
  54.3464947  36.8995547  32.9799414  54.3698931  35.2151895  32.4923372
  55.8201170  35.9260654  33.1902909  54.3911457  37.1335793  30.3009963
  54.0763569  38.0904055  30.7175231  54.8453188  37.2394729  29.3158007
  53.4976292  36.5150666  30.2162838  58.4468031  38.8374710  29.9093056
  58.1420660  39.7441697  29.1272926  59.6036863  38.8516617  30.5309653
  59.6290064  38.2495379  31.3414621  60.5983543  40.0107098  30.5144024
  60.0722647  40.9207582  30.8027387  61.7125750  39.6867681  31.5711975
  62.2309160  38.7618089  31.3184786  62.7868128  40.8575106  31.6399360
  63.2122755  40.9385204  32.6401997  63.5206747  40.6611967  30.8582687
  62.3477554  41.8274689  31.4064670  61.1857748  39.5560408  32.8603721
  60.9041071  38.6389852  32.8961205  61.0252571  40.2010679  29.0532112
  60.7388020  41.2580872  28.5480261  61.4981699  39.1238165  28.4190845
  61.4959288  38.3337021  29.0482259  61.8829632  39.0105987  27.0175695
  62.7313185  39.6914864  26.9483876  62.3447895  37.5603676  26.8387628
  61.7168236  36.9060850  27.4434757  62.3680925  37.3902059  25.7623792
  63.8248825  37.4392724  27.2504759  64.5126486  38.0740786  26.6918206
  63.8421154  37.7432227  28.2970977  64.3619299  36.0113239  27.2194409
  63.9600611  35.4883933  28.0872822  63.9837217  35.4889417  26.3407063
  65.8856964  36.0925293  27.3142552  66.2563467  36.5649223  26.4045525
  66.1392927  36.7310238  28.1604886  66.4488649  34.6943474  27.4168324
  67.4393034  34.7757339  27.2365046  66.0783482  34.3267846  28.2815385
  66.0788059  34.1136789  26.6779280  60.8347750  39.5791936  26.0263610
  61.0312033  40.5590391  25.3132200  59.6933413  38.9170980  26.0225415
  59.6626425  38.0625820  26.5600896  58.4644938  39.3469882  25.2596974
  58.7312937  39.2851377  24.2046642  57.3388290  38.3643937  25.4797149
  57.1607161  38.3304596  26.5545297  56.0238266  38.9075828  25.0302434
  56.0551310  38.8660097  23.9414859  55.2187157  38.2092619  25.2588224
  55.8282757  39.9474502  25.2920413  57.5380325  36.9946623  25.1616597
  57.8571987  36.6023231  25.9776330  58.1425190  40.8614635  25.5990958
  57.9601717  41.6508007  24.6508861  58.2222557  41.4072943  26.8283653
  58.3728647  40.8150291  27.6325059  57.8688860  42.8099155  27.2305346
  56.9799471  43.1843185  26.7228675  57.6472664  42.8623390  28.7322903
  58.2863379  42.3312330  29.4377112  57.5406504  44.3755198  29.2287493
  58.4965134  44.8837805  29.1018391  56.7948580  44.9236536  28.6530375
  57.3548222  44.2709351  30.2976871  56.2309551  42.3336220  29.1450238
  55.9733057  41.4056540  28.6345315  56.2309074  42.1432209  30.2182651
  55.4174280  43.0556822  29.0750027  58.9395046  43.7745047  26.7241597
  58.6122084  44.6846104  25.9525990  60.2346325  43.5432863  27.0047951
  60.3325367  42.9434633  27.8114700  61.3516235  44.3194485  26.5353870
  61.2854671  45.3485203  26.8885684  62.7105713  43.6985016  26.9405198
  62.8244448  42.6422834  26.6965270  63.4354877  44.2271471  26.3215446
  63.0406666  43.9153433  28.4313202  62.8914309  44.9750042  28.6385655
  62.3508167  43.2777882  28.9842534  64.3927002  43.4265804  28.8437796
  64.3834639  42.3978710  28.4835362  65.2200556  43.8689613  28.2889032
  64.6760130  43.5057306  30.3010011  63.9014482  43.0138016  30.8893561
  65.5148268  42.8162956  30.3967524  64.7907162  44.8184586  30.8311009
  63.8664484  45.1836300  31.0113239  65.3399420  44.7797155  31.6778326
  65.3215122  45.4072046  30.2052188  61.3319874  44.4365740  25.0180483
  61.4545631  45.5164385  24.4157505  61.1745596  43.3314848  24.2935228
  61.1344051  42.4579000  24.7988343  60.9431124  43.3650017  22.8597140
  61.8120384  43.7053251  22.2964597  60.6982756  41.9083500  22.2704887
  61.6689062  41.4353371  22.4195957  59.8931885  41.3323593  22.7267480
  60.3524351  41.9243288  20.7868052  60.3337145  40.8989954  20.4174185
  59.3475771  42.2992563  20.5923939  61.3150406  42.6506805  19.8649204
  62.5373077  42.8605604  20.1798224  60.9892035  42.9531765  18.6876941
  59.7043228  44.2119646  22.4266219  59.8550749  45.2050304  21.7317200
  58.5113144  43.8152409  22.8918576  58.5145569  43.0178547  23.5117579
  57.1913290  44.4178820  22.5563765  57.1316862  44.4285107  21.4680576
  55.9278631  43.6180305  22.9958153  55.0394011  44.2354155  22.8632665
  55.7817459  42.3644018  22.1907473  55.4173088  42.5419283  21.1789274
  56.7351770  41.8434525  22.1030998  54.9709368  41.7186975  22.5280213
  56.0020781  43.3170795  24.3543315  56.7171288  42.6768446  24.3743706
  57.0773983  45.8569574  22.9586124  56.2961817  46.5401030  22.2770071
  57.8003931  46.2841463  23.9722157  58.3398962  45.7109928  24.6050906
  57.8963375  47.7063179  24.1543007  56.8988323  48.1449604  24.1281819
  58.7663507  48.1178856  25.4502630  59.7893047  47.9177618  25.1314855
  58.6944818  49.6165323  25.8017063  59.1554499  49.7033405  26.7856145
  59.1972208  50.1224136  24.9774218  57.6424837  49.9013138  25.7845211
  58.5609102  47.4333334  26.6369891  58.4736633  46.5146494  26.3724113
  58.7130308  48.4216309  23.0549717  58.2209921  49.3936443  22.5220847
  60.0028563  48.0998993  22.7937746  60.4586458  47.3141527  23.2353163
  60.8667660  48.8996363  21.8856716  60.3416681  49.0524292  20.9427834
  61.2147379  50.3116798  22.4384212  61.5852785  50.9048843  21.6024137
  60.2529860  50.7441378  22.7143145  62.1586132  50.3257227  23.6246777
  61.8549204  49.5744228  24.3536639  63.1894064  50.2554989  23.2773638
  62.0205975  51.7262411  24.2414403  62.2778606  52.4713993  23.4886718
  60.9602785  51.8534327  24.4597363  62.8955889  51.8472958  25.4993367
  63.5524702  51.1070108  25.7008147  62.9068327  52.9430342  26.1971831
  62.1146536  53.9493179  25.9424043  61.4865303  53.9623976  25.1515889
  62.2954082  54.7049809  26.5876985  63.7386751  53.0317640  27.1879697
  64.2223406  52.1951485  27.4816442  63.9902210  53.9227486  27.5916743
  62.1500254  48.2563925  21.3932943  63.0799723  48.8835382  20.9383082
  62.2588587  46.9350004  21.6428781  61.4841509  46.3951206  22.0012999
  63.4473133  46.0693216  21.3724542  63.1992435  45.0480652  21.6615915
  63.7683487  46.0534286  19.9022555  63.9051676  47.0728159  19.5413768
  64.9115705  45.2294350  19.4526958  64.9068689  44.2255116  19.8772252
  64.8246861  45.1615858  18.3682835  65.8013201  45.7810497  19.7562885
  62.6904678  45.4065561  19.2548966  62.5544930  44.5261526  19.6126711
  64.5737696  46.5536785  22.3110414  65.7195568  46.7726183  22.0051408
  64.1508579  46.9561386  23.5355186  63.1494761  46.9428825  23.6665273
  64.9772215  47.2062445  24.7161245  65.4556227  48.1718445  24.5522809
  64.1464806  47.3180819  25.9755158  63.3602571  48.0529261  25.8024168
  63.6077023  46.3862562  26.1473274  64.7999048  47.7695799  27.2002935
  64.1405678  47.4591827  28.0108666  65.7050085  47.1836567  27.3602509
  65.0360918  49.2582560  27.2573972  65.2914476  49.8246050  28.3834386
  64.7281504  49.9683809  26.2799811  66.0687351  46.0978365  24.8099852
  65.7795477  44.9414110  24.6329570  67.3390341  46.4174223  25.1549244
  67.9589748  47.6801586  25.4675865  67.8335571  47.8421497  26.5381598
  67.4255896  48.4470510  24.9059153  69.4483757  47.5924587  25.1688337
  70.0785351  48.1864834  25.8307481  69.6112537  47.9606056  24.1559005
  69.7607327  46.0812473  25.2843690  70.2093410  45.9332085  26.2666821
  70.4973650  45.8638096  24.5109391  68.4192514  45.4125547  25.0326729
  68.5971260  45.1686096  23.9853191  68.1406879  44.2242527  26.0579157
  67.8931999  44.4889212  27.2263098  68.1483698  42.9365492  25.5815530
  68.4960604  42.8713655  24.6355271  68.0223656  41.6639566  26.2453818
  67.5956869  41.8499756  27.2310019  67.1036386  40.8172274  25.4094481
  67.3236513  40.9328938  24.3481660  67.1287632  39.3155074  25.8358788
  66.7989826  39.1371012  26.8593621  66.4349413  38.7877631  25.1815152
  68.1541252  38.9462709  25.8557725  65.6505299  41.3175917  25.6475353
  65.3698301  41.1980200  26.6939616  65.7086849  42.3968363  25.5062628
  64.5755816  40.6819487  24.6840239  64.1164732  39.7596145  25.0398540
  63.8629293  41.4940691  24.5401621  65.0378323  40.4693174  23.7200665
  69.3966866  40.9744501  26.3619041  70.1304913  40.9215736  25.3480077
  69.6939516  40.4920387  27.5745487  68.9269066  40.4867172  28.2315946
  71.0095549  40.2584982  28.2514262  71.4386892  39.3805647  27.7685356
  71.9389486  41.4843178  28.0969048  72.6705217  41.5225077  28.9040232
  72.5452662  41.4517498  27.1916866  71.2482357  42.8785467  28.0710840
  71.5947819  43.7199545  27.2871089  70.4455996  43.2873106  29.0277600
  70.1927185  44.2465925  29.2172956  70.1525688  42.7008915  29.7960997
  70.7722759  39.9143934  29.7318459  69.9161005  40.5843210  30.3602314
  71.5631676  39.0217209  30.2292562  72.2406054  38.7066436  29.5496178
  71.6589260  38.6427975  31.6875219  72.5540400  38.0362654  31.8253207
  71.7548227  39.8332620  32.6659870  72.1134663  39.4620109  33.6260152
  72.8479147  40.8121490  32.1581864  72.3713017  41.5783358  31.5467238
  73.2867622  41.3337135  33.0087638  73.6529350  40.2572203  31.6764235
  70.5764675  40.4115009  32.8813267  70.1241064  40.5069160  32.0399737
  70.4804516  37.6397276  32.0554733  70.0431633  36.7506194  31.2538552
  70.0296354  37.6125956  33.3430862  70.3787899  38.3557653  33.9312100
  69.0459919  36.6584277  33.8620114  68.5638762  36.1109042  33.0521464
  69.7058630  35.5556464  34.7065210  70.5464697  35.2339983  34.0916800
  70.2389193  36.0686088  36.1023760  69.3871880  35.9665966  36.7748713
  70.9650040  35.3310251  36.4442396  70.8819389  36.9302368  35.9228563
  68.8334942  34.4679976  34.7392464  68.6951876  34.0256691  33.8985205
  67.9649019  37.4272323  34.7352386  68.2341671  38.4799242  35.3539419
  66.7242956  36.9072294  34.7479248  66.5214825  36.1158705  34.1540241
  65.5834770  37.7201843  35.2291083  65.8676577  38.6435676  35.7337952
  64.6614361  38.1445169  34.0326762  64.2596817  37.2173119  33.6240435
  63.8229895  38.7682152  34.3426919  65.3594875  38.8240242  32.7961612
  65.9434509  40.0506592  32.9377127  65.8993387  40.4213572  33.9511442
  66.5763426  40.7597542  31.9451213  67.0379019  41.7035389  32.1953917
  66.6608524  40.2274513  30.6254673  67.0640802  41.0776234  29.5882487
  67.4428892  41.8649578  29.9859977  65.9935522  39.0277362  30.4161620
  65.9004927  38.6223936  29.4194484  65.3442669  38.3189726  31.4667034
  64.9227190  37.3664188  31.1815000  64.6810293  36.8769383  36.1963224
  64.6520376  35.6213188  36.1909413  63.8657665  37.6686215  36.9677019
  64.0000248  38.6684227  36.9179463  62.7759838  37.1744609  37.8082776
  62.5295496  36.1953402  37.3975492  63.2834291  37.0252824  39.2528772
  62.4125624  36.6852331  39.8132849  64.0221453  36.2242293  39.2263007
  63.7416840  38.1590128  39.8850799  64.5734358  38.4581256  39.5104909
  61.5074778  38.0783677  37.8140306  61.5211916  39.0594316  37.0823145
  60.5005407  37.7053452  38.6220884  60.6934690  36.9630742  39.2792892
  59.3615866  38.5345745  38.8630795  58.6439610  38.3619928  38.0610013
  58.5868740  38.0221772  40.0913954  58.2341337  37.0109463  39.8886919
  59.2756939  37.9415417  40.9323072  57.3446369  38.8939714  40.4363203
  56.2664843  38.7380695  39.5850277  56.3654566  37.9789257  38.8232517
  55.1648045  39.6486092  39.6448565  54.4413948  39.8250651  38.8625884
  55.1023722  40.5841589  40.7499552  54.1252708  41.5256739  40.9467411
  53.2391262  41.2216997  40.7371140  56.1966801  40.6444359  41.6347647
  56.0939074  41.3469315  42.4486065  57.3521900  39.8777461  41.4708710
  58.2135010  40.1069784  42.0807838  59.5906305  40.0470448  38.8492775
  58.8190269  40.8174849  38.3290315  60.6655121  40.5242014  39.5673704
  61.3122606  39.8893046  40.0131559  60.9402847  42.0052576  39.6657515
  60.0154305  42.5169325  39.9320865  62.0439959  42.2699070  40.6781864
  62.3818779  43.2890892  40.4905558  61.5311432  42.0141554  42.1385384
  61.1104298  41.0120869  42.2219849  62.3233366  42.1323824  42.8778315
  60.6759071  42.6128435  42.4519777  63.1178570  41.4291096  40.4532719
  63.8001585  41.4808369  41.1266136  61.3314390  42.6261139  38.3407283
  60.9176302  43.6804962  37.9726267  62.0600319  41.8315840  37.5794196
  62.3137999  40.9431362  37.9872918  62.5740385  42.2399044  36.2723303
  63.0345392  43.2071590  36.4734554  63.7133741  41.3368320  35.7753420
  63.4300089  40.2843475  35.7663608  63.9149666  41.6698170  34.7572160
  64.9485016  41.3749456  36.7807889  65.4441833  42.4679375  37.1227121
  65.3618908  40.2927542  37.1661115  61.4680767  42.4120665  35.2140355
  61.4989567  43.4397793  34.4720268  60.4766369  41.5257931  35.3208637
  60.4817104  40.7227039  35.9333324  59.2162561  41.5717125  34.6058202
  59.4750452  41.6611576  33.5507679  58.4712410  40.2480936  34.6779180
  59.0773106  39.4320011  34.2845082  58.3730268  40.0469685  35.7446909
  57.0372534  40.0904226  34.1751719  56.6144896  40.7613516  33.0419827
  57.3438740  41.3337564  32.4881315  55.2283573  40.6369162  32.6490617
  54.9546003  41.1411953  31.7340946  54.3015671  39.8836732  33.3443832
  53.2529545  39.8287845  33.0918002  54.8167229  39.1192365  34.4330931
  54.1669083  38.4903049  35.0235081  56.1584520  39.2017889  34.8318362
  56.4897299  38.6272526  35.6842232  58.4408665  42.8158998  34.9792337
  57.9083967  43.4986353  34.1389251  58.1668472  42.9407740  36.2864542
  58.5806322  42.2181416  36.8580198  57.3744345  44.0420580  36.8638468
  56.4026976  44.0275764  36.3702679  57.1380091  43.6988974  38.3521748
  56.5862226  42.7616835  38.4246826  58.0996752  43.6338520  38.8611674
  56.3116312  44.7844028  39.0346599  55.5368423  45.1520157  38.3618569
  55.8462620  44.2587137  39.8684382  57.0603085  45.9855413  39.6437621
  58.2708693  46.1374664  39.6143222  56.3628435  47.0181751  40.1490402
  56.8970919  47.7474642  40.5993938  55.3574419  47.0063400  40.2445745
  57.9073334  45.3964949  36.4430141  57.1755981  46.2385511  35.9596062
  59.2172480  45.5706739  36.5135741  59.6954012  44.8682833  37.0595741
  60.0891113  46.6511106  35.9691715  59.6738195  47.5602245  36.4040852
  61.5881777  46.5134764  36.3120914  62.0162153  45.5829334  35.9392881
  62.1103859  47.2456121  35.6961536  61.9181013  46.7911482  37.7445102
  61.5799761  47.8271437  37.7665973  61.3078451  46.1509132  38.3815265
  63.4088850  46.6336870  38.1425548  64.0922117  47.1077824  37.4379969
  63.6331844  47.1725941  39.0630817  63.6363029  45.1188087  38.2408094
  62.8545809  44.7516060  38.9057684  63.3868265  44.7827196  37.2343707
  64.9669933  44.6644783  38.6742616  65.0486326  43.7267208  38.3081317
  65.7106686  45.2423286  38.3093905  65.0304127  44.6600866  39.6822596
  59.9101686  46.7500210  34.4542074  59.6804667  47.8188419  33.9785051
  60.0649643  45.6157637  33.6257482  60.3924990  44.7284031  33.9798975
  59.7553110  45.5480433  32.1926951  60.4480648  46.2188005  31.6844869
  60.0089359  44.1617537  31.5424371  59.1447306  43.5131550  31.6858816
  60.2572298  44.3045807  30.4907465  60.8847857  43.7209654  32.0185566
  58.3597565  46.1123180  31.9029021  58.2368612  47.0594883  31.0931516
  57.2472477  45.6812572  32.5544930  57.3649645  45.0591469  33.3413982
  55.8295298  46.1465740  32.4440289  55.3905773  46.0602856  31.4500570
  54.9687195  45.2532053  33.3863139  55.5588675  45.0134373  34.2708135
  53.6658478  46.0054493  33.8144183  53.8345289  46.7831373  34.5592999
  53.2380581  46.4403009  32.9110885  52.9884100  45.2634621  34.2370629
  54.7394657  43.9802217  32.6208687  53.9894772  44.2408323  31.8740726
  55.7109737  43.7443686  32.1865273  54.4566345  43.1380367  33.2523966
  55.6939888  47.6534176  32.7741528  55.0348568  48.3490992  32.0296097
  56.3531446  48.1714201  33.8311958  56.7688751  47.5309038  34.4922590
  56.3587952  49.5736027  34.0810275  55.3397560  49.9589109  34.0464330
  56.7068720  49.9195099  35.5337334  57.6801491  49.4464016  35.6641173
  56.8041229  51.0051298  35.5255485  55.6258249  49.5272779  36.5270114
  54.4982576  49.4355345  36.1557245  55.7946491  49.3107319  37.8061342
  55.0476646  48.9859152  38.4032989  56.7275190  49.2919159  38.1927872
  57.0258808  50.4520226  32.9774213  56.4388561  51.4497089  32.5111055
  58.1991673  49.9788475  32.3763156  58.7144899  49.2312193  32.8185773
  58.8096142  50.5801821  31.1394787  58.9270973  51.6395712  31.3674784
  60.2359724  50.0246620  31.0225582  60.6973028  50.1425982  32.0030546
  60.1914835  48.9484215  30.8557534  60.9830189  50.8421278  29.9585509
  60.4142523  50.7754183  29.0311027  61.0273504  51.8581152  30.3508568
  62.4135113  50.3382778  29.7819066  62.3937798  49.2904997  29.4821191
  62.8001785  50.9678936  28.9805436  63.1999397  50.6779099  31.0310626
  62.7826595  51.5633631  31.5105939  63.0649137  49.8164701  31.6851187
  64.6330547  50.8559895  30.7790041  65.0256109  51.7667675  30.5880141
  65.0895977  50.4474306  31.5819693  64.9141026  50.2208281  30.0457358
  57.9011726  50.4813480  29.9304843  57.7267027  51.5174389  29.2900372
  57.2846937  49.2924595  29.6839666  57.5641346  48.4385395  30.1453066
  56.2049389  49.2337847  28.6635017  56.6373634  49.4306040  27.6824975
  55.7024574  47.7543354  28.5641003  56.5907669  47.1782494  28.3050108
  55.4561520  47.3298216  29.5373535  54.5658731  47.4377775  27.5727129
  53.7903833  48.2009554  27.6381230  54.9840975  47.1822309  26.1264396
  54.2735434  46.6582775  25.4871464  55.2367830  48.1327057  25.6564927
  55.8822203  46.5742350  26.2351584  54.0619326  46.0397577  28.0650353
  53.7083626  46.0276747  29.0960264  53.1668663  45.6604528  27.5719976
  54.8011827  45.2600622  27.8814936  55.0856686  50.2500010  28.7513614
  54.7819757  50.9235239  27.7668834  54.4021702  50.3891468  29.8901844
  54.7934675  49.9090528  30.6879950  53.3140802  51.3474417  30.0813818
  52.5362206  51.1258745  29.3506670  52.7526951  51.0509205  31.4793015
  53.5901308  51.0542822  32.1770072  52.0834875  51.8624496  31.7651343
  51.9763327  49.7615767  31.6648412  52.5892591  48.9303589  31.3162756
  51.5479517  49.4773960  33.1366968  51.3531399  48.4286356  33.3608603
  52.3758554  49.5716810  33.8393998  50.6254005  49.9703646  33.4432578
  50.7730579  49.6904945  30.8218288  51.1690712  49.3597889  29.8616719
  50.1015615  48.9057446  31.1701941  50.4420996  50.7240582  30.7203078
  53.9013433  52.7680588  29.9174571  53.3228397  53.5101748  29.1394162
  55.0601006  53.0516863  30.4623866  55.3313971  52.2883415  31.0655522
  55.7107830  54.3764448  30.4859972  54.9362183  55.0472689  30.8576775
  56.9019365  54.5203876  31.4664888  57.6638460  53.8646555  31.0450459
  57.5308037  55.9218740  31.4552045  57.9977226  56.0605812  30.4800868
  56.8738937  56.7350864  31.7638445  58.4407139  55.9491014  32.0547295
  56.5114117  54.1191101  32.7989817  56.5190840  53.1596422  32.8299546
  56.0160637  54.8341465  29.0420890  55.8265781  56.0075283  28.7165737
  56.3597202  53.9145088  28.0945182  56.5395641  52.9627419  28.3806825
  56.6309404  54.2638731  26.7226267  56.9979048  55.2862406  26.6320729
  57.6689339  53.2589531  26.1506224  57.6197004  52.2657633  26.5969968
  57.6605225  53.2539940  25.0606656  58.6543798  53.6004210  26.4674830
  55.4788685  54.3370962  25.7086515  55.6246519  54.9999809  24.6669006
  54.3596220  53.6245584  25.9550357  54.2708015  53.1356382  26.8343329
  53.2938194  53.4885359  24.9669051  53.6900902  53.5096788  23.9517093
  52.7241850  52.1350193  25.2281117  52.3978758  52.0720911  26.2662196
  51.8336391  52.1251488  24.5996714  53.6315203  51.1059809  25.0772452
  53.8764429  50.9038353  25.9832001  52.2152472  54.6003532  24.9977994
  51.3916254  54.5422173  25.8895302  52.3565483  55.6626844  24.1824031
  53.0923939  55.5776167  23.4958196  51.4934015  56.8573141  24.1258502
  51.3827896  57.1903038  25.1578331  52.1090031  58.0675316  23.3140087
  52.2024250  57.7691174  22.2698236  51.3341284  58.8335657  23.3433914
  53.4265089  58.6945343  23.7001419  54.1924667  57.9232550  23.6193204
  53.8009882  59.8612452  22.6642489  53.7324810  59.5301342  21.6280198
  53.0693102  60.6673956  22.7178407  54.8434448  60.0885391  22.8872252
  53.5235262  59.2874956  25.0965238  53.0711079  58.6441374  25.8511829
  54.5712662  59.4870949  25.3212428  52.9134035  60.1849747  25.1984048
  50.0714016  56.5996027  23.7000561  49.1829920  56.7490673  24.5911145
  49.8381472  56.1959934  22.5254488  58.4445333  33.6684227  38.6021423
  28.1174088  59.2355299  41.4212704  60.2859735  65.5882931  22.8565478
  28.5182452  70.8085155  53.7821484  35.4252028  34.9566936  23.5896182
  10.8754730   5.0226307  32.7593589  41.2358618  64.0098810  34.6538377
  66.8840361  50.1108074  33.2891321  75.9627247  63.3290434  14.6404648
  76.5238571  62.5555706  14.6961117  75.1446867  63.0048800  14.2636859
   0.4854843  58.0528641   5.4407054   0.3459744  58.8540459   4.9358547
   0.5299523  57.3595428   4.7822529  60.8415031  73.5761499  11.8300617
  60.7814121  74.1288090  12.6092839  60.1193619  72.9544878  11.9210684
  81.2441635   0.4559713  21.3068199  80.3013611   0.6211679  21.3152027
  81.4649296   0.2816854  22.2217607  32.4545312   7.4615920  18.7682974
  32.2074485   7.1089107  17.9134309  31.6824222   7.9466206  19.0595436
  60.6232977  51.1459589  63.8829708  60.1780462  51.0407686  64.7237539
  60.0861692  50.6514072  63.2639790  46.4136505   6.1326414  39.2596197
  46.1400032   5.2192724  39.3439007  45.8420181   6.4923203  38.5813117
  61.3409042  65.3185415   7.7945912  62.2548008  65.0413179   7.7299654
  61.1570263  65.3203630   8.7339616  73.0090189  75.1066065  21.0506487
  72.3410130  75.6361580  20.6152511  73.5240746  75.7371998  21.5539408
   1.9311607  46.3305950  26.4675283   1.9485041  46.1433220  27.4060702
   1.0869332  46.7583418  26.3242054  34.8322797   5.6511354  46.0250759
  34.2149496   6.3691145  46.1652231  35.6261253   5.9246725  46.4846611
  28.3450675  48.9102650  35.6380272  27.6476169  49.5043898  35.9151697
  28.2001758  48.7922001  34.6992540  11.4130831  75.3769493  32.6922345
  10.8521163  75.9410334  32.1599221  11.0486937  75.4412127  33.5750270
  25.5354881  18.4539819  31.7461491  24.8634362  18.1581974  31.1320734
  25.1350474  19.1950524  32.2007847  16.1165643  28.8248301  34.2467165
  16.2191761  29.1378522  35.1454496  17.0117772  28.6844134  33.9383197
  81.2777328   4.8593864  54.0756750  81.4534283   4.3517599  53.2834101
  81.4633369   4.2543954  54.7938442  34.8535562   2.8351888  65.2618408
  34.4062471   2.4034606  65.9896851  35.7339907   2.4596179  65.2651644
  63.3227968  47.7601862   6.4166874  63.2279825  48.6504793   6.7552513
  63.0214643  47.1989059   7.1311033  65.5703306  10.2557933   6.5765983
  66.3391256  10.2454221   6.0064393  65.4287148   9.3369591   6.8044579
  63.3023691  51.8505907  15.8367085  64.0475941  51.6449261  16.4011312
  62.5631618  51.9382572  16.4384699  76.5442657   1.5165630   4.1401246
  77.2351122   2.0390087   3.7326789  75.7636833   2.0679428   4.0862802
  31.7151093   4.1608167  36.8389368  31.5525913   5.0627393  36.5626121
  32.6659298   4.1075665  36.9355845  34.4646811  52.6591444  63.6946392
  33.6977863  52.2702360  63.2740974  35.0904226  52.7859020  62.9814720
  30.1014686  12.5268769  17.0491111  31.0560942  12.5139451  17.1180367
  29.7983837  12.6648259  17.9465199  56.8649626  40.2943468  13.1492150
  57.5990295  39.6915770  13.2677317  57.2510386  41.1645126  13.2491374
  80.8663940  61.5963745   8.9538419  79.9632263  61.6146135   9.2703736
  80.8222771  61.1079407   8.1318223  40.2108669  16.7510688  40.1523924
  39.3092465  17.0476270  40.0284386  40.1257420  15.8531535  40.4729128
  23.0028677  20.2891684  14.9394870  22.9925823  20.8708954  15.6995654
  23.5747862  19.5666599  15.1985717  12.1117163  56.1186647   5.3365672
  12.9864538  55.7329750   5.2885389  12.2559583  57.0561934   5.2082449
  19.9847293  53.1131935   7.7910560  19.9108732  53.4231949   6.8884617
  20.7943749  53.5082769   8.1145006  73.2945061  59.4939566  32.2263122
  73.7115812  58.7520742  32.6643658  73.2343483  59.2274761  31.3089252
  73.3525658  25.8697557  61.0176897  72.6849031  25.2918601  60.6482363
  73.8006401  26.2361860  60.2553320  12.9139960  66.2462425  49.3361282
  13.1459594  65.3388691  49.1384029  12.4685943  66.5568209  48.5478449
  46.7268658   1.7093948  54.0676451  46.5254593   1.3668238  53.1968355
  45.9303236   1.5555544  54.5756674  43.9903355  31.6797090  62.4686813
  43.7146282  30.7656837  62.5377750  44.2152596  31.7928839  61.5451956
  17.8746307  67.4849510   8.5389918  18.4733951  67.8103495   7.8668112
  18.1486952  66.5796757   8.6859506  80.7780933  70.0181532  36.2953544
  81.6303158  70.4230785  36.4565444  80.9856033  69.1782999  35.8857012
  43.0070686  71.6963482  61.9104624  42.1269703  71.3354969  61.8034601
  43.2151747  72.0771074  61.0572624  75.2286196  66.2356901   6.9549376
  75.3589725  65.3241301   7.2162735  75.9543133  66.4200020   6.3585937
   8.0455244  73.9654684  53.4735918   7.1213418  73.8678885  53.7029314
   8.1054109  73.6382675  52.5760460   8.4169132  62.0367098  48.6232758
   8.8240683  62.8668642  48.3756924   7.5209057  62.2718811  48.8643074
   3.9818609  24.9739599  29.7109556   4.5164797  25.2261329  30.4638338
   4.3714052  24.1552448  29.4040513  63.1252337  63.4933615  63.2787704
  62.7656031  64.1617584  62.6955509  63.9390278  63.2192373  62.8558969
   7.5618327   5.8896309   7.3266429   7.8768247   6.3757950   8.0886507
   8.2672673   5.9676760   6.6843796  71.7237282  17.9679668  67.0498180
  71.3670111  17.3247194  67.6623678  71.1452198  17.9204035  66.2887049
  15.6580544   7.7064246  32.6381516  14.8107588   7.3970473  32.9584742
  15.9297740   7.0447385  32.0020914  78.3390474  19.4201076  54.0916729
  77.9453564  19.6688676  53.2553959  78.0455065  20.0942492  54.7045374
  38.2037687  48.8418722   0.8601800  37.8440261  48.6857367   1.7333567
  38.5464025  49.7348309   0.8984555  24.0052724  34.4354081  10.1577544
  23.9143944  33.5470748  10.5024838  23.1334209  34.6552944   9.8294961
  77.0028877  54.1050100  26.9018340  76.1650944  53.9681864  27.3441124
  76.7645073  54.3513346  26.0081172  26.4614344  64.3977404  46.5735102
  26.1698866  63.5462952  46.2475204  27.1258330  64.6801472  45.9449768
   1.5297355  35.4166412  62.3130035   1.1502209  34.5552468  62.4867868
   0.8088882  36.0295701  62.4576664  11.7062926  37.8375888  51.3370037
  10.9851205  37.8249621  51.9662762  12.2823441  38.5364270  51.6468763
  38.9508677  45.9951639  64.4025421  39.7319102  46.1310005  63.8661146
  38.9496374  46.7311764  65.0145149  80.8760071  19.1926813  36.3175535
  81.0514927  19.9633312  36.8574953  80.8324528  18.4680164  36.9414091
  47.9119825  20.0621986  37.4595737  47.6535654  20.7404232  38.0836439
  47.7979136  20.4704165  36.6013336  29.4805717  21.5113354  60.2611637
  30.0437403  21.3529634  59.5035410  28.7133145  20.9596825  60.1087570
  71.0649443  72.7675200  65.9703302  70.4332399  73.4102535  65.6477213
  70.6166744  72.3350620  66.6971493  76.3921595  57.2818995   8.1839842
  76.6621399  56.7987442   7.4030221  75.6111097  57.7627039   7.9100770
   5.5949700  60.6167841  16.5510309   5.0493711  59.8453331  16.7040777
   6.0016888  60.4573488  15.6993306  63.9224434  37.1162343  56.6615629
  64.5683622  37.4207568  57.2989750  64.4447660  36.7699385  55.9380388
  11.1490321  60.4506207  11.3273847  10.9781003  60.1413345  12.2169673
  10.4021633  61.0128307  11.1216259  57.8266096  30.6316066  28.8880324
  57.0800924  30.0830436  29.1289139  57.4337149  31.4168310  28.5068631
  69.8501825  50.9102440  45.8684683  70.1418924  50.6400156  46.7391634
  70.0579071  51.8436337  45.8252525  35.8927011  47.8637028  66.9245338
  35.1971149  48.2711124  67.4406862  35.7384229  46.9233322  67.0147085
  76.6882610  61.0217810   6.8784249  76.0671329  60.4727554   6.3998765
  76.1579132  61.7417908   7.2198129  66.4563513  60.7365417  13.8365281
  65.9757471  61.5629482  13.7885773  65.8112097  60.1020432  14.1486692
  59.2251253  33.3713341   4.0765834  58.9908886  33.9731002   4.7831556
  59.6121311  33.9312410   3.4035569  35.5132055  14.7673523  50.7995176
  34.9999380  14.1812646  51.3556576  36.2662673  14.2421460  50.5288029
  16.1275744  10.5639875  27.3425508  16.7181420   9.9261457  26.9417763
  16.6949749  11.1016321  27.8950238  14.3368697  40.4343653   3.8422632
  13.9673316  40.4282618   4.7252330  14.4622815  41.3618374   3.6415175
  52.4315262  52.7227545   7.8793591  52.8179359  53.5091591   7.4940187
  53.0329561  52.0179462   7.6390368  25.6621504   4.3658996  20.7387733
  25.3308892   3.9596778  21.5397000  24.8885536   4.4680536  20.1843858
  46.0697842  29.7266483  47.3732615  45.4203701  29.3647289  46.7703438
  45.7518721  29.4825101  48.2424927  19.8271024  30.8452439   6.9913447
  19.5568800  30.5733204   7.8684247  19.3331826  31.6484880   6.8268126
  25.5960274  19.9638796   3.9954841  25.5250096  19.5576334   3.1316829
  24.7675943  20.4295111   4.1100180  62.6008034  46.5279818   8.7282622
  62.4295044  47.3496866   9.1883618  62.8052044  45.9024000   9.4233173
  46.6827822   5.4892647  13.1918240  46.1607409   4.9581695  13.7931895
  47.5830364   5.1965767  13.3336127  34.6463132  58.7825441   2.2047766
  34.7152162  59.7257710   2.0571072  35.5260181  58.5172176   2.4730168
   4.9705884  52.9828072   9.9374354   5.4205346  52.9926538  10.7822335
   4.7473919  53.8992071   9.7742504  76.6368151  30.4908681  15.1020277
  76.1148643  30.0603700  15.7791317  77.4965620  30.0742674  15.1613081
  34.0537715  42.2877836  64.3825722  34.5564103  42.9386473  63.8927078
  33.2683539  42.7556181  64.6662712  13.4893310  65.8419180  16.7072582
  12.9454923  65.0600767  16.6113794  14.1242659  65.7810211  15.9935498
  17.3181313  49.1099084  67.4038192  17.7834576  49.8882485  67.0974013
  17.9516667  48.6550880  67.9587982  61.7379236  21.1286855  54.8873615
  61.2763977  21.9668221  54.8599339  62.6589346  21.3658571  54.9956322
  41.0896730  50.5034065  65.7675648  41.9231129  50.9737492  65.7871389
  40.6768179  50.7126808  66.6054153  58.4443045  51.9757175  48.0897045
  58.1372499  51.0898685  47.8967762  58.1202888  52.5054693  47.3612738
  58.7967730  30.8661032  22.3904324  57.8547382  30.7010055  22.4297285
  59.1959047  30.0026011  22.4966693  56.4466763  11.8215704  35.5269933
  57.1430635  11.1965764  35.7286382  56.0503626  12.0204937  36.3752842
  66.6450739   7.2575176  43.7553453  66.3758278   6.3390422  43.7672901
  67.1645832   7.3652029  44.5520496  41.7795706  33.2462573  57.1571970
  41.2251377  33.3426785  56.3828993  42.6704121  33.3746767  56.8313980
  41.6328669  46.1814833  63.1427383  41.9823980  47.0672274  63.2403278
  42.4080801  45.6248808  63.0688143  30.4911160  21.7391109  66.5331268
  30.6330585  20.8176160  66.7497587  31.0846543  21.9072723  65.8012342
  40.4275751  30.7055116   2.7078101  39.5767283  30.2952242   2.8625879
  40.4820871  30.7922244   1.7561057  54.0431499  29.9501038  54.8499060
  53.8097477  29.0969968  54.4838905  54.1017771  29.7981167  55.7931423
  58.9993000  36.9322014  10.8148086  58.0888224  37.0776010  11.0719478
  58.9421797  36.3941050  10.0252378  23.1476521   2.1055174  52.4742889
  22.8342724   2.1259205  51.5700722  22.3690033   1.9037071  52.9931450
  38.3735204  25.7967973  61.3344812  38.2913589  26.7279029  61.1282635
  38.8275146  25.4233313  60.5790710   3.4107929  47.7223253  17.3736703
   3.0934888  48.5305977  17.7764606   3.4298554  47.9134655  16.4359426
  72.0993090  47.0383739  17.9094696  72.0179844  46.8520212  16.9741130
  71.2361717  46.8354034  18.2700598  56.9001913  12.0200300  62.4900484
  56.8722105  11.6689324  63.3800936  57.5974178  12.6754570  62.5129318
  62.3580933  56.9761515  49.8982048  62.7830458  56.2807178  50.4002190
  61.4419174  56.9448137  50.1736593  24.2103553  73.4815311   6.2824744
  23.5325718  72.8095961   6.3555890  24.2626548  73.6679697   5.3450644
  45.0923014  52.2159815  28.7806129  45.9024191  52.4206161  28.3136392
  44.4450474  52.0793009  28.0887961  57.1666574  14.5987499  36.8665719
  56.5880966  15.2233326  36.4290833  56.5735197  14.0014350  37.3222446
  30.9966898  43.9143658   8.7056404  31.9532704  43.9480352   8.7128842
  30.7893205  43.0924034   8.2611012   5.1161605  49.2269897   6.2613457
   5.4584301  49.6914101   7.0251471   4.5990387  49.8830462   5.7940060
  14.6625638  53.1438065  16.9896746  14.9520528  53.9395761  16.5433800
  14.9702668  53.2486916  17.8899801  44.3957043  68.9487076   3.8488886
  44.3950367  68.0809927   3.4447742  43.5161591  69.2894506   3.6860234
  39.4469881  43.4797859  11.1751401  38.9825916  43.5742855  10.3434932
  39.8924279  42.6353645  11.1061239  57.5878000   6.3041651   6.8528980
  56.8565273   6.3984734   7.4632931  57.8419971   5.3840786   6.9239998
   5.6933683  37.1924543  10.7612574   4.9248689  37.1980739  11.3318789
   5.3709382  36.8474650   9.9286395   3.3262461   6.9700080  46.7012310
   4.0922004   6.6415483  46.2304211   2.5850794   6.7467165  46.1381626
   2.6694828  66.3733244  24.5545673   2.7052343  66.1427593  25.4828954
   3.5778576  66.3157034  24.2583108   5.0695843  61.4652491  43.1309700
   5.6328785  62.0099783  42.5812435   5.5946535  61.2893438  43.9117336
  26.5106463  24.0007401  59.7150755  26.1537218  23.2749486  59.2031527
  25.7428646  24.4206047  60.1029587  15.6409073  63.0958939  18.1094837
  15.0739586  62.5394726  17.5754428  16.4328814  63.2059956  17.5832856
  55.3788471  54.7483349  15.0543749  55.2822542  55.0082541  14.1382194
  55.1936865  55.5457830  15.5503821   8.0458021  31.9204187   5.8481681
   8.3953148  32.8113365   5.8297151   8.2204312  31.5764356   4.9721482
   2.4049348  68.6735773   7.7699429   2.2640486  69.5112085   8.2112569
   3.2264248  68.3454084   8.1355798  18.5216153  61.9093323  19.8142314
  19.0388310  62.7088070  19.7164714  18.0797255  61.8053961  18.9715195
  60.6011009  23.6831880  32.0269465  59.9496937  24.3719339  31.8945479
  60.2155399  22.9074049  31.6198397  65.9215403  74.6596384  65.8326674
  65.1605892  75.0609112  65.4129362  65.5559731  74.1552687  66.5594435
  45.2054548   6.2124455  46.0463905  45.6969118   5.5497664  46.5317345
  44.5646715   5.7127041  45.5405378  46.3091707  64.8702860  20.7004833
  45.5131531  65.3551960  20.4826570  46.4102459  64.9877310  21.6450596
  75.9602118  77.7144432  15.5922580  76.4045143  78.3531046  16.1498725
  76.3124180  76.8685961  15.8692646  65.0927925  74.8799086   1.2081387
  64.3416548  75.4262400   0.9767418  65.8499813  75.4553413   1.0996068
  81.6992108  60.2624178  14.7541583  82.3134084  60.9869432  14.6355760
  80.8799605  60.5780792  14.3728173  19.5553839  43.1457806  13.7036395
  19.2248857  43.8357401  13.1283510  18.7999129  42.5778055  13.8549805
  81.4568329  74.3502998  22.1637225  81.2010479  75.2543449  21.9806671
  81.6087151  74.3309975  23.1085992  23.7799215  63.6015415  36.5525389
  24.4081116  63.6845160  35.8350968  24.1733789  64.0931606  37.2734618
  42.6027203  24.7623515  53.7059879  43.0037022  24.0690398  53.1818056
  42.5549078  24.3973446  54.5895672  14.1299796  61.0000086  17.0773995
  14.8644269  60.3873634  17.0388496  13.5674107  60.6561422  17.7713060
   1.0832266  15.6663764  19.9111116   1.2779188  15.4402053  20.8206034
   0.7707076  14.8492336  19.5227301  26.0631776  77.1072769  64.9309206
  26.6189671  77.8816414  64.8432207  26.5759373  76.3990688  64.5413733
  45.9321785  15.9659839  65.5569744  45.1678801  15.3960872  65.4715538
  46.5939951  15.5651593  64.9934387  49.6836853  58.0474377  38.1580520
  50.5854845  58.1463099  37.8527474  49.4551897  58.9067936  38.5123610
   5.0632620  69.8973274  18.2500350   4.2645520  70.2561855  17.8633666
   4.7659174  69.4509029  19.0428317  78.3334208  13.3547843  50.9835434
  79.2086983  13.3716214  50.5964470  78.1649876  12.4281859  51.1546469
  12.8657639  76.0159731  57.9136896  13.1374180  75.1888180  57.5158834
  13.5717571  76.6267490  57.7021313  49.5334721   1.4904037  14.8703003
  50.4649496   1.2771158  14.8146963  49.1021872   0.8198858  14.3405521
  72.1428871  28.8724875  44.2661905  71.9561195  29.2048287  43.3881855
  72.6519632  28.0756593  44.1174030  63.4686947  18.1375623  61.6208839
  64.1834688  17.5723231  61.9138670  62.7629232  17.5324845  61.3928556
  64.2680025  34.0546632  16.3228011  65.2093267  34.0199733  16.1527002
  64.1723776  33.7117648  17.2113442  72.2977018  60.5336666  52.8471899
  73.2075357  60.5456448  52.5500441  72.2768354  59.8608685  53.5277319
  70.7403660  22.7048421  56.0064268  71.1368465  21.8351793  56.0586214
  71.0540247  23.1584144  56.7888117  23.2115483   5.6820256  19.3476796
  22.8704619   6.2474298  18.6547089  22.8143692   6.0204560  20.1501417
  19.9976218  73.6516809   8.5807920  19.2461288  73.9108801   8.0475903
  20.6599784  74.3190908   8.4016806  15.7147777  37.3662663  13.2813096
  15.0098908  36.7895365  12.9867780  15.3863764  37.7498889  14.0944624
   5.0362384  74.8174906  67.3126125   5.5632448  75.5828238  67.0829248
   5.1288700  74.2292356  66.5632057   1.3633996  55.4728985  42.6185656
   1.3930342  54.5488405  42.3706245   2.2061270  55.6341839  43.0428648
   7.1377420  16.8854475  16.5836203   7.8653425  16.7154670  15.9853423
   6.8927073  17.7944255  16.4105642  63.1141138  37.4137330  46.3268709
  63.8544750  37.9535580  46.0499430  63.3441925  36.5285754  46.0443974
  37.9288888  21.1648107  48.5805655  38.6864781  20.7751107  48.1441927
  37.9172468  20.7595348  49.4476604  29.4372511  59.6846390   8.6935896
  29.2902088  58.8060045   9.0437454  28.9803505  59.6868324   7.8524780
  27.8861094  40.3585100  48.2819891  28.4461927  40.9976530  47.8415012
  27.0445609  40.4264259  47.8309727  64.2364264  71.5140438  42.6714039
  65.1276588  71.6593122  42.3538589  63.7265301  71.3364220  41.8810320
  75.5286694  61.2204170  18.6735594  76.4006662  61.5908003  18.8101792
  75.6378222  60.6149197  17.9402888  35.2076626   8.2931280  28.5000038
  35.7665372   9.0236634  28.7649751  34.4935250   8.7027478  28.0116892
  35.1102829  11.8955183   1.3123162  34.7256804  12.6005137   0.7914579
  35.2917004  11.2012577   0.6788167   9.8632693  30.5239367  32.4804926
   9.7335798  31.4616227  32.6224685   9.9791604  30.4387546  31.5341592
  51.8283939  33.7519336  48.0695724  52.6304674  33.6356020  47.5602818
  52.0174408  33.3384514  48.9119053  67.0575953  34.6777010  15.8128572
  67.6492357  35.1683927  16.3833094  66.8930054  35.2658081  15.0757885
  19.9348366  53.2766581   3.5429651  20.8220696  53.4653282   3.8486621
  20.0595856  52.8409100   2.6998788  43.0997229   9.5078760  60.4945183
  43.1874990   8.5838819  60.7285309  42.9438210   9.9522388  61.3278675
  82.6148891  60.2868652  18.6976898  81.8675613  60.0612164  19.2515993
  82.7745819  59.4988871  18.1782496   5.4912227  41.8715620  13.9144766
   5.5133200  40.9750462  13.5798037   5.0922143  42.3808098  13.2090044
  81.2442589  34.5829630  61.5388393  81.6194534  35.3755069  61.1550045
  81.1669827  33.9744091  60.8040428  58.3636570  62.5943708  33.1297016
  59.1528702  63.1314087  33.2001591  57.6555014  63.2251740  32.9999399
  26.4656496   4.1965002  59.3210411  26.4947438   4.8175532  58.5932541
  25.5518174   3.9141306  59.3585634  23.7541938  17.9897213  64.1187429
  23.7386250  17.0492852  64.2964220  24.5960712  18.2850790  64.4654894
  18.1776822   1.2725978  65.2265406  17.9318810   1.9988430  65.7995892
  18.4283316   0.5692085  65.8254147  64.6039677  55.9139681   4.2863047
  65.1253033  55.9250021   3.4836110  64.1546488  55.0689697   4.2684802
  47.5695419  12.5836241  52.0062590  46.9058228  12.2719049  52.6215172
  47.3376989  12.1707857  51.1743689  27.4680352  32.3773360  53.5629845
  27.8586221  31.7582417  54.1797495  26.8791747  31.8441343  53.0289698
  76.7667198  63.1803036  27.0606565  77.1514225  63.8180304  26.4593744
  76.5656900  63.6850834  27.8487015  43.8887787  73.8652563  26.3398170
  44.0224648  73.9745998  25.3983259  44.6788931  73.4184313  26.6436219
  21.9039010  67.7181162   0.7065492  21.4577721  68.4129060   0.2223306
  22.7851723  68.0596293   0.8580881  73.5408401  43.3211803   2.0596415
  73.0532789  44.0345335   2.4715221  73.2079268  42.5288820   2.4811447
  61.2005615  54.4335842  34.2868781  60.4164028  53.8937807  34.1871762
  61.1945057  55.0084496  33.5215521  44.7927332   7.1631831  33.2148123
  44.7666645   7.7274388  32.4420476  45.6983948   6.8561709  33.2567620
  11.3292849   1.9908792   7.7312744  10.8924317   2.8189409   7.5320137
  10.8362997   1.6314165   8.4688276   8.5458875  40.3104591  25.6973100
   8.8204026  40.9970951  25.0895214   7.6087916  40.4610634  25.8214068
   6.9835144  50.3610945  37.2011065   6.2851238  50.3408003  36.5468359
   6.9705707  49.4876337  37.5924230   2.8318468  69.8295355   1.2238427
   2.0209160  70.3380156   1.2322946   3.3016515  70.1148891   2.0074818
  17.4732959  11.3740766  15.3266203  16.5325689  11.3583505  15.1505017
  17.7772343  10.4997265  15.0829685   9.4981909  30.2135038  52.2977877
   8.5529238  30.2436423  52.4454165   9.6350491  30.7439518  51.5128517
   7.7389348  69.3573189   5.1121110   7.1953237  69.1442728   5.8706164
   7.1173239  69.4483852   4.3899348  25.7634783  60.9493637   8.4309572
  25.0612187  60.5339384   7.9304689  26.2770796  61.4220858   7.7759945
  54.7502613  60.7788229  18.3376992  53.8807011  60.3788280  18.3475220
  54.5904589  61.6936827  18.1059098  72.6644468  37.9802823  20.3240061
  72.4558878  38.8345027  20.7022142  73.4791088  38.1240082  19.8424447
   4.9137044   8.3020210  52.4240208   4.1676471   8.1935805  53.0138254
   5.2644223   9.1665918  52.6379013  37.5462508  25.1950502  29.6075368
  37.3980856  25.2402472  30.5521202  37.5074363  24.2606664  29.4034481
   6.7368490  53.4508228  12.4117386   7.3239094  53.2421970  13.1384206
   6.6474348  54.4033575  12.4419487  28.9390230  48.2723045   6.8207443
  28.9211535  48.1213522   7.7657974  28.2734561  47.6799393   6.4709491
  27.6918435  71.2205887  44.1681814  28.2520032  71.1810780  43.3930063
  27.1928072  72.0304775  44.0620375  59.6656752  62.8052139  14.7136390
  60.1167393  62.2606611  14.0684807  60.0013924  62.5040436  15.5579245
  19.6054900  38.9246678  25.3876138  19.6168447  38.1748748  25.9825206
  19.0177071  38.6600804  24.6799874   2.9063475  62.3690605  11.6477048
   2.7765888  63.0557060  10.9935510   2.0209932  62.0881176  11.8788958
  58.8956785   5.8264792  23.6532903  59.3696117   6.5456271  24.0709567
  58.9110756   6.0394531  22.7202106  78.0399656  47.1077251   6.0126722
  78.5267401  46.4605093   6.5229583  77.6654577  46.6082144   5.2870947
  64.5020580  72.5187397  13.3430266  65.4477978  72.3790789  13.3910549
  64.3527889  73.3213520  13.8427901  15.9158313  75.3474379   2.6737085
  16.2673557  76.1857462   2.9735458  15.1302505  75.2137041   3.2039997
  55.5363846  77.1482182   9.8514670  56.2383127  77.6442957   9.4302338
  55.9396076  76.7850971  10.6400001  65.4975653   9.7621739  33.5238981
  65.8789301  10.1970053  32.7611971  65.9772730  10.1224566  34.2697573
  78.3779287  57.5244951  43.5672092  77.4940300  57.5060558  43.9341068
  78.2884932  57.1156788  42.7063417  60.7141590  30.3466177  63.4976578
  60.7505512  30.7879233  62.6490355  61.3563824  29.6402645  63.4280300
  37.4828339  23.9577198  21.2163901  37.6163554  24.2279959  20.3078985
  36.9498158  24.6552587  21.5979195  48.6237574  47.8848028  48.3441401
  48.8464499  46.9543409  48.3145905  49.0120745  48.2493925  47.5488329
  67.2193289  46.1115074  29.3681741  67.3781776  45.6279469  28.5575151
  67.8088999  46.8638992  29.3177032  66.7714596  63.4464598  22.4668002
  65.9276628  63.8853216  22.3589039  67.0120955  63.1693840  21.5827441
  13.3388972  26.6472936  27.2879004  13.4059656  25.6955171  27.3644161
  13.1968021  26.8030953  26.3542175   7.1138316  16.0303307  12.7434742
   6.3355482  16.0186386  13.3005822   7.8396338  16.1809981  13.3490658
  32.8008914  10.4391766  17.8616810  32.1539187   9.7551501  18.0342019
  33.4468436  10.3397655  18.5610342   9.9103767  67.6285172  50.4816389
  10.2825499  66.8144894  50.1424170  10.4173279  67.8123760  51.2724781
  13.8312709   1.3438226   6.8270439  13.8449478   1.2694886   5.8728331
  12.9227245   1.5594333   7.0374876  40.7783079   6.6235346  28.9196467
  40.8434629   6.7283678  29.8688555  40.9804201   7.4907464  28.5684681
   5.6409657  59.2290449   5.9864366   5.6371558  58.3697701   6.4081728
   6.2888974  59.7340965   6.4777017  74.9577713  52.6937723  17.3802793
  74.6655750  53.3905745  16.7926383  74.7109079  51.8841982  16.9332027
  66.0717058  26.1564589  62.1497631  66.9392061  26.1145377  61.7473698
  65.4712677  26.2708116  61.4131308  80.6676769  46.5259075  54.0534115
  79.9936056  46.0127592  54.4989824  80.2634048  47.3821735  53.9134121
  17.4836338  65.7136202   6.1415404  16.6313910  66.1436987   6.2118691
  17.4739933  65.0488377   6.8301654  39.9431205  41.7206717  25.4792452
  39.4393778  41.8900061  24.6831274  40.5691195  41.0419893  25.2267671
  45.0219044  77.9183363  66.5943241  44.7169480  77.5670216  67.4308729
  44.2360386  78.2822091  66.1865997  44.5106125  69.7506714  62.9464960
  43.8901329  70.4770279  62.8861904  44.9027252  69.6976376  62.0749092
  62.4939346  11.0609877  60.4751730  62.3544693  10.1281393  60.3121519
  62.4714279  11.4619565  59.6062946  13.4685324   0.7043670   4.2339197
  13.8374947   0.4771398   3.3804166  12.7717637   0.0627731   4.3721333
   2.8139722  60.5479670  39.7816229   2.5780615  59.9426270  40.4845762
   3.6104780  60.1762152  39.4026613   6.2226415  36.8126845   0.7452914
   5.3236908  36.9567013   1.0408896   6.7390752  36.7907643   1.5509266
  58.3890247   2.7380571  38.2343745  57.9420042   2.2401872  38.9188695
  58.4164143   3.6343491  38.5692525  28.8664246  24.5446539  10.7420123
  29.5174336  24.7499466  11.4130366  29.2547560  24.8617315   9.9266016
   2.3883724  59.4780922  56.5606117   2.3673598  60.0900412  57.2963428
   3.0921385  58.8666677  56.7776537  72.6516151  65.8204985  14.3657827
  72.2311163  65.5748224  13.5417366  73.4224129  66.3224888  14.1010046
  33.7020111  44.9138021   8.5962325  34.3276572  45.4380083   8.0962270
  34.0459538  44.0217304   8.5498625  45.4412365  60.9542131   3.6945599
  46.3701677  61.1808014   3.6501086  44.9943733  61.6934872   3.2822204
  15.8713210  -0.2327720   7.8779817  15.2215886   0.3795556   7.5328219
  16.3558245   0.2741764   8.5295117   1.5527734  46.7503262  59.0617228
   2.1411185  47.4325657  58.7382603   2.1277003  46.0094738  59.2536354
  29.8446488  38.4734321  20.2034044  29.2728472  38.2205820  20.9282112
  29.9441004  37.6738787  19.6866310  28.5316825  62.3593473  16.9300532
  28.9297891  63.2101059  16.7457843  27.8045654  62.5579119  17.5200582
  64.6941280  68.4100103  15.9281898  64.8518896  68.0375767  15.0606441
  64.2363691  69.2328310  15.7559788  17.1762347  31.0316038  47.2152472
  17.6311171  31.1723781  46.3848877  17.6036334  31.6309476  47.8270864
  67.9300976  32.9208994  29.3465686  68.7295341  33.3646750  29.6297574
  68.0283689  32.8322077  28.3985662  39.4917512  22.2156930  59.8053551
  39.9041438  21.4873505  59.3409395  39.8372149  22.9990339  59.3772650
  52.0306778  30.4595256  -0.2092884  51.4576483  30.2333879   0.5233297
  52.7529573  29.8341727  -0.1503050  28.5708737  72.4682617  15.6803119
  29.1691542  72.6702356  16.3996875  29.0567827  71.8540812  15.1299429
   8.8161981  57.9309464  24.8720789   8.7936962  57.0454693  25.2349186
   7.9798073  58.3174276  25.1315284   1.4233819  50.0487804   5.5222428
   0.8457484  50.8080387   5.6003463   1.9822656  50.2492523   4.7714484
   9.9171174  50.4165125   0.8595759   9.8128754  50.5220509   1.8052116
   9.3040359  49.7190523   0.6273940  53.3989191  10.1836300  50.0804520
  54.2481184  10.3762817  50.4779100  53.0151320   9.5149475  50.6477308
  11.6462374  43.8224173  24.1153479  10.9190595  44.2682219  24.5497465
  11.2762177  42.9894257  23.8230419  16.3891292  56.9146633  41.4965534
  15.5652821  57.3954678  41.4169550  16.4272189  56.3726425  40.7085180
  25.1523805  50.2896309  34.2760849  25.0615001  50.8465195  33.5028815
  24.7312140  49.4663095  34.0291095   8.7736940   2.7693075  11.0620809
   9.0056771   1.8944299  10.7506239   7.9236442   2.9489651  10.6603718
  61.5716362   2.4078423   7.7467859  62.0399904   2.4689966   6.9142371
  61.7798519   3.2252061   8.1993282   9.7011565  -0.0775315  12.9184592
   9.6863316   0.8543705  12.7003610   8.7972783  -0.2817990  13.1582785
  35.0064230  71.9906521   1.6874157  35.4946327  71.8530130   0.8756656
  35.2030540  72.8941536   1.9349074  77.1271324  34.4528294  53.8200808
  76.5992451  34.9590492  54.4375801  78.0286360  34.5789480  54.1160870
  30.1643705  52.6942348  18.9209008  29.6906948  53.1045771  18.1973791
  29.8917031  53.1862879  19.6953464  28.7461543  67.6758146  34.7088480
  28.8579512  67.6992464  33.7584877  28.1216931  68.3772659  34.8939204
  23.7071109  42.5567436  34.0072465  23.6011553  43.4312820  34.3816710
  24.1029096  42.7098799  33.1492710  16.4475155  32.4455738  30.5883265
  15.6635797  32.4078035  30.0403762  16.2149167  31.9501853  31.3736439
   2.6050070  27.9401803  61.0153437   2.8241292  27.1439886  60.5313015
   2.3329751  27.6284885  61.8785238  62.6744986  17.4379992  51.6786098
  62.3063183  17.8496432  52.4604177  62.7928782  16.5204537  51.9242287
  43.4222412   4.5566937  32.3691702  43.6527014   5.2703100  32.9640388
  43.5988283   4.9064228  31.4958191  19.6539700  38.0097890   9.9226147
  20.5805564  38.1315446  10.1296067  19.5913160  37.1004415   9.6303940
  11.4065349  34.4605637   8.0308050  10.6964421  34.1688609   8.6025661
  11.2089288  34.0642333   7.1822155   7.3144072  44.2751026  32.7935076
   6.7083079  44.8823309  33.2179475   6.7628878  43.5468435  32.5076842
   3.3109346  57.6207209  23.8505507   2.7652192  57.3041439  24.5704150
   2.9580161  58.4864807  23.6452699  46.9009686   2.9352665  32.1451521
  46.9039583   2.9412377  31.1879754  47.7625895   2.5943938  32.3852372
  19.6076226  40.7284212  19.2341244  19.6791399  40.0300837  18.5834026
  20.1307440  41.4450264  18.8748908  62.3079586  17.1813881   4.2317709
  61.5311861  16.8558967   3.7768948  63.0052519  17.1358871   3.5775977
  80.7944107  56.3456917  36.4090300  81.0299587  57.0391178  35.7926655
  81.2790203  56.5592146  37.2063971  15.0247896  25.4996657  48.4792519
  15.3854811  26.3695097  48.3074713  14.0761781  25.6221724  48.4423828
  16.8457842  46.4297867  43.7732935  16.3009822  47.2167492  43.7629652
  17.6291466  46.6743040  43.2805586  49.8944902  52.9535151  55.0313711
  49.5903730  53.8576174  55.1109886  49.3811178  52.5908232  54.3094730
   3.7574732  61.7954779  24.6636224   3.2592511  61.2000561  24.1037321
   3.4722406  62.6695442  24.3973732  35.0620556   1.2032755  15.0790167
  35.0614548   0.7573484  15.9259999  35.7614708   0.7764907  14.5841360
  60.0734854  27.0736647   1.1167095  59.8303890  27.9253125   0.7536218
  60.0376749  27.1985579   2.0650506  14.5837235  54.0908098  35.0317335
  14.5260704  53.3844662  35.6751537  15.4982162  54.0832853  34.7491050
  48.1061220  19.1276062  49.3807554  48.2906485  19.8005128  48.7254858
  48.3945513  18.3109403  48.9732027  17.5012827  74.1599607   7.3597372
  17.0948970  73.3243322   7.5895476  16.7951560  74.8007488   7.4434531
  44.6381474  31.1545777  40.0082064  43.9042664  31.2076855  39.3959689
  45.4133987  31.3004065  39.4660378  23.0718756  71.7176008  22.2527552
  23.4946132  71.5301657  21.4146662  22.1455455  71.5302467  22.1009588
   3.0703300  44.8602200  18.0186427   2.8819087  44.7739267  17.0841467
   3.1395912  45.8039522  18.1628668  41.7866182  67.5614786   1.0321333
  41.2350464  67.3039484   1.7708343  41.2536049  68.1875324   0.5420446
   3.5869673  30.6891727  19.0277064   3.3308631  31.5882230  18.8219142
   4.3037689  30.7820010  19.6552491  30.4989696   9.4280857  46.1919498
  29.7337866   9.3252796  45.6261253  30.2393198  10.0955760  46.8269825
   9.4356036   4.2233664  16.3849449   8.9929962   4.9723175  16.7841983
   9.0990365   4.1958141  15.4892910  56.9513559  10.9395564   1.8780860
  57.8110981  11.0920870   1.4858967  56.3333178  11.3278878   1.2588455
   4.2766890  73.5403633  10.9153187   4.4546837  73.2911873  11.8222165
   4.9970791  74.1258860  10.6820071   7.7505320  11.9684219  60.6244516
   6.8597859  11.9723856  60.2740431   8.1631774  11.2046909  60.2211285
  46.4715099  39.1536927  63.0933475  47.0947027  39.1041470  63.8181973
  45.6126547  39.0897918  63.5110950  13.4844111  -0.2464129  33.4998918
  12.9092215  -0.2473523  32.7347851  14.0482663   0.5168890  33.3747053
   8.8634360  65.9326839   5.4066622   8.8633883  66.8274307   5.0665712
   8.0018485  65.5874825   5.1727086  77.5689793  64.5784712   4.6108472
  78.0102682  64.9119711   5.3920472  77.9306364  63.7008095   4.4877580
   8.2669932  65.8931589  46.9505119   8.8553643  66.6334295  46.8020105
   8.8505131  65.1447773  47.0756626  42.3421955  54.8873568  29.9719048
  43.0683422  54.8609352  29.3488145  42.6894951  55.3664732  30.7242751
  11.6349733  66.3403034  42.2001791  12.0956135  66.7257833  41.4548969
  11.7347336  66.9834232  42.9020882  68.9231396  20.1831770  33.2189775
  68.5799170  19.9417555  34.0792942  68.2043648  20.6548333  32.7980971
  24.9255180  66.6480112  34.8016095  25.5608010  66.7398357  35.5116892
  25.0088406  67.4585962  34.2993760  61.7087412   8.7467164  32.5112915
  61.6794395   8.3882874  31.6242146  62.0613384   8.0351031  33.0456233
  20.9597325  40.4564524  16.1674500  20.9788918  41.4131832  16.1906219
  21.8690658  40.1951027  16.3124979  37.6422858  25.7909560  10.1442325
  37.6009941  25.4372191   9.2557526  36.7739487  26.1649537  10.2937210
  20.9168386   1.8028507  10.9665000  20.9048009   1.8620056  11.9217956
  20.5276370   0.9497012  10.7744360  13.1787395  68.9204121  58.2864666
  12.8744400  69.7842646  58.0082607  13.3477116  69.0163898  59.2237329
  18.6329222  68.4271812  12.1416473  19.5654619  68.3078718  11.9617391
  18.3739042  69.1622305  11.5859115  78.9603996  65.7533646   6.7300248
  79.7377300  65.1953650   6.7550468  78.7184429  65.8683729   7.6489705
  32.5163794   3.8645962   7.7327752  32.5840545   3.0229172   7.2819668
  31.9521761   4.3936551   7.1688575  78.1203127  28.0273819  11.3461483
  78.0594254  27.0724082  11.3696575  78.3543015  28.2745576  12.2407901
  24.3557692  32.2108674  19.9359679  24.1804743  33.1094193  20.2154422
  23.6504793  31.6961336  20.3282022  60.2338839  69.5834684   4.6512964
  60.8681297  69.0935278   5.1746732  59.6003771  68.9254856   4.3650126
  27.0248032   1.7129880  48.9604187  27.2214437   0.8313330  48.6437988
  26.7106628   1.5816881  49.8550177  11.9644153  70.0389385  20.0508046
  12.6403666  69.7052002  19.4609416  11.3040745  69.3463945  20.0745940
  38.1994772  16.5591884  29.5840216  37.8463864  16.0478985  30.3121281
  39.1436481  16.5780699  29.7402740  26.2038589  73.2319784  37.5470948
  25.7200241  72.6230812  36.9890833  25.6968880  73.2680035  38.3582139
   5.3560203  46.1348772  33.9111733   6.0521460  46.3114691  34.5439887
   4.6223250  46.6746759  34.2053485  67.4847651   6.5957254  17.4560797
  67.2710228   7.1624994  18.1972373  66.6373253   6.2746000  17.1479297
  14.5954490  17.5855923  12.6507568  14.8805571  18.3727086  12.1866500
  14.7168136  16.8774414  12.0182824  27.5020146  18.2659507   4.6509498
  27.7117014  17.9967475   3.7566385  26.9104791  19.0109062   4.5443645
  79.2009258  32.0316529  56.3404799  80.1250935  31.8923306  56.1337662
  79.1312313  32.9721904  56.5040779  79.4178772  28.9698052  28.7502217
  78.6320925  29.1687202  28.2410955  79.1856241  28.1899333  29.2542934
  45.2732229  71.9724894  57.6754379  46.0169220  71.3870001  57.5328016
  45.4150820  72.6936436  57.0622206  55.8912897  12.9792297  25.9642577
  55.1106262  12.7713501  26.4776587  55.5939102  12.9527891  25.0548077
  58.3893061  30.8565593  57.1301985  57.4895048  31.1816263  57.1606064
  58.7238550  31.1563897  56.2849712   7.6601827  52.8554726  60.3499842
   7.1407169  53.1435871  59.5993996   7.1712911  52.1153021  60.7096577
  30.0867939  39.0697479  33.3633971  30.9112120  38.7479734  33.7281275
  29.6738911  38.2940793  32.9838133  26.6972327   3.3544567  11.2488806
  27.5270700   3.7047961  11.5727067  26.4235544   2.7285537  11.9193864
   4.1824073  72.5140429  45.2536821   4.5547307  73.3866692  45.3806734
   4.5765054  71.9825125  45.9453440  79.8004770   9.0084636  10.9173822
  79.4183636   8.7434185  10.0807416  80.0837135   9.9117827  10.7758772
  42.3152113  58.0851221  23.8463330  42.7830696  58.2152462  24.6712017
  41.5553761  57.5533819  24.0832543  41.1409473   2.7206099  12.6131248
  41.5916872   2.3977843  13.3934116  40.2155018   2.7292842  12.8574896
  60.5759668  34.4807482  16.4470541  59.9944639  34.9318862  17.0590675
  60.8314276  33.6801505  16.9053292  37.4832940  45.8799696  60.7419586
  38.3876801  45.7110691  60.4777813  37.4499321  45.6191492  61.6623354
  40.2627993  35.7878518  66.0795259  40.4693174  35.6428647  65.1561832
  40.0312090  34.9207091  66.4121819  48.6536455  73.6871004  40.2849293
  48.5956907  72.9035950  40.8317280  49.0121937  73.3737040  39.4545913
  54.1762400  75.6847382  54.5889521  53.8667107  74.8016214  54.7902727
  53.8549709  76.2220192  55.3130722  13.6532593  48.3081913  13.9138508
  13.8469636  48.0196285  14.8057270  13.6193693  47.4996901  13.4025717
   1.0239936  34.9484396  14.8855662   0.4002733  35.6293917  14.6335554
   1.1994793  34.4721603  14.0740275  39.8583603  76.0037184  52.2600889
  39.4828367  76.8598652  52.4655867  39.6804953  75.8817673  51.3275003
  24.5656157   6.4164740  24.2481709  24.2569447   7.2287750  24.6495676
  24.0568566   6.3397706  23.4410071  27.0946169  62.0267200   0.6040160
  27.7520633  62.6140785   0.2311840  26.7026472  61.5937519  -0.1543578
  21.3058591  69.1110229  36.5785336  20.6557560  69.4952154  35.9903193
  21.5924096  68.3146429  36.1314344  16.4159441  60.1409864  63.7665319
  16.7253041  60.2145433  62.8636932  17.0382428  60.6600523  64.2759895
   4.4903019   2.9070693  60.2735472   4.3150589   3.8325906  60.1034498
   3.7515706   2.6179248  60.8091784  75.3811073  64.2622232  59.8399401
  74.8662519  64.8628283  60.3788519  75.3790760  64.6599722  58.9692974
  23.3081603  25.7492447   3.7299567  23.1164193  24.8909211   4.1077763
  22.5444245  26.2832141   3.9486247  60.6961298  19.0850925  44.5992947
  60.9220743  19.7881269  45.2083302  61.4141798  18.4574306  44.6810102
   0.4194100  47.3401928  18.3333588   0.7475026  48.2368135  18.2651031
   0.6379445  47.0724821  19.2259991   1.7216392  76.1470556  20.0876403
   1.8055832  77.1004105  20.0702739   0.9637274  75.9632015  19.5326638
  77.4386787  51.2110949  27.7316594  77.2431660  51.9825935  27.1998692
  78.0022573  51.5396023  28.4321547  18.3905602  20.5205345   4.3116999
  17.9252136  21.2891555   4.6417096  19.0247703  20.3117490   4.9975699
  60.9119606  30.9525156  58.4289217  60.3706503  30.4139042  57.8517580
  61.1340332  31.7199445  57.9016972  72.7844858  65.0438499  17.2771859
  72.8284883  65.4446650  16.4090610  71.8517590  65.0399494  17.4921989
  76.6228533  34.4216728  62.2233868  77.0413303  34.0491676  62.9994965
  77.3327971  34.5096111  61.5874004  30.4120398  34.8260021  62.6228189
  31.1708832  35.0390267  62.0796728  30.7124925  34.1114902  63.1844521
  80.5176163   3.3322909  56.3892698  80.8768082   4.0312839  56.9357300
  79.5767450   3.5066918  56.3650894  66.4387321  61.9274235  16.7612910
  66.3231468  62.5866556  16.0769773  67.3575544  62.0068026  17.0175922
  13.6311233   2.6002708  59.2903614  13.2481468   2.3482959  60.1306391
  13.8323927   3.5309285  59.3883324   0.1676877  75.2376318  24.9464536
   0.9734853  75.6837416  24.6858835  -0.2950446  75.8763409  25.4888201
  78.8990402  26.1692643  38.1809092  79.7240925  26.2342525  38.6618447
  78.2469177  25.9635782  38.8507318  75.8094931  47.2460985  23.1692767
  75.3895426  46.5686131  22.6392889  75.6766129  48.0543327  22.6739669
  72.5695276  11.3501883  49.9285889  72.2525787  12.2503078  49.8540258
  73.5045719  11.4084744  49.7323084  32.7824497  29.0481210  11.7800212
  33.3248782  28.4744072  12.3211825  32.0149779  29.2327881  12.3214221
  75.6343317  45.7577467  13.9128935  76.3535357  45.3095579  14.3579876
  76.0302687  46.5548849  13.5607147  32.2915149  13.6003470  30.6633592
  32.0107460  13.0131018  31.3651729  33.2454515  13.6245155  30.7385492
  21.0585102   1.7161833  66.2985068  20.6742272   2.2024380  67.0279695
  21.9647869   1.5613734  66.5648418  50.7882071  66.7727184  43.8524055
  51.0548306  67.0279598  44.7355795  51.1096954  65.8764219  43.7547970
  19.3773377  45.3449249   3.0146265  20.2815533  45.0888157   3.1963852
  19.4123864  46.2968111   2.9201925  73.3721924   8.5838079  42.9742146
  72.7235270   8.0853009  42.4772644  73.5391760   9.3597639  42.4391985
   2.5765711  46.2944841  12.1329725   3.1287688  46.7253780  12.7853823
   2.7764696  46.7469835  11.3135111  75.2288580  20.8906198  51.6407442
  75.7142639  20.0680590  51.7040348  74.5674849  20.8321047  52.3302317
  25.5356455  48.6279297   7.6163918  25.9981012  47.9950333   7.0670193
  24.6379852  48.6226797   7.2841156  57.5493145  75.0924444  56.5672112
  58.4802341  75.1510811  56.3523245  57.3160028  75.9722471  56.8634319
  26.5655804  73.0955124  47.8013659  26.2770987  72.7598000  48.6500740
  25.7995772  73.5498571  47.4505854  73.9700747  53.8045883  19.8102534
  74.5301390  54.2094612  19.1479540  73.9989614  52.8692198  19.6090317
   4.6207270  74.8690891  63.4201050   4.9663255  74.4239998  62.6463556
   4.8012239  74.2679691  64.1428089  60.1381350  49.4591713   3.1446773
  61.0459614  49.7456408   3.2447666  59.8662901  49.2115831   4.0284365
  44.7289276   3.9582029  64.7690487  45.2248669   3.7880877  65.5698824
  44.9866438   4.8432556  64.5111799  16.2606788  31.1160874   3.6797357
  17.0013988  30.5333734   3.8470969  16.6365862  31.8460441   3.1877103
  18.2338178  37.5180221  17.4041903  17.6210570  36.8148732  17.6194549
  17.6912463  38.3057547  17.3677957  28.2190681  59.0967894   6.1590338
  27.2797036  58.9156914   6.1269426  28.4907627  59.1160440   5.2414048
  80.7021713  33.6282659  38.6438107  81.0973454  33.6441779  39.5154858
  81.3232136  34.1020894  38.0906034  74.3953323  49.4719219  24.9241567
  75.0660944  48.8520336  25.2105975  74.7765255  50.3331709  25.0949669
  16.5058398  23.1643724   7.5316024  16.3123739  24.0929294   7.6603878
  16.5578783  23.0600858   6.5815246  21.2694168  64.5822382  46.7275047
  21.1064959  64.0337229  45.9601545  20.6155324  65.2786827  46.6672754
  57.5865173  34.0615845  57.4415016  57.0976734  34.6908021  57.9719210
  56.9154787  33.4885311  57.0706272  78.1715536  44.3296719   8.7131310
  77.6761389  45.1224613   8.5074973  78.4111691  43.9688206   7.8595477
  62.1840954  45.0228882  54.1113186  61.6368818  44.8941755  53.3365774
  61.6579866  44.6832705  54.8352623  13.2674003  46.9336319  22.3700023
  13.3734500  46.5104818  21.5179873  13.2017815  46.2083006  22.9911470
  13.9483607  54.2503834  21.7012286  13.5140014  55.1014996  21.6449690
  13.3899879  53.6624384  21.1925364  18.1174493  19.6586573   1.7157198
  19.0531659  19.4618118   1.6719253  17.9618859  19.8795557   2.6339984
  64.0888596  33.5849690   3.6498699  63.9546776  33.3625937   4.5711604
  63.7830544  32.8148890   3.1706065  75.8803892  46.1048698   8.6904782
  75.2012157  45.8233595   8.0775309  75.6532812  47.0108080   8.9000821
  45.4026890  30.3993106  42.5619888  44.6581030  29.8283386  42.7512407
  45.2849674  30.6507182  41.6459274  53.6153078  65.3212500  64.8276854
  53.7529182  66.0962248  64.2829752  53.9773321  64.5996666  64.3134022
  10.5411458  23.7528753   4.4787246  10.7146573  23.4679317   3.5815442
  11.2304080  24.3903852   4.6650869  28.1860685  30.7932115  12.2815084
  28.2155538  31.3586116  13.0533147  28.7741065  31.2135959  11.6540384
  25.7358336  51.4160633   6.9077682  26.3245916  51.9288206   7.4615526
  25.9361696  50.5053806   7.1240032  57.0564795  26.8211603  54.7355080
  56.9792747  27.2648835  53.8908911  57.7472734  26.1719918  54.6027565
   2.1699880  19.8334086  23.2631087   2.7289331  19.0643954  23.3746076
   2.2294685  20.2959609  24.0990162  44.6189404  71.5071344  50.7853794
  44.2393875  72.3701525  50.6199312  44.2448521  71.2377834  51.6242743
  78.1391096  53.8202524  16.8873882  77.5179243  53.5751390  16.2016177
  77.8034687  54.6487999  17.2295785  17.1404958  25.5881000  16.7619014
  17.6642227  25.2258158  16.0472739  17.5292099  25.2187681  17.5548244
  17.8678226  57.0672226  35.4679799  18.0191457  56.9318724  34.5325589
  18.5317469  56.5285540  35.8984113  66.5491104  30.5022740  30.2601457
  66.9576883  31.3444567  30.0600815  67.2026396  30.0370550  30.7823563
  54.1985464  18.1668723  50.0061607  54.1627693  17.3435700  49.5192051
  53.4440184  18.1304193  50.5940294  28.0532813  35.3032184  13.1998539
  27.2465277  34.9541688  12.8209853  28.4932661  34.5389962  13.5721564
  80.9600735  17.7657139  54.8202229  80.3532982  18.4921026  54.9630833
  81.2021828  17.4791455  55.7008410  50.1238918  18.6912692  53.6399698
  50.7507992  18.0142641  53.8946819  49.6671629  18.9123440  54.4516087
  44.9982119  18.3996737  19.6025491  44.1854906  18.7958682  19.9167824
  45.3313255  19.0192163  18.9533675  54.3290806  74.0006113  38.9270139
  54.3372917  73.4948683  38.1143713  54.9323082  74.7257090  38.7639618
   3.8637382  64.5952797   9.5181358   4.2236942  64.8695469  10.3616059
   4.2447376  63.7306499   9.3648821  47.7147961  59.2949533  46.8108702
  48.5113811  59.8217058  46.8758059  47.6698208  59.0413809  45.8889675
   5.9735215  73.2052135  65.2500629   6.9079310  73.3425617  65.4057693
   5.9189141  72.3224163  64.8841095  21.8331432  45.8796692  19.4600856
  21.1188960  45.9386158  18.8255715  22.6257372  45.8361721  18.9251709
  74.7602940  24.6607304  48.9059973  75.0367069  24.3339443  49.7621727
  73.9015388  25.0525045  49.0649986  30.6015015  11.5705192  64.1299629
  29.9693799  12.2835982  64.0395737  31.1527991  11.6389120  63.3504581
  69.0683079  48.1382847   5.4244930  68.8492680  48.1572485   6.3561022
  69.6118975  47.3570967   5.3221077  63.0195522  35.7887697  64.9897718
  62.3219109  36.4355159  65.0958300  62.6231194  35.0925517  64.4659853
  39.1896081   4.7101909  66.3662386  39.1212797   3.7737632  66.1800480
  38.3144832   5.0543916  66.1875963  59.2593145  48.9228773  18.2263160
  58.3532763  48.9722633  18.5310936  59.6386099  48.1954718  18.7195158
  55.9361315  11.2760651  50.5872631  56.4949846  11.8861973  51.0685682
  55.7665873  11.7137003  49.7530222  56.0624647  46.8548870  65.6636572
  56.2399006  46.2623930  66.3942051  56.0295343  47.7242279  66.0628986
  76.6348982  10.0783408  60.3702354  77.0730829  10.6825566  59.7709417
  77.3245621   9.4765437  60.6503057  81.9980621   7.4248350  55.4358339
  82.5108528   7.9619324  54.8318386  81.6947174   6.6892409  54.9037457
  31.3291383  71.7886591  63.1116581  30.8066416  71.5084553  62.3601818
  32.1349931  72.1341228  62.7276182  64.9913454  12.1180773  50.5639458
  64.4462252  11.6012967  49.9706411  65.0493050  12.9781950  50.1479292
   3.2877156  26.6379023  52.9517794   3.8769585  27.2467160  52.5063896
   2.4436164  26.7605114  52.5173903  44.4352102  36.7099833  61.7057323
  44.6227694  37.6046729  61.9896030  45.0550032  36.1686730  62.1946812
   2.2903399  60.0155544   2.1176741   2.6906240  60.8141899   1.7738912
   3.0320045  59.4590282   2.3552518  64.6230459  69.6885777  48.3012342
  64.4191027  69.1423178  49.0603399  64.3955612  69.1449785  47.5469208
  24.7259092  41.2145090  38.3710504  25.3969121  41.8630362  38.1579733
  24.3238854  41.0003519  37.5291800  16.0615623  60.2806044  23.0098462
  15.6867123  60.9376335  22.4233055  15.5121779  59.5067692  22.8849864
  37.3823023  68.0092335  12.7493811  37.2976494  67.0761824  12.5532198
  37.5058961  68.0443144  13.6979210  74.1191053  26.2963200   3.6050695
  74.5233440  27.1225858   3.3402824  74.7249126  25.6231475   3.2951200
  24.2691255  51.6979361   4.6654880  24.7174740  51.6203594   5.5076259
  24.8776484  52.1903801   4.1146412  45.4408789  58.3178425  38.6546230
  44.6718693  57.9233074  39.0659666  46.1828470  57.8425026  39.0284729
  29.4368434  77.3244047  34.9655294  30.0955749  77.1214628  34.3013620
  29.3085122  76.5003061  35.4352403   8.8587165  11.8173409  50.8035421
   8.6056125  11.1377978  50.1787281   9.7334611  11.5606129  51.0953379
  70.2207518  66.3479280  20.0249314  70.9770346  66.9229460  19.9082398
  70.5601740  65.6036901  20.5220580  20.6623292  41.2445688   5.5450577
  21.2341833  42.0001030   5.4094613  20.2515507  41.4045286   6.3947076
  62.1483803  20.0942540   4.2129365  61.2036419  20.1786923   4.0842149
  62.2737026  19.1825187   4.4761220  36.4381123  22.0396948   1.0489713
  37.0541120  22.0529604   1.7815016  36.5740228  21.1863637   0.6371640
  12.4168038  37.0671153  13.2367110  12.4957561  36.9696665  14.1856599
  12.9681325  37.8208661  13.0266488   1.2255812  52.5689888  33.1451702
   0.6500857  53.0284262  33.7566876   2.0187943  53.1038952  33.1148720
  22.2679567  43.9871359  63.7977266  22.4392557  43.6843157  64.6894598
  21.3740230  43.6982584  63.6142492  21.1225271  72.3653412  65.0982046
  21.8446803  71.8345785  64.7620249  21.1801577  73.1858206  64.6085835
   9.8441213  70.0667572  12.9133224   9.1563106  69.4143343  12.7810419
  10.4559648  69.9193525  12.1921074  18.9649367  25.0960159   1.6160873
  19.4868279  24.3538499   1.9211280  19.5853186  25.8237219   1.5736219
  50.7669353   6.3547534  37.8933263  50.6413698   6.3350445  36.9446015
  50.0962830   6.9592559  38.2111835  28.8180971  70.3904104  57.0965290
  28.8044834  70.8962870  56.2840414  27.9131913  70.1012373  57.2138166
  20.4681540  58.4220648  54.5497608  20.0743175  58.9853144  55.2160025
  19.9082983  57.6458979  54.5308876  42.5734806   4.7298846   3.1240010
  43.1103563   5.3996235   2.7003911  43.0009413   4.5780307   3.9668816
  13.4815443   3.0697262  65.0856733  13.2342744   3.4263510  65.9388494
  13.6294806   3.8404641  64.5376682  53.5528088  23.6574626  55.1975298
  53.7360144  23.0983973  54.4424725  53.0443144  24.3849373  54.8391438
  56.6208839  59.2699051  63.4500027  57.2485828  58.9024687  64.0722656
  57.0876122  59.2759275  62.6143217  78.2103300  29.6015501   3.6770940
  78.3292103  30.1768994   4.4327885  78.0400944  30.1969481   2.9471928
  31.4506793  71.5878963  50.1885033  31.6495967  71.4978409  51.1204672
  30.6338716  72.0864058  50.1650190  65.7254982  62.7514362  44.9207687
  64.7684622  62.7336836  44.9190760  65.9477043  63.6792135  44.9988365
  60.5819511  25.0360775  66.3282156  60.1258707  25.8651471  66.1837578
  60.8142662  24.7343326  65.4500341  52.9708767  26.1809754  50.7653284
  52.4198771  26.3161397  49.9943781  53.8532066  26.0670805  50.4121304
  14.0075564  62.9958057  53.5924101  13.5954630  63.7594366  53.1883287
  13.4102678  62.2724771  53.4019566  63.9578724  43.1512642   9.1268384
  64.2874527  44.0486050   9.0780044  64.7454309  42.6075649   9.1461384
  75.5257463  20.6985474  32.5224972  76.1733675  21.0962915  33.1044030
  76.0268497  20.4357600  31.7504406  17.3542309  52.6481676   4.7119877
  16.9366968  52.9399872   3.9015922  18.2923925  52.7333355   4.5421943
  18.2831430  55.2532196  10.5006778  18.6419892  55.5218220  11.3464403
  18.8985002  55.6043148   9.8570174  37.0269036  70.3825617  48.5147953
  36.4215064  71.0682964  48.2328510  37.7583218  70.4412317  47.9001284
  70.6135321   9.1606021  53.1268692  71.2032890   8.5855091  53.6144066
  70.0691366   9.5707196  53.7989330  57.8616714  35.8868575   0.9834082
  58.6869287  36.0864520   0.5414256  57.4035645  35.3000212   0.3817492
  40.3482246  24.4634390   1.3582930  40.0480366  25.1144218   0.7239899
  41.2391949  24.2511463   1.0801965   0.7602581  39.7146606  44.9218416
   0.0063172  40.0865507  45.3795576   1.2178065  39.2038631  45.5896473
   4.2245477  73.1046200   4.5069131   3.3943772  73.2002640   4.9737117
   4.8220688  73.7026215   4.9559042   6.4130116  11.3824594  34.9160266
   6.5919399  10.5134153  34.5568919   7.1932602  11.8946648  34.7036839
  55.9222269  58.3755493  27.3662615  55.9545755  58.0496120  26.4668441
  55.7624197  57.5958204  27.8979731   0.8395981  26.9332528  51.4936399
   1.2448676  26.4444971  50.7773256   0.7717017  27.8292942  51.1638975
  48.3526850  76.7108917  24.2045474  48.1212807  76.3367987  23.3544087
  48.9122772  76.0501719  24.6126413  43.4936285   5.5863678   0.4375609
  43.9494181   6.4260006   0.4967675  42.7362394   5.7637930  -0.1202178
  40.8639860  50.9748745  52.8091478  41.0597610  51.2040520  53.7176514
  40.1331758  51.5451050  52.5704336  71.2211132  64.9450207  28.3772349
  71.7451239  64.5058346  27.7073383  71.1404657  65.8464098  28.0654287
   3.6889201  29.2168665  64.1984081   2.9960155  29.5729232  64.7545910
   3.8739651  29.9147558  63.5699654   6.8749666  72.0711184  22.0927835
   6.1637205  72.6781893  22.2972965   6.7712814  71.3592577  22.7242422
  62.5150442  12.8559315  57.7786732  62.9227114  12.6330471  56.9417953
  63.0036449  13.6189342  58.0874252  77.8148317  48.3803463  59.5411968
  76.9800901  48.8106680  59.3560886  78.3709240  49.0766430  59.8907137
  62.2348690   8.0612415   9.0630567  61.8954468   8.9506638   8.9633030
  62.5379133   8.0208588   9.9701208  36.3489270  45.0855923   0.4933199
  35.7676959  44.4375134   0.8913095  37.2096324  44.8971033   0.8673339
  59.2459583  41.3702250  66.9678211  58.4373045  41.4107943  66.4572620
  59.3429804  40.4441404  67.1896029   7.0687544   7.2324699  54.8827839
   7.5104570   6.9010615  54.1009283   6.5723336   6.4836240  55.2129745
  31.9558883  69.8166037  21.3125324  31.4614034  69.2971611  21.9464850
  32.4270892  70.4581785  21.8441200  21.5389395   8.9731210  20.8281612
  21.0521841   9.1913652  20.0333858  20.8874297   9.0180820  21.5279794
  47.6292896   2.2186403  26.6782165  48.0234289   1.3551004  26.5549922
  46.8987656   2.2389151  26.0600281  51.0303783  11.1420298  11.4539051
  50.2381134  10.6442904  11.6559029  51.5685368  11.0657907  12.2418177
  20.8267093  61.5490437  22.6421094  19.9750686  61.2384892  22.9495096
  20.6167579  62.2184038  21.9908690  31.1290789  61.0256433  10.8792651
  30.6764340  60.3224754  10.4135394  30.9465361  61.8109369  10.3632879
  37.0845270  44.1126633   5.9605145  36.7034769  44.6783304   6.6321212
  37.7920890  43.6504555   6.4099038  25.4630709  61.5649700  16.1077833
  26.2496400  61.2054920  16.5180469  24.8503137  60.8301353  16.0798967
  43.5585737  51.6951990  63.5698318  44.3504810  51.6379118  63.0351973
  42.8787088  51.9833517  62.9607487   4.9605986  35.9996629  49.6012163
   4.3864912  36.0169935  48.8354969   5.0478101  35.0705433  49.8142052
  58.6297941  13.4507644  47.8804541  59.1444159  13.0428755  47.1840191
  58.3453465  14.2863190  47.5100851   2.2866794  37.9033327  18.7643838
   2.9190022  37.2827530  18.4020579   2.6305246  38.7636185  18.5237336
  26.1754465  21.6292071   6.9043905  26.6383052  21.7619348   6.0771203
  26.2351799  20.6872702   7.0638162  60.3694677  35.0527501  53.4781122
  59.6559048  34.4644952  53.2310963  61.0668755  34.8595977  52.8515816
  49.8800135  18.7790489  66.6960049  49.3147612  18.5500443  65.9582520
  50.0013542  17.9559398  67.1692944  14.9519050  15.9379447  51.3618088
  14.6986401  15.3924155  50.6171703  14.3039703  16.6424048  51.3739681
  11.4277673  52.6145220   0.3800592  10.7728803  51.9259024   0.4947651
  11.6128874  52.9193592   1.2683360  79.6568203  34.3638134  43.1435585
  78.8855457  34.9304962  43.1283140  79.6221542  33.9350700  43.9986706
  46.0054827  35.0315547  63.1773758  46.6462374  35.2992249  63.8361788
  46.2982845  34.1644740  62.8968906  81.5378571  25.7598686  25.4137325
  81.5627766  25.5245471  26.3412213  82.3087978  25.3347945  25.0379848
  19.4321823  19.2676187  30.9119081  18.6036122  18.9631379  31.2820363
  19.6860766  18.5805738  30.2956796  69.8533678  69.1708279  44.8264647
  70.4215431  69.9274397  44.9711990  69.9121523  68.6682415  45.6389809
  10.1038444  27.1140432  24.6533442  10.6185365  27.2677159  23.8610649
  10.2801549  27.8761148  25.2050638  58.5899830  24.6666431  56.8631697
  57.6919174  24.4518328  56.6110373  58.5150766  25.4987264  57.3303509
  10.7016885  40.6122875   1.8049027  11.6218793  40.6120396   1.5413132
  10.3973746  41.4989710   1.6114748  34.9123764  12.8507149  14.4689715
  35.0273752  12.7500033  13.5240567  35.7705569  13.1321907  14.7860384
  47.4343920  45.0576210  60.4460955  46.9940567  45.8766985  60.2192783
  47.7071905  44.6914148  59.6048403  11.8298531  43.4541607  61.7392063
  11.5664756  42.5348949  61.6965961  11.0441160  43.9402676  61.4891148
  20.8603215  60.5472231   4.1705945  20.8642077  60.4254150   5.1200044
  20.0330806  60.1610041   3.8829517  77.6780415  21.6209650  66.4857626
  76.9565439  22.0172930  66.9742250  77.3080730  21.4317393  65.6234694
  46.2227154   8.9470935  19.9139845  47.1605349   9.0338123  19.7430813
  45.9773779   8.1239587  19.4915044   0.0500467  31.3411641  44.4392872
   0.6647579  30.8988094  43.8538980  -0.6861367  31.5811276  43.8765430
  71.6262770   8.7746406  20.2310991  72.3226738   8.1390166  20.3961563
  71.0055208   8.3095670  19.6702087  10.1468515  19.0750933  61.7782450
  10.7137847  19.7772801  61.4592600  10.5060959  18.8481927  62.6359701
  26.4855170  22.5931406  42.5090790  27.0886946  22.1495557  41.9127226
  26.7756033  23.5053253  42.5084162   9.2864418  28.5481691  20.5130744
   9.5347500  28.2394409  19.6417165   9.6605098  27.9017711  21.1118007
   2.6002955  69.3099976   4.9466977   2.4294420  68.9623928   5.8220339
   1.9233832  69.9741077   4.8163843  63.3490896  37.7437377  62.3448658
  62.5249052  37.3834658  62.0175123  64.0259886  37.2120094  61.9261694
  59.0026760   1.6941179  65.9363556  59.3963671   1.8360309  65.0754833
  59.6904039   1.2665501  66.4466953  47.3613691  35.1267934  60.1993799
  47.0905066  35.9037590  60.6884480  47.9855347  34.6862912  60.7761002
  63.0580425  22.4309158  32.1743870  62.3066235  23.0014253  32.0127678
  63.0852365  21.8495870  31.4144182  52.7979136  65.5903339  38.5191607
  53.5185194  66.0195923  38.9803553  53.2203627  64.9089527  37.9961944
   2.3273773  15.6276572  67.2243643   1.9051537  16.4272428  66.9103241
   2.6103333  15.1776946  66.4283085  27.6227093  11.9005167  52.5871563
  28.3543611  11.8243504  53.1996250  27.7132940  12.7771652  52.2136402
  61.9719267   0.6115909  58.5108137  61.8422556   1.0418391  57.6656485
  61.7059088   1.2664646  59.1562653  47.8895712   9.9871540  62.4719334
  47.0686340  10.1937985  62.0251751  48.3831787  10.8071363  62.4573565
  20.1052117  14.1418791   3.0875504  19.5430768  14.7948372   2.6705596
  19.9494982  14.2554772   4.0251434  12.2100401  24.9360132  48.3544636
  12.0125842  25.0498939  47.4247980  12.1598446  23.9906573  48.4959269
  54.5194244  51.0059452  64.5868015  53.9197063  50.6122541  63.9530993
  53.9780045  51.6252899  65.0761938   5.3892112  72.0371962   7.5733095
   5.4585707  72.6313305   6.8260270   5.8756483  72.4739504   8.2724929
  48.2553720  38.3451676  61.4492989  48.0582809  38.8357091  60.6513309
  47.6065683  38.6494350  62.0838976   3.3821112  30.4101396  59.6056843
   2.9622516  29.6755099  60.0531960   4.1890320  30.0418496  59.2458630
  45.9594870  72.5911760  60.9933615  45.4614162  73.3901453  60.8207130
  45.7504988  72.3700619  61.9009209   7.7738881  22.2733235  57.7169895
   8.3247375  21.5226150  57.9388762   8.1088036  22.5748682  56.8725157
  74.9699068  17.2650754  21.7770505  75.7544422  16.9441974  21.3323355
  74.2923546  16.6250300  21.5591025  77.4611521  36.8140340  57.8640270
  77.5362635  37.6745701  58.2764149  76.6019297  36.4920092  58.1365538
  30.1197219  24.8019791  46.4079714  29.2221594  24.9845839  46.1299944
  30.2967525  25.4518938  47.0880461  76.1238623  36.7797899  54.5749903
  75.6151867  37.2492409  55.2361250  76.1698675  37.3843765  53.8343239
  74.5913792   0.6384502  43.6252213  75.3997993   0.8766600  44.0790319
  74.5416069   1.2479025  42.8887939   8.2100594  15.3875947  57.6491880
   7.5707299  16.0905039  57.5334024   8.3511609  15.3455746  58.5949993
  38.8717556  16.4156461  64.3816519  39.6423054  16.9544101  64.2021608
  38.6116076  16.6582429  65.2703047  58.8878679  56.4825630  60.5607080
  58.8554716  55.5720520  60.8542204  59.6813774  56.8357897  60.9629488
  57.0596981  19.6270430  46.8565035  57.7972555  19.0385675  47.0175505
  56.6080332  19.2446506  46.1041689  35.4868531  41.3599396  54.6473646
  35.7805443  42.2687483  54.7110033  36.2637210  40.8762741  54.3666983
  50.1481438  19.7191572  51.2235737  49.9103498  19.7157526  52.1507645
  49.3178892  19.5978189  50.7629347  13.3561003  41.1210728  50.8766031
  13.4679508  41.5790558  50.0435543  12.4084365  41.0263824  50.9725142
  53.3011532  73.2671547  52.4075365  52.4492550  73.6645889  52.2271156
  53.4060049  72.6049328  51.7243767  38.3986744  17.6945006  66.9950796
  38.6574206  18.1762539  67.7806951  38.0283055  16.8765675  67.3268135
  73.4835625  28.9056206  54.9629831  72.8601837  28.6366343  55.6377220
  72.9870367  29.5014286  54.4019938  60.0149441  43.2285547  58.2231045
  60.3148317  43.5677862  59.0664434  59.3116379  42.6189184  58.4465694
  69.9366665  19.5801735  64.7775269  70.1431465  20.1404691  65.5256319
  69.4029856  20.1315951  64.2053795  10.7868230  41.0873365  51.6234016
  10.1534963  40.7555676  50.9869576  10.3736973  40.9361744  52.4735260
  -0.2414599  36.3077998   5.6908858  -0.3251418  37.1319318   5.2112657
   0.6983092  36.2165880   5.8481950  35.6160831   3.5336173  16.7879546
  35.3718972   3.0295688  16.0117209  36.3101721   4.1189504  16.4848721
  36.3027024  70.6990194   3.7348628  36.1505270  71.1487055   4.5660406
  35.7792473  71.1870098   3.0991837  13.5224009  13.2821536  45.3533173
  12.7933228  12.6633239  45.3117800  13.2610452  13.9156926  46.0215616
  20.7645798  52.4788570   0.4643997  20.9006071  52.4572229  -0.4828384
  21.4676881  51.9352150   0.8198173  73.9809942  14.7215986   4.4697073
  73.5885572  13.8487291   4.4878066  73.7033463  15.0917029   3.6317533
  36.2277722   5.2487081  57.3199654  36.9422317   5.7893264  57.6568794
  35.4351377   5.6504059  57.6757765   7.8001356  65.5520391   7.7733928
   8.2502979  65.6247473   6.9317877   6.8926436  65.7878017   7.5807655
  24.9076629  21.0380292  60.2871132  24.7858453  21.4661527  61.1345243
  24.6993518  20.1183081  60.4512835  66.3667870   5.1793945  49.2123747
  66.6825724   4.4886073  49.7948933  66.6682482   4.9159130  48.3429337
  70.2819252  10.3478992  50.4506207  70.3870344   9.8331654  51.2507677
  71.1538172  10.7033014  50.2781963  73.2983446   9.5699817  45.4654932
  73.2462406   9.3748558  44.5298433  72.5494337   9.1124624  45.8476400
  31.6251659  62.1715069   5.5160356  32.2569990  61.5911531   5.0915301
  32.0148802  63.0428791   5.4448682  10.0731683  27.6623702  58.6191940
  10.1219213  26.8922043  59.1854954   9.8383027  27.3130584  57.7595139
  28.8360596  69.1691589   0.7962632  28.3858752  69.3615294   1.6187957
  29.7148275  69.5298576   0.9141445  50.2909470  57.5869656  52.9595661
  50.9846354  57.2635031  53.5343647  50.1546049  58.4933853  53.2353306
  11.8386745  47.9760027   6.5891969  11.8407071  47.7892256   5.6503987
  10.9930015  48.3952856   6.7481548  55.0747728  21.6626382  45.9243917
  54.7253752  20.9148145  46.4090729  55.8041239  21.3017654  45.4203558
  56.6831875  72.0767403  58.9953613  57.3743534  72.7215147  59.1462994
  56.0270262  72.5453091  58.4794807  45.7043839  69.6376991  60.4152441
  46.1270285  70.4055309  60.0304794  45.5621624  69.0468264  59.6757317
  58.0670929   8.2246417  63.5512400  57.4540901   7.7640033  64.1241884
  58.9191628   7.8369933  63.7510729   4.5963505  35.1501989  45.1687717
   4.3267497  34.2723060  45.4386854   4.0609518  35.3388071  44.3980551
  66.0018873  35.0883389   1.9425862  66.3797235  35.2542090   2.8062764
  65.2676678  34.4979668   2.1117195  59.0037727   2.9595029   4.5061347
  59.5534945   2.4669236   3.8967091  58.6262989   3.6607194   3.9750594
  60.0132179   8.0063522  54.6206236  60.2695942   8.8025349  55.0860214
  59.9356079   7.3427325  55.3060579  63.8088417  19.0396678  47.6618481
  64.3682098  19.5605993  47.0856810  62.9858828  19.5269156  47.7013254
  14.8042655  45.5492830  24.2092943  14.7110689  44.6937561  24.6283674
  15.5631232  45.4527521  23.6339259  30.9775019  58.8594913  18.3296549
  30.3476453  59.2073679  18.9609194  31.8041587  59.2853594  18.5566080
  46.7006254   7.6674861   4.2972195  46.5449524   6.7260641   4.2215711
  45.8468580   8.0657941   4.1279295  68.6859131  28.3452821  41.7817926
  69.4166183  27.9143810  41.3383675  67.9095125  28.0505872  41.3057804
  64.2384386  30.0723672  50.9189701  63.6101389  29.5749927  51.4425087
  64.4645739  29.4869041  50.1962471  67.7800846  55.9157801  27.0593500
  67.8187323  56.4129829  27.8763747  67.6405573  56.5779543  26.3823795
  49.7826958  61.0092831  32.2413468  49.8596954  60.1587152  31.8090940
  49.6870708  60.7981920  33.1700706  69.8091221  48.7822485  50.3060055
  69.7001457  47.8472042  50.1326561  70.0992775  48.8246870  51.2171841
  66.5534115  36.7724013  55.0791168  67.4484110  37.1074986  55.0251532
  66.6501427  35.8215165  55.0272179  11.6669762  21.8992281  66.5207005
  11.3331199  22.3826814  67.2763729  11.1857879  22.2581148  65.7751179
  58.6148453  72.9395962  47.1044445  58.2792950  73.1963301  47.9633570
  59.3583345  73.5232687  46.9535160  28.1516838   3.6776739  63.8407373
  28.0342078   3.0387780  64.5437622  27.7596354   4.4821972  64.1802597
   0.3772195  73.9932871  64.0964603   0.9169610  74.4474506  63.4494352
  -0.4682510  74.4405603  64.0594673  75.6736422  24.4376254  44.4524288
  75.7140875  23.7236762  43.8161325  76.4713335  24.9431229  44.2962503
  67.2318363  42.9160070  65.0396156  67.9534245  43.5234308  65.2026463
  67.2148991  42.8141069  64.0880060  24.6025109  45.9306288  31.9735384
  23.8321233  45.7329035  31.4409590  25.3441620  45.7770157  31.3882256
  16.6175413  25.7831788  40.4303741  15.8352566  25.3221273  40.7331848
  16.4118969  26.7099404  40.5530596  42.5765848  76.1374903  52.5554943
  43.0370331  76.7453527  51.9769382  41.6502762  76.3450861  52.4326611
  68.3078241  -0.3266006  35.7734752  68.7145472   0.4825556  36.0834336
  67.3753929  -0.1185428  35.7142067  70.2767658  59.9973583  51.0678864
  70.4931736  60.3536844  50.2062416  70.9562206  60.3422356  51.6472292
  16.0016155  33.3847690  54.8011732  15.7014501  34.2777896  54.9704266
  16.7655015  33.4922123  54.2344618  35.3205228  47.0345926  27.0000243
  35.9154415  46.4219093  27.4323726  34.8677635  47.4761724  27.7185273
  75.5069637  39.6548939  60.8558035  75.6252861  39.6359539  61.8054724
  76.1482096  39.0275192  60.5219793  72.8369188  48.7030840  47.1742153
  73.7071800  48.6151028  47.5629807  72.3108912  48.0327606  47.6103258
   0.3345002  60.4101944   3.9768806   0.9510987  60.1763153   3.2830951
  -0.3062803  60.9765530   3.5469157  65.3234577   7.7173561   7.8019899
  66.2498474   7.4776351   7.7781582  64.8584604   6.8868059   7.7010113
  11.6952753  72.6380348  21.0498500  11.6766798  71.7591524  20.6710958
  11.7176211  72.4909258  21.9954133  68.5350800  64.3287420  37.1427894
  68.0972195  63.6252451  36.6636229  68.9808035  64.8381805  36.4660072
  26.5782571  33.5268736  17.9384613  27.1498084  33.0707788  17.3207736
  25.7998395  33.7470436  17.4267745  46.2528706  52.4635410  56.4850044
  45.3580093  52.7956867  56.4133406  46.3785744  51.9410658  55.6928873
   2.6276907  17.0672035  39.4695306   2.5012198  17.6633930  38.7314296
   3.3661926  16.5167749  39.2090011  59.6296978  24.1038036  12.0082676
  59.5544577  24.2764091  11.0697699  60.5643940  24.1934371  12.1941030
  21.6310477  31.6632986  48.1407642  21.6683078  31.1806870  48.9665556
  21.5976405  32.5834417  48.4024000  20.5527735  63.5219002   8.8731235
  20.5806828  64.0819740   9.6488601  21.4072108  63.0906868   8.8581765
  57.4315071   1.2759615  57.3474455  57.1300077   1.6407418  58.1794691
  58.1844044   0.7336242  57.5825024  69.0031338  12.6834989  47.4669600
  68.7391472  11.7683029  47.5616074  69.9231195  12.6416457  47.2059727
  35.2173805  67.1353340  43.2964516  35.0806618  66.4994001  43.9986849
  36.1597371  67.1099424  43.1304550  67.8476381   4.6012059  46.7637396
  68.0174255   5.5243516  46.5761089  67.4093771   4.2738166  45.9782600
  75.6054449  27.2798657  18.9420652  76.2834644  27.9548287  18.9112771
  76.0846472  26.4551616  18.8617134  72.5020456  63.6427307  63.7816858
  72.9306841  62.9701614  64.3109798  72.4166870  64.3925667  64.3704844
  32.6124597  27.3354936   2.5995988  32.4998307  28.1472135   3.0942285
  32.5400043  26.6428494   3.2562760  57.6422071  52.3626328  53.7591124
  57.6104069  52.9643583  54.5028496  56.9209623  52.6410723  53.1947470
  62.3976612  59.1439056  30.3244042  61.8243408  59.7167683  30.8336806
  63.2825136  59.3877172  30.5961108  19.3864322  24.1851187   4.7340021
  18.5845983  24.7011304   4.6501845  19.3342757  23.8020134   5.6096399
   0.5109054  10.1223826  57.2658682   0.0744735   9.9799299  56.4259481
  -0.1804807  10.0067973  57.9176760  54.6926785  68.8950062   1.1997101
  53.9119434  69.3952179   1.4373538  55.1386499  68.7374067   2.0318767
  74.9140263  23.5896850  51.6733027  75.0455570  22.6556063  51.5107346
  74.5912218  23.6330199  52.5733852   6.9544524  25.8029962   2.8539705
   7.0998687  25.6414390   3.7861639   6.0047519  25.7496572   2.7469370
  65.0739765  40.1620960   6.2391859  66.0006809  40.0515461   6.0265213
  64.9981546  41.0766268   6.5114349  78.6826563   8.3542573   8.6178660
  78.7332630   8.0590612   7.7087289  78.3031702   7.6128745   9.0896434
  32.1280003  73.9946127  32.4445176  32.9865289  73.6171293  32.2530293
  31.6930509  73.3372450  32.9875827  10.8514464  52.6672602  29.2840075
  11.1520743  52.0877075  28.5840273  11.6553891  53.0260420  29.6597576
  80.9269047  34.5707726  23.2769823  81.8237019  34.9050093  23.2933831
  81.0251808  33.6193562  23.3141780  33.0829287  25.0750661  67.2463846
  33.6412764  24.9347544  66.4816666  32.2157884  24.7814727  66.9669199
  52.1115971  71.7712259  49.7039080  52.5657177  72.4983501  49.2781210
  51.5319109  71.4216709  49.0271473   5.4804170   6.0140514  21.1317253
   5.4522073   5.9775388  20.1756382   4.9443686   5.2735841  21.4156103
   6.1714512   2.6771155  64.6977329   7.1284646   2.6877153  64.6820784
   5.9179693   2.5787073  63.7799644  20.5485344  28.9114666  65.4964399
  20.0727844  29.6704865  65.1591253  20.1853085  28.7702870  66.3707209
   6.3157451  28.8356400  65.4404306   5.9665865  29.7268820  65.4373503
   6.2018961  28.5306907  64.5402765  51.1964989  54.1646767  42.4174166
  50.7777500  54.3501663  43.2579374  51.0189152  54.9400997  41.8850565
  79.0202284  18.7198472  61.7410088  79.3688011  19.1253662  62.5349140
  78.3597136  18.1033850  62.0571232  13.4510779  51.0219908  13.6896372
  13.6846101  50.0985527  13.5950375  12.5481129  51.0740042  13.3762968
   6.3554674  49.3408728  42.0939350   7.1224177  49.5900393  42.6096249
   6.3102096  48.3883524  42.1768999  36.6685152  52.2226238  52.3702288
  36.9524860  53.1165504  52.5612450  35.9689331  52.3262262  51.7251825
   7.5707990  28.0912828  55.9667158   7.6987910  27.2980118  56.4868832
   8.3543456  28.1481242  55.4198551  11.4807594  23.8046694  40.2376747
  10.8995652  24.2167330  40.8769274  10.9024429  23.2583284  39.7054172
  73.8504648  46.5232182  25.5175066  74.1433764  46.8430328  24.6641898
  74.6590710  46.3178539  25.9867764  23.9123487  40.9702969   3.2154414
  23.6515117  40.0536871   3.1258744  23.1416440  41.4666462   2.9399770
  79.6234417  17.8835809  44.3694258  78.9994621  17.5770831  43.7114477
  79.5939398  17.2174132  45.0561476  73.4461164  33.0309510  61.4030027
  73.8173532  32.4593997  62.0751190  72.4990606  32.9339647  61.5025187
   7.3975676  32.3129177  38.4344268   7.7057612  33.2153344  38.3514023
   6.5152025  32.3260975  38.0636287  76.5783739   9.2547339  30.4082298
  76.2992668   8.5572946  31.0014486  75.9770870   9.1927946  29.6660352
  80.7260323  59.9531221  54.9093342  80.4044628  60.3712130  55.7080984
  79.9427271  59.5872259  54.4984913  57.0437670  64.2815113  40.5763483
  57.9181290  64.5997906  40.3518009  56.4577627  64.9970627  40.3297377
  43.6771202  44.4754362  11.0101604  43.1929207  43.9819002  10.3481901
  43.2263803  44.2802286  11.8317211   8.9712143  48.0746222  28.4822154
   9.1787070  47.1425438  28.5486364   8.0441797  48.0973053  28.2448912
  28.7027216  76.1829853  61.0345650  29.2533064  75.8110619  60.3455353
  27.8985095  76.4421558  60.5847788  23.1280947  18.6446166  34.2761683
  22.1876931  18.7400877  34.4270349  23.3050442  19.1934860  33.5121894
  80.8484364  17.7821910  48.8043880  80.6132984  18.6442423  48.4611559
  81.6693306  17.9274452  49.2747784   0.9596903  38.5804200  33.0930233
   0.5642800  39.4145846  32.8399396   1.8016085  38.5665560  32.6378179
  11.1163497  20.8484173  25.5496812  10.6631696  20.6313348  24.7349811
  12.0386004  20.6700897  25.3655958  59.0852118  19.7038412  27.2787738
  59.1338396  20.6128240  26.9827724  59.9666739  19.5078838  27.5963497
  55.2371025  56.7822552  59.9122286  55.8628273  56.3591099  59.3243074
  55.3198862  57.7159405  59.7182846  57.0982695  57.3784304  13.8374913
  57.6347208  56.6102648  13.6416078  56.9682360  57.3444033  14.7852075
  27.2181749  75.1114178  63.5834551  27.7468133  74.3736219  63.8874817
  27.3824406  75.1516199  62.6413107  20.5585599  72.0002937  58.0139875
  19.7880268  71.9262457  57.4509382  21.0399199  72.7499104  57.6638365
  70.5890179  11.1963665  20.7520866  69.7909355  11.0679948  20.2394247
  71.0463715  10.3572786  20.6974101   5.6218165  16.2582839  54.2558956
   6.3816619  15.6871247  54.3683386   4.9838316  15.7189465  53.7886477
  59.3165398  66.9606876  55.1699018  59.6772003  66.3059092  55.7677507
  59.4852829  66.6065550  54.2967796  67.9283524  64.8227167  41.0647011
  67.9026413  64.9895239  42.0069027  68.1465960  65.6703520  40.6772614
  79.6783972  26.0336995  41.8898058  80.1982498  26.7431140  41.5120220
  80.2155590  25.2511239  41.7662811  53.4396172   6.0342997  59.1374826
  54.2877197   5.5951899  59.0731192  53.5907841   6.9029713  58.7649393
  21.5498447  77.4297094  59.2273998  20.8382106  78.0262136  58.9950418
  22.2148085  77.5766611  58.5547495  16.3137436  55.6098652  39.1015840
  16.8870437  55.1283646  38.5051656  15.4291058  55.4186773  38.7899828
  61.7265177  65.4797649  17.6808095  61.9943428  65.4144144  18.5974503
  60.8818293  65.0308943  17.6454997  68.3849382  13.9694095  19.3192446
  68.0600262  13.1646359  18.9155066  68.2914972  14.6342766  18.6370039
  10.5650342  10.4732728  17.5972509  10.0202668  10.3009939  18.3652234
  11.2817693   9.8425245  17.6656520  79.7474241  21.7857742  24.8320293
  80.6885052  21.9557953  24.7909951  79.5054531  21.5599084  23.9338827
  35.5166245  11.2177086  61.2320518  35.3288364  10.3535008  61.5982676
  36.3876200  11.1296904  60.8449459  72.2199631  69.2248344  22.1394587
  72.3936415  68.2844687  22.0973086  72.9667997  69.6264744  21.6954327
   1.0629606  24.4329929  17.9938495   0.9519905  25.2526236  18.4756398
   0.4689309  23.8190484  18.4256291  15.8836305  19.5946991  19.2372513
  15.6153536  20.5076122  19.3414176  16.1862636  19.5359015  18.3310568
  55.6065273  60.1562357   9.6889621  55.9561777  59.3735504  10.1148522
  55.7546091  60.0071573   8.7551099  51.3259935  31.9019151  57.9721260
  52.1274519  31.7718506  58.4790611  51.3651514  32.8165650  57.6926374
  52.3253870  71.8262148  36.3814425  52.3409700  71.0790157  36.9795108
  52.3023272  71.4339399  35.5086184  78.1433916  41.4568377  17.3234308
  78.2503128  41.7585325  18.2255280  77.2138453  41.5872145  17.1358645
  50.3083849   3.0431044  18.0991006  50.2446699   3.1150761  19.0514612
  49.4956732   2.6108259  17.8366697  47.3061085  15.7447970  35.6441069
  47.2474241  16.3171458  36.4090919  47.3051023  16.3429463  34.8968124
  24.0053344   2.9753751   9.4986331  23.2131290   3.4932154   9.6417570
  24.7191930   3.6111611   9.5477349  14.0677333   7.5636297  28.2990289
  14.6290648   6.7889804  28.2665181  14.0772247   7.9040051  27.4044418
  16.1368155  14.4933963   1.6455640  15.6050599  14.9457383   0.9906946
  16.9657600  14.9719632   1.6531073   4.5934466   5.6208313  28.5810232
   4.9032164   6.0977554  29.3509698   3.6638653   5.4688787  28.7513781
  63.8766003  11.4285374  18.0388081  64.2889500  12.1398211  18.5289896
  64.3252611  10.6384945  18.3400857  52.1297503  75.1364613   2.8146720
  52.6558208  75.2082825   3.6111170  51.4769793  74.4666719   3.0183876
  25.6314397  56.7723560  64.4120502  24.9167585  56.2987041  64.8376322
  25.9634757  56.1629963  63.7527561  30.9435606  17.2017169  34.2210412
  30.9768009  16.2520885  34.1055655  30.0896764  17.3645175  34.6217990
  24.9890304  26.9594836  13.2012236  24.6083474  26.1698842  12.8167188
  25.5971241  26.6335630  13.8647223  12.0254743  70.0363541  64.0859461
  12.7658820  70.6386375  64.1586447  12.3776495  69.1896439  64.3603182
   5.9830981  10.7434046  13.6374927   5.4051089  11.0459352  14.3379474
   6.5893888  11.4705515  13.4964192   9.9487996  10.6764412  20.8825326
   9.3036032  11.2201715  20.4305243   9.9523735  11.0060859  21.7811728
  46.5246916  69.2789459  50.6598186  46.0568905  70.0602484  50.9547043
  46.9807673  69.5582151  49.8659468  64.5661640  10.1101148   9.0944815
  64.4230509   9.1710252   8.9767462  64.8745966  10.4142559   8.2409012
  37.3328209  52.6915026  64.8924494  36.4795828  53.1163883  64.9801588
  37.2440147  51.8728495  65.3804541  28.0345225  21.4268112  40.7764053
  28.9335012  21.7271113  40.6426477  28.1231356  20.5036426  41.0133505
  65.1686954  76.8824863  33.5616994  65.7450485  77.1790409  34.2660403
  65.6223488  77.1365118  32.7580214  24.2382097   6.6133088  42.5872374
  25.1000810   6.1995280  42.6341057  23.9695811   6.7113107  43.5007286
   7.7090681  76.4363575  23.6568165   6.9839162  76.9986916  23.3844781
   7.3637623  75.9440517  24.4015527   1.9362792  72.9487181  34.8970199
   1.2791005  72.6027727  34.2931390   1.4611274  73.5885048  35.4272437
  64.9564171  64.2010069  17.9699290  65.4934835  63.4194326  18.1000757
  64.1028547  63.9686871  18.3355677  51.6163969  22.6271605  11.3877785
  51.1390114  21.8023682  11.2980330  51.1701107  23.0859876  12.0994961
  12.1707523  12.7904427  18.1857991  11.5076149  12.1460211  17.9384124
  12.6542485  12.9591227  17.3770905  69.4404125  46.4136744  43.4363985
  69.2761326  47.3541212  43.5057020  70.3025150  46.3507891  43.0252314
  76.6878700   5.7200706  21.9741440  76.0974789   4.9754548  22.0891166
  77.1377945   5.5436504  21.1479020   2.5971219  62.3274374  42.2163200
   2.2850789  61.9467306  41.3953924   3.3272496  61.7665625  42.4781704
  23.9051437  30.3991365  39.0677929  23.1252909  30.8195615  38.7054372
  24.4995785  31.1238241  39.2619824  68.1854010  62.2354364  19.1407442
  67.8370285  63.1259203  19.0971076  69.0829897  62.3132896  18.8174653
  35.3103566   8.2362473  55.6612873  34.9308300   7.7301973  54.9428844
  35.3254104   9.1370487  55.3379297  69.2308044  77.1530485  13.7616003
  68.4041548  76.9791412  13.3114517  69.1624498  76.6678572  14.5838809
  60.8219051  65.6668472  36.7697120  60.3995228  65.9570408  35.9612513
  60.7842302  64.7112179  36.7299557  30.3515911  17.2823131  30.8593988
  30.2613878  16.6736412  31.5926194  29.5296741  17.7728665  30.8528304
  51.4018345  34.4110942   1.9493352  51.6562271  34.0135789   2.7821004
  51.0435009  35.2651143   2.1911591   0.9950902  49.0050316  48.2300711
   1.3021322  49.4541407  49.0176344   0.0417639  48.9962435  48.3156490
   8.6765611  22.2812057  62.0066452   8.2746738  21.4172888  62.0981121
   9.3323994  22.1686363  61.3185787   2.0233442  65.5298138  18.7653112
   1.1953067  65.5716610  19.2436779   2.6677674  65.8988905  19.3692446
  62.6919460  73.4843159  31.6008115  63.6394119  73.5897350  31.5146160
  62.3529148  74.3790436  31.6281986  32.3247528  63.1281471   8.2810980
  31.8446112  62.6473999   7.6068723  31.8331647  63.9421082   8.3908284
  78.6087036  53.6503744   4.9438667  79.4501972  54.0249300   4.6834186
  78.5422611  52.8382778   4.4415545  19.3499279  30.6266522  37.9227853
  19.4165909  30.2200508  38.7867665  20.2144217  30.5008960  37.5315475
   9.8753333  27.3690820  36.7339802  10.3948700  28.1143761  36.4325666
   9.3906951  27.0857596  35.9586811  70.0321960  18.4160268  15.8047724
  69.6655893  18.0689120  14.9915421  69.7447824  19.3287957  15.8266521
   1.0131492  73.5780001  66.8092871   0.2341990  73.2236195  67.2381020
   0.7127973  73.8276815  65.9353971  10.6692529  18.2147241  18.7033188
  10.6421626  18.4695828  17.7810693  11.5192044  17.7873099  18.8088274
   4.2080966   8.6614609  60.5425262   3.8336951   8.4898371  59.6784687
   4.5641181   7.8177559  60.8211708  69.2021036  44.7874928  61.6366243
  69.4947195  45.4625845  62.2488832  68.7067795  44.1722298  62.1773052
  66.7618704  63.2869148  10.1589322  65.9491253  63.7854862  10.0746179
  67.4507046  63.9514875  10.1678145  50.4152966  55.7378292  39.8243713
  51.3056612  55.6466198  39.4850111  49.9838924  56.3304520  39.2088032
  49.9731159   3.5998550  26.8048358  49.0976858   3.2629895  26.9955540
  50.5528402   2.8502101  26.9396853  35.3935838  56.3262510  18.5548353
  34.8715734  56.3403368  19.3570423  35.2564788  57.1895027  18.1646705
  52.3058033  59.8584461  18.5881078  52.0816803  59.0110826  18.9727819
  52.1195936  59.7546339  17.6549506   9.0341902   3.6230746  13.6474001
   9.8500276   3.1292945  13.7300003   8.6456728   3.3088776  12.8309643
  31.8201041  12.5523496  61.8317556  31.5902686  12.0884836  61.0266209
  32.3766923  13.2749093  61.5413237  24.7436070  24.7084546  33.8479424
  23.9618540  24.1630626  33.7605286  24.4165182  25.6063843  33.7934828
  36.0143805   2.8166988  19.4781077  36.5150499   3.4276852  20.0187159
  35.5974102   3.3685902  18.8164544  77.2811556  58.1122351   5.6788856
  77.5610256  58.6161041   6.4430982  77.9813004  58.2393503   5.0386727
  51.0748863  48.4852934   7.3987353  51.0991001  47.7499247   6.7864645
  50.1514196  48.7341309   7.4377918  62.2423697  44.4725800  11.1051571
  62.9335165  43.8603878  10.8526289  62.4728012  44.7402382  11.9948149
   6.0466802  10.2437496  20.2399945   5.4762459  11.0023320  20.1159406
   5.5614102   9.6742463  20.8369970  23.9597940  68.9932489   3.6864078
  23.3860111  69.6735287   3.3339608  24.2228150  68.4816980   2.9213136
  57.6459026  26.5630007  18.5686159  57.7942801  27.3328042  19.1178155
  57.4709082  25.8558941  19.1895878  47.3307133  52.0501757  21.5085268
  47.3230314  52.8945637  21.9592834  46.7378902  51.4999819  22.0204711
   0.2359133   3.7228677   7.4034727   0.5406833   3.7930334   8.3081400
  -0.6725907   4.0228495   7.4328488  81.0424328  70.4268169  33.0827260
  80.9301758  69.6018362  33.5549855  80.4661942  70.3479385  32.3224926
  22.1788073  15.9092355  15.8957362  21.5697670  15.1807821  16.0168016
  22.2863054  16.2796772  16.7717791  16.5832400  46.1585236  60.0003290
  16.7358661  47.0872593  60.1746464  15.6315398  46.0805464  59.9338484
  76.4298534  61.2028885   3.4327418  76.1402845  61.9371080   3.9743179
  77.3851776  61.2268925   3.4876695  18.0354941   1.9816141  43.6546230
  17.0969510   2.0571199  43.4823799  18.3848333   2.8521031  43.4637260
  36.8822312   7.0868862   3.3207443  35.9420276   6.9948053   3.1665730
  36.9584012   7.2160763   4.2661226  26.1543036   1.3171323  42.9889965
  26.0803676   0.4241394  43.3256388  25.3243923   1.4725980  42.5380993
  50.8144236  59.4287157  27.9564881  50.9927607  60.3623724  27.8437400
  51.6133070  59.0781260  28.3503199  46.5853310  32.2171450  63.0288887
  46.8643618  31.7784476  62.2251987  45.6757069  31.9437695  63.1475639
  42.0252514  39.4428420  53.2339191  42.2882271  38.5260510  53.1528425
  41.1328745  39.4674826  52.8885508  25.7589054  10.8500648  13.3914161
  25.2929783  11.6829348  13.3174539  25.1241922  10.1941240  13.1031239
  18.2368755  66.2071228  19.0273583  18.5077119  66.0950279  19.9385738
  18.4555304  67.1162462  18.8226104  69.5504618  61.1963224   2.8860146
  69.4847822  60.4368639   2.3071006  70.3385401  61.6536331   2.5926936
  25.9335279  69.4252872  64.2016315  26.6322112  68.7783337  64.2992210
  26.2479854  70.1916170  64.6813107  72.7147865  10.9650278  36.8981290
  72.3139620  10.1191747  37.0983887  72.4870491  11.5204966  37.6436639
  71.3693476  55.7635736  30.8211231  71.6134548  55.6903791  31.7437744
  71.0810947  56.6708183  30.7208753   7.6316899  15.0679171   2.4445136
   7.2983956  15.4694772   3.2469448   7.3289454  14.1608477   2.4869835
  71.5278006  73.1289053  35.7785463  72.2052336  73.5754156  36.2864256
  70.8510160  73.7927532  35.6462312  56.8350601  75.6308556   4.3806720
  57.6911116  76.0234022   4.2094553  56.9505692  75.1531982   5.2020931
  78.7785769  41.9992638   5.3414834  78.5183239  41.0783672   5.3626364
  78.0861902  42.4324226   4.8422793  17.6296389   5.9679526   3.0694205
  17.4736130   5.2721334   2.4308878  17.2726893   5.6254733   3.8888884
  51.7200899  59.1534710  16.0675681  51.9519138  58.3552456  15.5928910
  51.9383383  59.8632479  15.4635656   4.3047237  43.1736994  57.2157001
   4.5319289  42.2457123  57.2744274   5.1477534  43.6236429  57.1601534
  10.2680600  13.5996687  64.4213820  11.0743880  13.9068544  64.8357534
   9.9173355  14.3720782  63.9779758  25.1725721  30.6921101  63.7669086
  24.3173862  30.2651119  63.7163067  25.3400397  30.7824612  64.7050047
  27.4061799  77.1367741  18.2123923  28.0741811  76.8767595  18.8467407
  26.7642522  76.4271259  18.2360816  82.4231625  48.4428501   8.5844582
  82.2632313  49.3671370   8.3938169  82.9304314  48.1282425   7.8361762
  35.3447676  56.3971519  57.7080202  36.1140156  56.9504976  57.8432751
  35.6271076  55.5238819  57.9798937  57.7423620  57.0286274   8.2174438
  57.0829248  57.0973396   8.9078450  58.2083941  57.8641796   8.2473534
  36.0825372   7.9040861  51.8387938  35.8413625   7.1597183  52.3901415
  35.7216311   7.6915067  50.9781027  32.5934672   1.5141177  17.8568900
  32.2560596   2.3508993  17.5372267  33.1996012   1.2241179  17.1751773
  41.6055250  18.8854337  39.3972754  42.0440722  18.3845425  38.7095141
  41.0389042  18.2487786  39.8329878   8.7848413  21.6487622  26.9531131
   8.8938725  22.5707221  27.1862054   9.5536429  21.4437032  26.4210153
  81.4973354  38.6684489  18.2261550  81.8452740  38.2409859  19.0087438
  82.1043587  39.3889308  18.0568600   9.2144197  38.3774376  52.4339008
   8.5059941  38.9614248  52.7046824   9.1575134  38.3587885  51.4785767
  81.5421581  66.6846037   1.6168770  81.6847229  67.0388985   2.4945915
  82.4192142  66.4675140   1.3008456  62.9738855  74.6134377  47.1160555
  63.5555315  74.6950817  46.3602448  63.4725142  74.9858046  47.8433371
  18.5838652   5.6522167  25.3456807  18.1143677   4.9954554  25.8599448
  18.1169713   5.6811476  24.5105720  51.9518089  40.6727362  17.8560388
  52.4866819  40.3394890  18.5765195  52.0792389  41.6210651  17.8818667
  77.9465532   7.2219956  33.7392616  77.7512407   6.5545374  34.3969727
  78.8806772   7.1151948  33.5597014  63.3170748  72.0433664  11.0377789
  62.5004053  72.5330591  11.1351681  63.7751245  72.1739626  11.8680620
   3.7022576  76.9417429  13.7122488   3.5883558  77.8424501  14.0155423
   4.5342642  76.9517565  13.2390726  68.7119818  74.0353203  55.7903337
  68.0444145  73.4764719  55.3924990  68.7992954  73.7047863  56.6843987
  60.0045395  60.5340958  34.9491835  60.2246571  61.1686039  35.6312227
  59.0480042  60.4988194  34.9545646  58.5363102  14.1954768  63.5359669
  58.9659977  13.8497841  64.3183327  58.9651299  15.0367534  63.3791399
  52.8599691  77.3652029   1.3866536  53.0686045  77.0044947   0.5249140
  52.9170895  76.6162729   1.9800125  81.7826939  34.5712566  57.2727013
  82.4540234  35.1969123  57.0004797  81.7313194  33.9455676  56.5501356
  78.4907866  44.9671745  27.4330997  78.9596653  45.2104187  26.6348410
  79.1127777  45.1427889  28.1391573  69.3275928  33.4325767  53.5015821
  70.0560427  33.6779618  54.0720034  69.5473289  33.8178253  52.6533270
  70.1405954  62.2476673  16.9941652  69.8548603  61.3806725  16.7062211
  71.0804701  62.2623634  16.8134654  53.3282709  75.4295301  34.1541457
  52.9655838  74.9932671  33.3831930  53.2872868  76.3622522  33.9429951
  68.8393688  71.5629435   9.8369867  69.0588236  72.1551991  10.5562234
  69.1595984  72.0091915   9.0530562  54.2015696  42.6036072  57.4348068
  55.1084614  42.8121614  57.2105646  53.6798286  43.0739641  56.7845917
   1.2370558   8.3910173  14.4204807   0.8481993   7.5731027  14.1105795
   2.0005798   8.1160033  14.9280536  24.6503353  34.6355271  66.9030094
  25.3269625  34.2982912  67.4901009  25.1292372  35.1622653  66.2631416
  81.7244434   4.1749308  10.6514800  80.8974457   4.4826886  11.0224211
  81.6161251   4.2784327   9.7060770  10.8303142   8.3158070  14.2312944
  11.0663116   7.4491060  14.5620012   9.8798001   8.2805687  14.1239989
  47.2992611  61.5858412  65.3227663  48.0248880  61.0662174  64.9768066
  46.5175629  61.1961555  64.9311924  20.7796621  33.7187743  23.2349944
  21.4469409  34.2127252  22.7585673  21.2237549  32.9148674  23.5047150
  35.9795046  33.6376023  53.3698797  35.2563834  33.3448839  53.9245367
  36.1228752  34.5491099  53.6245012  26.8836164  72.3204327   7.2139895
  27.0417786  71.3788223   7.2816795  25.9334612  72.4096346   7.2880369
  67.7175570  69.8451328  39.4934630  67.0235872  69.7902584  38.8364792
  68.4017515  70.3684235  39.0760040  65.4581881  12.4009681  10.1483524
  65.1156139  11.5520680   9.8686284  66.1368656  12.1862853  10.7883012
   6.0665184  60.1063728  13.9170825   6.3311166  59.4614840  13.2610798
   5.8666688  60.8941936  13.4114838  46.2764502  52.6471186   7.4481076
  47.0384645  53.2164192   7.5551367  46.1967182  52.1933889   8.2871598
   5.6082678  69.3712330   6.6851473   5.1387459  69.3117094   5.8531386
   5.6836241  70.3109503   6.8509406  55.2942896  58.7198210  37.4884582
  55.6394196  58.0123806  38.0331111  55.8618832  59.4668627  37.6781821
  79.8514462  67.9166412   9.7589558  80.3210163  68.4014750  10.4376781
  80.5122757  67.7417088   9.0889353   3.9398545  58.1615353  17.0740581
   3.8743478  58.7315512  16.3078856   4.4019091  57.3856878  16.7565680
   1.0278465  61.4150953   7.8108037   0.1858588  60.9741306   7.6975054
   0.9019431  62.2772360   7.4144536  25.5272913   6.4322442  27.8659868
  25.0048065   6.0176885  27.1794128  26.3687706   5.9771109  27.8343487
  52.7016211  66.0010958  51.6227007  52.5106192  65.0634384  51.6460180
  51.9024849  66.4164400  51.9469070  52.0966482  23.1550264  27.0959234
  52.4568415  22.3005176  26.8586254  51.2392807  22.9572630  27.4728131
  39.9720883  66.5576077   3.0876261  40.3204203  66.4249849   3.9692762
  39.4182062  67.3345995   3.1633025  11.1324489  42.0543528  65.9759665
  11.3622451  42.9812384  66.0416222  11.5055406  41.6587114  66.7636871
  64.4761229  64.8856688  10.3309405  63.8878107  65.2763987  10.9770453
  64.8581028  65.6335640   9.8716253  76.2078047  74.1789055  10.1800108
  76.7298508  74.3341970   9.3928725  76.5288687  73.3434534  10.5193818
  78.4628630  67.3996973  20.7537580  78.8617086  67.9266834  21.4461756
  77.7494717  66.9328403  21.1888981   0.5068636  68.0982685  11.9212031
   0.5219264  67.5851297  12.7291000   0.5978443  67.4492693  11.2235224
  27.3106360  56.1254263  66.7094183  27.1564054  56.4125395  67.6094246
  26.6522670  56.5907526  66.1934185  71.8768644  12.7839887  47.1873331
  72.3290443  11.9524300  47.3297262  71.9218445  12.9221392  46.2412214
  12.7503192  67.9795265  18.3142233  13.3180356  67.3152399  17.9235160
  12.2241831  68.3046770  17.5836825  81.8442631  28.2854581  55.6917191
  82.6369095  27.8295684  55.4086876  82.1654034  29.0444255  56.1786175
  75.2737570   3.8548109  37.8031635  75.2021170   2.9008794  37.8365374
  74.3831825   4.1557139  37.6227140  15.2160656  45.0676823  40.6571293
  15.9080029  45.6856155  40.8929491  15.1535630  45.1303864  39.7040296
  34.0931153  31.3716292  62.2202682  33.9700460  30.7776070  61.4798450
  34.7773695  30.9589434  62.7472591  52.7805567  34.0269184  65.7859945
  53.5305357  33.5590482  66.1532307  52.7094412  33.6992240  64.8894501
   1.1298947  24.8526573  67.3092890   1.2142093  25.7876253  67.1223164
   1.9343416  24.6284556  67.7770805  79.6804094  57.3078632  28.8252831
  79.7428179  57.8569269  28.0437016  79.5390368  57.9264879  29.5419073
  24.5101714  12.3364758  10.3558135  24.8099065  13.1171727  10.8215415
  23.8653159  12.6643312   9.7289896   5.2357984   4.4172585   0.8391117
   5.7689756   3.6328280   0.9680395   4.3750238   4.0830114   0.5869640
  21.1558580  33.0594754  66.3664579  21.6921663  33.4136677  65.6571245
  21.7822886  32.8526831  67.0600367  51.4956236  16.3616133  22.1473742
  52.0132303  16.5824318  21.3730645  50.8848763  17.0923388  22.2435784
  22.2072268  45.6204128   3.1322774  23.1550145  45.7530880   3.1141984
  21.8483138  46.3981342   2.7050099  49.1568995  50.7630110   2.1475223
  48.7127495  51.4259863   1.6189077  48.4539223  50.1893139   2.4523562
  80.8585453  40.5406189  37.7286863  80.8954525  39.5966983  37.8832197
  81.4364624  40.6833839  36.9791102  25.6169271  36.8705273  60.6542921
  26.2899828  36.7339587  61.3210583  25.2409911  36.0018182  60.5120039
  32.6517010  20.3227305  14.9293756  32.0823264  20.1323009  14.1838670
  33.5218287  20.0446796  14.6433723  43.2356787  66.2279510  38.3000922
  44.0962505  65.9840202  37.9592896  43.0451679  65.5664635  38.9652014
  68.3041763  17.7039087  37.8443980  68.3875561  18.2154953  38.6491084
  67.7526283  16.9608271  38.0890536  52.3828745   0.2998440  14.6903408
  52.5997877   0.5750534  15.5810928  53.1877470  -0.0995544  14.3603575
  43.8182974  20.2853370  16.4074862  44.6561337  20.2413368  16.8682730
  43.6821318  19.3989229  16.0728824  27.5097680  15.1806557  64.3365955
  26.8400478  15.3369927  63.6708164  28.0623150  14.4936657  63.9638138
  80.3780079   5.1989865   7.7292490  79.6569729   5.6056160   7.2486353
  80.9002876   5.9358799   8.0461770  64.7280598  57.8489637  38.7274909
  65.2094698  58.5718250  39.1299057  65.2838469  57.5658703  38.0014110
   2.5214624  76.6037130  65.6850958   1.6416967  76.8678713  65.9542942
   2.3931749  75.7704401  65.2318621  14.2939222  65.5415583   0.0579635
  15.2110481  65.3587532   0.2621570  13.8311958  65.3959274   0.8831344
  23.3317304  21.2239552  36.2228060  23.2881260  22.0810938  36.6466522
  23.4302378  21.4220095  35.2915144  13.0092442  47.5875521  62.5299454
  13.1105173  47.4004984  63.4632111  12.1479511  47.2344351  62.3069763
   2.0148805  72.0997906  11.1206114   2.6887316  72.7719879  11.2221420
   2.0425431  71.8713379  10.1914847  34.1867971   6.9496053   3.4112349
  33.4440303   7.1749347   2.8510976  34.0271115   7.4280649   4.2247513
  21.2807655   4.5361692  33.0656338  20.6728363   4.8977640  32.4207282
  20.8403301   4.6609458  33.9062762  47.9620695  63.5186148  15.6990302
  48.3902264  62.6655626  15.6267965  48.1101322  63.7848425  16.6064620
  50.4630041  31.4155984  55.3124666  49.9172258  32.1983814  55.2375412
  50.7158089  31.3873076  56.2352467  22.9029751  17.1009898  18.5302794
  23.3832693  16.3624609  18.9046121  22.2522688  17.3253918  19.1954517
  51.4167452  74.5074654  38.3942461  51.8720055  75.2726460  38.7456322
  52.0058250  73.7747622  38.5741282  67.3924446  22.7772284  16.8141592
  66.6519117  23.2174706  17.2313213  68.1558990  23.2909513  17.0777035
  80.0877571   2.2406974   7.0513934  80.0415993   3.1747991   7.2552454
  79.1759253   1.9773164   6.9271713   0.9988910  31.4955688  13.6713719
   1.9303510  31.6780758  13.5476565   0.5633303  31.9933391  12.9794586
  76.5443277  51.7357492  59.6039629  76.9396496  52.5904799  59.4325256
  75.6095362  51.8682623  59.4463539   0.3772672  27.3482013  10.9778643
   1.0365613  26.6747212  10.8105481  -0.0414149  27.4896932  10.1287949
  10.7999074   3.1543320   2.2355214  10.7531118   3.9466825   1.7005236
  11.5056789   2.6410952   1.8421929  48.0691195   6.8999034  28.9865589
  47.4371099   7.1751899  29.6506453  48.1173515   7.6393837  28.3806920
  75.2482700  61.8293810  42.9532766  75.1148272  61.8491650  42.0056295
  75.7925606  62.5956202  43.1345510  65.9832239  49.4993210  16.6417098
  66.4511967  50.3018999  16.4112878  66.6731167  48.8484669  16.7708266
  52.8865767  38.4646916  14.5475423  51.9982338  38.6629295  14.8438251
  53.3168364  39.3179917  14.4928670   1.1433159   2.4124655   5.3683293
   1.9784558   1.9980444   5.5851889   0.9098990   2.9065403   6.1542290
  58.8482714  46.5930748  15.3261518  59.3711615  46.0403156  15.9069109
  59.0426016  46.2680292  14.4470537  10.9055960  16.1223578   1.5004489
  10.3637207  15.3408504   1.3915971  10.5492723  16.7503119   0.8720068
  30.8041811  71.6641808   6.9292033  31.3800693  72.4107361   7.0942616
  30.0424600  72.0418930   6.4894927  37.3789144   9.4700164  25.8860755
  37.7883077   8.6048108  25.8930111  37.2808361   9.6960026  26.8110299
  36.9266844  15.3699815  31.8500733  36.8869328  16.3254666  31.8912911
  37.6862669  15.1385832  32.3846006  53.0223465   8.0718815   4.3136734
  53.5686302   8.2102066   5.0874144  53.2816792   8.7678593   3.7098557
  78.1642151  18.1959236  28.3279514  78.4362459  17.4421287  27.8044796
  78.1226206  18.9193666  27.7025461  80.6877422  54.1645002  24.8794174
  81.4640617  53.9547968  24.3602014  80.0671768  54.5265198  24.2469049
  49.4507790  37.3999739  67.5419283  50.1904726  37.0217752  67.0664787
  48.7826157  36.7146707  67.5297356   6.2863845  75.1275730  10.2078593
   6.2671435  75.5737638  11.0544860   7.0695275  75.4680490   9.7754276
   1.2567151  73.8941097   4.9418175   0.3737026  73.6808777   5.2435672
   1.1744693  74.7673035   4.5584142  66.6103649  60.5984783  10.8412981
  66.8243599  61.5141344  10.6623852  66.5227222  60.5546284  11.7934680
  34.1444302  52.0047092  66.5736580  33.7251091  52.0695972  65.7156420
  33.5261321  51.5032005  67.1050978  63.0873203  66.4245653  58.5444117
  62.4237442  65.7961893  58.2597256  63.9040470  65.9253931  58.5478115
  65.7600927  66.9999409  20.9036016  65.8180571  67.2157192  19.9728453
  65.1993990  66.2247944  20.9352946  61.8839693  22.5875998  62.9155397
  61.0737371  22.1683073  62.6257896  62.4693727  22.5247002  62.1608353
   1.1966822   3.3242154  16.7352629   1.8797371   3.9735693  16.5679097
   0.5241822   3.5096365  16.0798287  34.0940213  40.4766607  52.2398949
  34.8769140  41.0269260  52.2170734  34.0255713  40.1952457  53.1522274
  45.3378344  73.4023857  13.3544934  45.8200884  72.7288675  13.8341188
  44.9719810  73.9661741  14.0360534  11.6163123  24.7378755  24.3145561
  11.0101640  25.4784107  24.2939234  11.3469684  24.2291307  25.0793195
   2.5862911  13.3047545  14.2215240   2.2494085  12.5094032  14.6340263
   2.1071739  13.3673954  13.3952343  55.3940773  60.8085537  12.4699390
  55.1466894  60.3403378  11.6725636  56.3378525  60.9439516  12.3851430
  33.5400200  26.7678714  64.2406988  33.9419103  27.0320106  63.4130859
  33.9494443  25.9279704  64.4484711  74.5870352  71.2461042   7.2581732
  73.9177322  71.3050795   6.5764201  75.4166746  71.2565231   6.7808670
  66.4627075  23.0186868   3.6997515  66.7914534  23.0160451   2.8007787
  66.5662432  22.1141624   3.9952970  39.9681902  62.8371000  22.6434112
  40.5737591  62.3906517  22.0516324  39.5593715  63.5128832  22.1026564
  72.5104523  74.7753763  41.0275269  72.4504375  74.1024065  40.3494883
  73.4180403  75.0767326  40.9862137  39.7495079  56.1600065  61.2619781
  40.2449465  56.3972998  62.0458555  39.3452811  55.3199959  61.4792776
  39.2576694  33.6089158  40.4354477  39.5793128  33.1991553  41.2384892
  39.9291921  34.2524886  40.2093840  18.2696700  43.1615162   6.2740368
  17.7840531  43.8491488   6.7296338  18.7972474  42.7479744   6.9573230
  77.6965714  50.0588131  54.1379499  77.7338219  49.5929480  53.3025980
  78.3837748  49.6552134  54.6681309  16.6410732  28.0190682  20.4836392
  16.9875991  28.6671162  19.8702991  15.7423556  27.8685141  20.1905966
  54.2825508  14.2643404  11.8136251  54.5210361  15.1525521  11.5482306
  54.3075800  14.2853451  12.7702677  43.5540295  74.4139004  34.9551129
  43.7058687  74.8526478  34.1180491  42.7108812  73.9741945  34.8455834
  58.3993244  74.0147209  59.6115208  59.2571402  73.6415958  59.8143911
  58.5373354  74.9615145  59.6392393  77.8051805  76.1913204  59.2531061
  77.5549221  76.4708233  58.3724928  77.7689075  76.9911909  59.7776318
  42.9628229  48.5887861  63.6284494  42.9702473  49.4847393  63.2916355
  43.4839010  48.6300325  64.4303274  18.6110377  17.5571442  13.6252928
  19.3535304  17.2271228  13.1193066  17.8626299  17.0498264  13.3110535
  37.6836157  12.0992291  40.5950546  36.9558835  11.7148483  41.0838223
  37.5774407  13.0434906  40.7105064  19.6957076  15.6645453   8.1578338
  19.2788756  16.4582598   7.8224230  20.6074667  15.9164464   8.3043659
  34.3765163  48.5132122  64.5021105  35.1375484  48.3990860  65.0713491
  34.2416477  47.6518679  64.1069794  71.4887667  40.8302021  20.9571528
  71.3883972  41.6694832  20.5079699  72.2157240  40.9688759  21.5642238
  26.9089103  14.1858137  13.9630902  26.7312074  13.6930251  14.7642219
  27.5418258  13.6484456  13.4867656   9.5127487  11.5704727  32.6339126
   9.2414057  11.6077137  31.7167330  10.2516484  10.9620202  32.6405716
  57.2613001  29.5393109  18.5848880  57.5239754  30.3566647  18.1616068
  58.0513239  29.2368865  19.0328074  65.1573849   0.9609775   0.9234973
  65.3740788   0.3507136   0.2186176  65.3120804   0.4638360   1.7267109
  28.4596133  24.6376228  18.1158781  27.6915789  25.1654530  18.3343983
  28.2055378  24.1606522  17.3258293  69.3964911  65.7717514  14.0758479
  68.7694645  66.1423779  14.6969008  70.0614882  65.3571606  14.6255088
  43.5158682  16.7900145   7.4871320  43.2697248  17.3113096   6.7230016
  43.9392424  17.4141514   8.0765736  16.6957152  34.5546794  34.1291428
  16.7796314  34.1941023  35.0118518  15.7780099  34.8190451  34.0646529
  50.4484034  44.0510750  60.5452681  51.3506556  43.7732458  60.7033157
  49.9131680  43.3608723  60.9369040  80.2109718  56.3601398  54.6374893
  80.9962177  56.5837955  55.1370859  79.5515251  56.1638832  55.3029537
  53.3485222  31.3199902  46.9292498  53.2886076  31.4577794  47.8745842
  53.8474083  32.0714402  46.6088247  37.7580929  44.1927052   8.9582622
  37.0109797  43.5944510   8.9703786  38.3099055  43.8723564   8.2447439
   1.9977607  14.4935536   1.6591710   1.0465293  14.4374537   1.7499636
   2.2768711  13.5917056   1.5010594  18.1255960  58.7183046  39.7954583
  17.5876367  58.0608130  40.2365255  17.6720214  58.8836384  38.9689183
  34.9519110  11.5931129   8.1449986  35.5381107  11.0237455   8.6434209
  34.7197700  11.0795069   7.3713374  45.4451132  45.4583263  13.8565516
  45.7926369  45.0088167  13.0862272  46.2037563  45.8990479  14.2392492
   5.1649410  60.8318949  53.5997963   5.3190315  61.7659521  53.4582853
   4.2447197  60.7034063  53.3697605  80.8112907  61.2521362  34.9345613
  81.6403866  61.7161560  35.0508022  80.1494980  61.9435978  34.9223399
  19.9798310  63.8120842  39.4225025  20.2226377  64.1620779  38.5653090
  20.6432986  63.1470728  39.6063662  40.2665997  41.7265511  62.5629425
  40.9387875  41.9671392  63.2005310  39.8979402  40.9100771  62.9001236
  67.6281118  73.7595415   2.5376418  67.5118256  73.7164259   1.5885103
  67.3472643  74.6437120   2.7734318  40.0882149   5.8670950  33.1933475
  39.1603899   5.7334304  32.9996872  40.2813005   5.2366519  33.8872433
  45.0330114   3.5604683  14.4995797  44.9406910   2.6982659  14.9049389
  44.9808550   3.3898216  13.5591590  36.5200973  28.4112740  64.7196341
  36.4908147  27.5228763  64.3644953  37.0580697  28.3365250  65.5078125
  38.0526114  39.9266934   3.4665921  38.2268143  39.0049386   3.6569989
  37.2007895  40.0974369   3.8684320  71.3680506  75.5491734   4.2876232
  70.5506086  76.0327291   4.1684818  71.6418362  75.7579470   5.1807559
  47.9991436  65.2242517   3.9487258  48.5708141  65.9812737   4.0765831
  48.5771513  64.5429277   3.6053091  31.5181062  -0.0245358   0.4662006
  32.1842074   0.2877544   1.0785864  30.6863183   0.1603244   0.9023061
  39.9168563  44.5782137  55.1044464  39.4697237  44.9958277  54.3683052
  39.7117257  43.6477709  55.0126362  41.7863274  54.9391890  63.6144543
  41.2217331  54.9039650  64.3866062  41.8354273  54.0323305  63.3120775
  16.0777307  62.1162605   1.1964370  16.3963783  62.0493984   2.0965615
  16.7732894  62.5797319   0.7299353  50.1608801  10.7375252  52.0749807
  50.0886059  10.3297663  52.9379606  49.5227385  11.4507449  52.0928669
  48.7834978  45.9371519  51.2828302  48.3000755  45.1766539  51.6055870
  49.0826607  45.6785011  50.4111433  42.6971674  48.6486483  59.5560789
  42.8939629  47.7171326  59.4571829  43.5081530  49.0304470  59.8918772
  38.1457591   2.5071186  22.6896548  38.4216809   1.7306094  22.2026920
  38.4804606   2.3659253  23.5752439   8.1344146  16.6824174  21.6720128
   8.2677478  17.2137904  20.8870935   7.2274739  16.3832092  21.6074753
  33.5496044  30.8707404  53.0034781  34.4951558  30.7412910  52.9299259
  33.1704187  30.1828837  52.4563932   3.5537696  25.5222321  27.1140552
   3.5944524  25.4796982  28.0694437   2.6812491  25.1941037  26.8966365
   2.0586701  75.5814409  62.5226212   2.8402847  75.1175547  62.8228235
   2.1493357  76.4628172  62.8848076  59.7936440  70.8711433  65.6168652
  59.4130850  71.0897923  64.7662163  59.1010141  70.3936863  66.0735178
   4.5059821  29.8276973  30.4175544   4.7521678  30.7193494  30.6636882
   4.0428996  29.9280190  29.5858574  69.2659044  16.3433015   0.4249135
  69.7498131  15.6992733   0.9419130  69.2343330  15.9688485  -0.4554390
  48.4703732   9.2320669  10.3152144  48.6437511   8.2907152  10.3099144
  48.5936117   9.4931716  11.2278306   9.7361451  48.4578419  25.8247519
  10.6693137  48.2672262  25.9201193   9.4949812  48.8899040  26.6441369
  13.6444473  10.5213428  65.8438826  14.3011069   9.8339283  65.7321215
  13.1007004  10.4631627  65.0582695   8.5436201  76.0588598   9.2080164
   9.3892699  76.2411213   9.6177572   8.2588488  76.9039726   8.8602877
  25.9589839  11.7823720  27.3389959  25.6771421  10.8772254  27.2066808
  25.3030634  12.1536410  27.9290485  82.0635509  68.5181379  29.8360682
  82.1122551  68.2476044  28.9191890  82.4975777  69.3710089  29.8575211
  64.2033720  55.1715994  40.6737375  64.1669321  55.7064438  41.4667368
  63.5561991  55.5658674  40.0889730  72.8266668  22.3902988  10.6440318
  72.7388954  23.2083797  11.1331868  73.7420654  22.1371007  10.7630610
  81.6196346  76.9360113   1.2574553  81.2348843  77.0955706   2.1192788
  81.4225101  76.0175753   1.0734757  25.0656676  39.1884732   9.2597920
  25.7245541  38.9219284   8.6186588  25.3497434  40.0556564   9.5488000
  53.4283781  69.3795776  28.2967877  53.4136820  70.2199697  28.7547755
  53.5284281  68.7295246  28.9922404  47.8723717  56.7879629  17.5249672
  47.4264860  57.5910616  17.7941394  47.4227953  56.5216923  16.7229629
  10.0380862  43.2131863   3.0166447   9.3316364  43.8357687   2.8447425
  10.8360100  43.6838341   2.7757367  40.3115988  56.2192774  58.3596563
  40.8837223  55.4547501  58.2932901  39.8976445  56.1348057  59.2185736
  36.2763429  70.2606153  27.3425031  36.6901088  70.7469130  28.0556273
  36.2921047  70.8645439  26.6000366  57.1544600  73.6316204   6.4533597
  56.7238855  74.0023232   7.2236943  58.0883503  73.7702513   6.6110277
  33.7957621  10.2425289   3.3362958  34.2887902  10.6028128   2.5991732
  34.4309497  10.1993644   4.0510702  33.9557076  53.4194899   3.2976496
  33.9402914  52.8449154   2.5322360  33.2018995  53.9972734   3.1786284
  58.9583445  10.1693106  36.4541721  59.8629904  10.4811525  36.4295840
  58.9737415   9.3504012  35.9588099  42.3009348   5.4790169  13.0026591
  42.3108864   4.6327555  12.5554740  42.4467802   5.2647328  13.9240944
  54.3754864  56.1988306  62.4519205  54.6916008  56.4922905  61.5974092
  55.0342226  55.5707216  62.7481937  44.6716928  49.4170952  56.5549374
  44.6520758  48.5103226  56.2489700  45.0040865  49.9147987  55.8079195
  22.2698903  12.6371920  25.8215380  23.1077313  12.2085023  25.6469584
  22.2435999  13.3707833  25.2072215  64.4701004  44.3922615  44.7507524
  63.7800026  45.0326109  44.5776939  65.1598835  44.8947620  45.1842546
  54.8529005  66.6976690  58.0333996  54.7602701  66.2077618  58.8504934
  54.4740868  66.1249781  57.3665047  39.1642666  50.7500982  22.5298429
  39.3116689  50.2560949  23.3363581  39.7410059  50.3370619  21.8871856
  72.3504591  34.7368145   1.7124380  72.1558762  35.3056860   2.4572565
  73.3055353  34.7434282   1.6490930   0.1090176  72.9133749  44.8310328
  -0.5826060  72.5817108  45.4036379   0.9192021  72.5782204  45.2151060
  33.6900139  17.3266828   9.0945858  33.1475663  16.5830004   9.3571073
  33.0928159  17.9016268   8.6160183  12.6588345  15.8006632  19.0185702
  12.8220987  14.9066234  19.3190217  13.4893203  16.2556720  19.1581845
  70.6510115  57.1744871  51.8203306  69.8317194  57.2332907  52.3117924
  70.7165289  58.0126858  51.3627720  81.8229008  19.9189568  60.3988838
  80.9510136  20.2162385  60.1387501  81.8684196  19.0132284  60.0925875
  68.5905838   6.9123757  31.8219256  69.2810774   7.5703996  31.7415833
  67.8642941   7.2631621  31.3064790   8.9503920  75.9344244  13.4236491
   9.5597690  75.4655600  13.9937901   9.5103121  76.4824963  12.8737974
  65.9908152  64.8150396   4.6891615  65.9286308  65.1253366   3.7857902
  65.9944248  63.8607311   4.6149021  59.1307545  30.4865098  66.0669947
  59.4003248  30.9580064  65.2787971  59.4659376  31.0169792  66.7898226
  16.4685953  16.9332969  29.0212297  17.1231496  16.6946101  28.3648610
  15.7681227  17.3509550  28.5201001  66.8657112  56.9029570  16.1725807
  66.5172243  56.1982155  16.7185915  67.5114727  57.3394251  16.7282033
  74.3444157   3.2553014   3.5317758  73.6587381   2.7530265   3.9719963
  74.2634249   3.0136544   2.6091281  10.9176195   7.2747523  45.1326561
  10.8181226   6.3229907  45.1546144  11.3346493   7.4525881  44.2896318
  53.5453367  70.4063988   3.1787142  54.0428114  71.1214685   3.5754827
  53.1894970  69.9205256   3.9227134  44.9734020  32.7728343  48.1619930
  44.5121384  32.0853066  47.6816034  44.2837286  33.3771706  48.4365225
  64.2415333  53.6426926  30.2971530  64.2709780  53.9539194  31.2018657
  64.7900152  54.2602873  29.8134422   7.9649359  24.3722343   8.4903818
   8.8139474  24.1085672   8.1355691   8.1351727  24.5434737   9.4166261
  48.6173391   9.7228479  47.8683853  49.4992542   9.4709837  47.5944805
  48.4686899   9.2329937  48.6772013  71.8562126  47.9493666  56.7303085
  71.3270569  48.1051874  57.5125790  72.0144510  48.8221073  56.3704300
  65.2933598  59.5440435   4.0127814  65.7338381  59.4030190   4.8508272
  64.3948174  59.7732925   4.2500690  62.8253937  60.3503132   1.0627766
  61.9360876  60.0129414   0.9552906  63.0073357  60.2524900   1.9974206
  36.7394996  74.8047304  52.0831203  37.1443391  74.6641970  52.9390335
  37.4133801  75.2502537  51.5696764  44.0161705   0.2207375  26.7588067
  44.4772482   0.1159553  25.9265471  43.9315939   1.1679008  26.8681717
  60.3399277  45.2266407  17.2050965  60.5785656  44.4194746  17.6609099
  61.0894775  45.8070517  17.3375154  52.3147440   6.6323805  34.3592691
  51.7559624   6.9689476  33.6587548  52.2617149   7.2955555  35.0474691
  42.5267220  35.2068758  42.6575375  43.3144522  35.7503724  42.6755762
  42.8446960  34.3315268  42.4364281  24.7695899  33.8478565   2.6337439
  25.0056338  33.1545615   3.2500693  25.5839658  34.3308234   2.4931496
  65.1036978  46.9153214  66.8818617  64.8516655  45.9949875  66.9573212
  65.5333233  47.1149683  67.7136040  40.4827690  20.8783793  26.5447927
  40.9283924  20.1988292  26.0389638  39.5600009  20.6246519  26.5259576
  26.0815978  72.2301149  27.5311661  26.1498952  72.2400093  26.5764570
  26.7077374  72.8927135  27.8229594   4.7941348  21.6750073  21.4080477
   5.4417855  21.8765163  20.7326412   4.9143732  20.7419062  21.5843940
   1.8279897  22.4190974  36.0103822   2.6093334  22.8222418  36.3888097
   1.5925716  21.7268324  36.6281056  14.0591788  22.9574513  51.0151958
  14.1475523  23.7854934  51.4871788  13.4172010  23.1401658  50.3291082
   3.6908945  14.2400324  56.3366032   4.3098330  13.5384798  56.5390110
   3.7990007  14.3912876  55.3976297  78.4461308  22.9277658  19.8468578
  77.5320721  22.6665807  19.9587202  78.7137127  22.5169802  19.0247345
  81.4712048  55.4318523  67.1611738  82.2030926  55.2739191  66.5648365
  81.7461491  55.0356340  67.9880047  31.6612744  25.8873963   8.4203851
  31.2809014  26.7145705   8.7159073  31.1353683  25.6401372   7.6597822
   1.3734268  77.5143385  30.3200793   0.9028485  76.6808939  30.3074670
   0.6913017  78.1762695  30.2069950  14.6693408  20.7239389  38.0488753
  14.1007674  20.3393102  38.7159705  15.1411510  19.9784720  37.6775193
  45.2725458  25.8884668  45.2198076  45.2096462  26.0151649  46.1664963
  46.2034798  25.9964633  45.0250387  11.9185531  63.7106419  38.6919427
  12.0064116  62.7654791  38.5687637  12.6121271  63.9369154  39.3116093
  67.2309589  60.0525522  57.5171185  67.9751062  59.6823454  57.0423317
  66.6333294  59.3147755  57.6385784  65.3547525  57.7920389  57.5390673
  64.4744062  58.1195402  57.3547888  65.3724813  57.6740551  58.4888029
  72.7504539  18.4917879  12.8670037  73.2152987  17.6597261  12.9554474
  73.3206892  19.1312587  13.2937837  74.3032837  74.4672775   7.7798414
  74.3207550  73.5357094   7.5605106  74.4827366  74.4954777   8.7196469
   2.3296995  14.7725368   8.0513138   1.7222555  14.4628048   8.7231100
   2.0209973  15.6528246   7.8367728  64.7579145  40.7526064  47.6663351
  65.3481483  40.1396418  47.2280121  65.3396654  41.3815880  48.0931568
  79.4355249  21.2180614  22.1376991  78.5889912  20.7785678  22.2180653
  79.3653584  21.7272019  21.3301826  50.9521389  13.4589469  17.2064972
  51.0668278  12.6790833  17.7495372  51.0856438  13.1488633  16.3108087
  77.6167440  61.2314892  30.7027221  77.7476501  61.1451817  29.7584534
  77.8205299  60.3643179  31.0530281  52.9753542  58.9101505  56.8620062
  52.6823521  59.5531940  57.5076675  53.5609388  58.3308649  57.3496008
  72.1104383  69.1108131  56.3204670  71.1757231  69.2969704  56.2316656
  72.3094368  69.3143940  57.2343493  42.2195816  17.3199832  59.4078922
  41.4063025  16.8619120  59.1958284  42.6098108  17.5213981  58.5573721
  66.8740863  19.7551572   0.1721197  66.3244826  20.3098619   0.7257181
  67.7212888  20.2002609   0.1530891  53.0285740  43.3344555  46.2927914
  52.3590279  42.8560686  46.7817545  52.9002762  43.0639648  45.3836107
  75.5872631  66.5833616  24.5661998  75.2687550  67.0878363  23.8176727
  74.8582840  66.5890598  25.1865125  16.2253833  47.3385477   4.1922373
  16.7043233  47.9225969   3.6042482  16.3447857  47.7225733   5.0608563
  70.2277470  53.8543558  38.2481599  70.6144762  53.6756992  39.1053391
  70.8952808  54.3604422  37.7850127  57.5523710  57.6015711  22.6027322
  56.7796040  57.0635271  22.4307847  57.9844761  57.6788998  21.7521238
  72.3559332  12.0030260  22.7711225  71.7528963  11.8328667  22.0475006
  72.6157331  11.1336255  23.0758786  24.8454618  14.1013956  41.6082621
  24.2425919  14.1598201  42.3494577  24.2902327  13.8620210  40.8662033
  79.9999237  68.3308363  22.9049516  80.7809258  67.9415226  23.2982802
  79.3634892  68.3645153  23.6191297  29.5747781  13.4564781  22.8069043
  30.1696062  14.1173065  23.1614709  29.6463084  12.7196121  23.4136534
  72.2679043   5.1776779   8.0526531  72.1324492   5.9405470   7.4905914
  72.9695559   5.4405969   8.6482996   1.1325591  50.4092932  11.0098457
   1.9502202  49.9216127  11.1089945   0.8549839  50.2313137  10.1112330
  78.2962227   1.4587468  18.1042051  78.1558657   2.3417711  17.7624452
  79.2365599   1.4157824  18.2778358  77.1741486  59.6473503  66.6878366
  76.8131351  60.4550648  67.0532179  77.3473501  59.8561668  65.7698870
   8.3955109  14.5541191  17.9385388   9.3233085  14.6514010  17.7241564
   8.0205619  15.4201102  17.7782154  43.4929895  71.0669279  42.3625183
  43.6759710  70.2258539  41.9437742  44.0891695  71.6819382  41.9352388
  32.2056699  18.0629742  50.6937933  31.6192627  18.8151956  50.6130266
  32.4874973  17.8816330  49.7971773  60.1832914  12.4038482   4.7384810
  59.6038866  12.0551991   5.4159528  61.0641956  12.1781421   5.0373065
   2.4708074  47.7914476  20.8313823   2.4790476  48.7324715  20.6563425
   3.3952099  47.5520897  20.8978701  16.0294783  58.0556822  50.4990625
  16.9087374  58.3784008  50.3016090  16.1696470  57.3489237  51.1291981
  20.7753086  47.9754686  14.6525371  20.3179717  48.7881851  14.4367397
  21.7002130  48.2206678  14.6782243  51.5990496  10.0017846  37.8674674
  51.4848089  10.9302306  37.6645637  52.0475101   9.6427161  37.1018410
  68.3256674   0.7054374  50.3370380  67.6896811   0.4527159  51.0062790
  67.8283167   0.6984972  49.5192194   7.5781739  35.0040913  34.9401665
   7.0495486  34.5974064  35.6267476   7.6606882  35.9183621  35.2113342
  17.6798308  51.4822626  46.4314175  17.0072806  50.8400345  46.6582489
  18.0207729  51.7800808  47.2747993  57.8818941  37.1471715  65.8857679
  57.6956654  37.3351860  66.8056583  58.1809521  37.9824138  65.5263710
  14.6084547  24.8405814  10.3791642  14.9821711  25.7166553  10.4743540
  14.5632529  24.5010543  11.2729824  63.3674526  65.4078770   0.6622713
  64.0719318  65.7584763   0.1172760  62.6422548  66.0204744   0.5396067
  46.6740656  12.2498381  25.4515553  46.4392996  12.6332068  24.6064830
  47.1358776  11.4417708  25.2279711  30.1565909  28.6310363   6.1751229
  30.1838136  28.8345098   5.2401954  31.0386348  28.8298535   6.4892924
  68.4370852  23.1064749   7.5551963  68.2011080  23.7113094   8.2585615
  68.9954376  22.4538565   7.9777700  65.9663963  77.6495457   5.6377780
  65.5407715  78.4906054   5.4713535  66.1928701  77.6755285   6.5674365
  49.3096161  71.3125420  41.8212461  49.4976044  71.9550371  42.5054216
  49.4588614  70.4652452  42.2408247   7.9480773  11.9880188  66.7239428
   8.8870329  12.1048403  66.8686724   7.8892827  11.5499806  65.8748865
  45.4250050  73.1180716  63.7430286  45.4004049  72.6488400  64.5769596
  46.2607050  73.5846424  63.7552929  70.8413696  32.6759052  17.0235074
  70.7499599  31.8426847  17.4856937  70.8018541  33.3381391  17.7135205
  62.8403759  43.7616587  61.1038637  63.4045458  44.2136383  60.4764366
  61.9878912  44.1864586  61.0087347  23.8226475  30.6020725   0.3688579
  24.6978010  30.5884969  -0.0186438  23.9160790  30.1166189   1.1885124
  44.7234631  28.4604907  13.1823552  44.9342966  27.5626373  13.4385598
  43.7667274  28.4880161  13.1712973   4.7861543  15.4799807  14.2129481
   4.1916156  14.7305107  14.2453611   4.2831275  16.2012684  14.5910203
  81.4399815   5.8487600  39.2318964  81.1286354   4.9909323  38.9430571
  82.2459984   5.6614739  39.7130251  14.7391760  11.5759051  11.7446196
  14.3569243  10.8794522  12.2785366  14.0940678  11.7300773  11.0544753
  13.7613595  76.6517496  20.4718637  14.5892382  76.9424105  20.0892878
  14.0189135  76.0612249  21.1798024  53.2132435  45.2717829  62.7082586
  53.8050270  44.5962000  62.3771715  52.8278351  45.6587696  61.9221735
  17.2490966  27.9599380   5.6351078  16.4956379  28.0671835   5.0545663
  17.9493260  28.4578347   5.2131963  16.6287255   9.4320631  47.5428009
  17.2068965   8.7166524  47.2779655  15.7689166   9.1832072  47.2036362
  42.2301340  25.9081292   3.6519143  41.7061090  25.6739545   2.8858933
  41.9256687  26.7832971   3.8919437  63.3070469  25.5189204  24.9171567
  63.1405687  25.9527802  24.0803289  63.4443617  24.5999217  24.6873426
  58.3422327  14.5600879   5.0988060  58.7651014  13.7025440   5.0537091
  58.4083796  14.8116076   6.0199976  78.4371138  70.9590054   8.2372004
  78.8165665  71.1571026   9.0933585  77.6302767  70.4842663   8.4368604
  21.0679173  12.2608232  62.4178505  20.7537246  13.1471634  62.5964975
  21.0439229  12.1859336  61.4638901  18.9272392  25.8708739  60.0776720
  18.4382224  26.4724660  59.5162582  19.2955458  25.2257919  59.4739723
  33.1776595   5.0026315  66.0752106  33.7926078   4.6259329  66.7046309
  32.6857066   4.2520094  65.7423735  47.0594120  11.2110722  16.1679327
  46.2040949  11.4288580  16.5383828  46.8647623  10.8942187  15.2859199
  29.9892926  15.7932222  41.3321114  29.1587710  15.9482086  40.8821726
  29.8602271  16.1607325  42.2064734  55.1983023  32.2124529  53.7380075
  54.9135399  31.4404392  54.2270231  55.1315069  31.9521308  52.8193092
  24.5448431  26.4307391  67.1985711  24.8980126  25.5780207  66.9448597
  24.9866852  27.0541321  66.6220399  72.9772425  58.5657597   1.6676417
  72.2740889  59.1077995   1.3098623  73.0225325  57.8126907   1.0785172
  69.3486166   3.2985291  13.8934588  69.5636892   3.5750681  14.7842455
  70.1824141   3.0056882  13.5256851  36.3540697  71.7894459  36.2327886
  35.8074594  72.4880362  36.5925407  36.6457057  71.2950087  36.9987607
   1.7105149  77.6239395  59.1978598   1.9627476  76.7058659  59.0991068
   1.8745469  78.0112123  58.3380127  76.2160635  49.5346308   1.4347631
  76.0278368  49.0537453   2.2407112  77.1703196  49.6074295   1.4166011
   9.1206419  26.6241693  46.0315180   9.3506283  25.8642483  45.4968596
   9.9229914  27.1450734  46.0650778  81.3467598   0.2724452  13.1914175
  80.6694317   0.5398054  12.5701499  81.6372585  -0.5831520  12.8755176
  56.6167974  70.6094980  10.1593852  56.7928934  69.6698475  10.2070928
  56.0010099  70.7011652   9.4323117   2.5696772  38.6696243  57.1800041
   2.5887537  39.0052199  56.2837696   3.4885669  38.6478448  57.4472141
  18.4660614  60.0941372  42.1790171  18.9567089  59.5802259  42.8204203
  18.6090958  59.6402550  41.3485003  45.2298260  23.8568664  10.8307767
  45.0640965  23.3534122  10.0337207  44.7125053  23.4157610  11.5045989
  53.7897873  16.5352416  63.9303589  54.6278572  16.1642241  64.2064381
  53.3686447  16.8083477  64.7453928  82.2110653  23.4825826  41.1021900
  82.3120880  23.8725042  40.2338696  82.6127720  22.6172495  41.0243750
  63.0267859  50.7671165  61.1466169  62.7677488  51.5892744  61.5627766
  63.7770700  51.0012102  60.6002617   0.7624386  57.5672960   8.1433284
   0.8104922  57.9795027   7.2807699   0.4385650  58.2581949   8.7212509
  73.9655066   6.6313124  13.7479353  73.3497095   6.7591810  13.0263591
  73.5633516   5.9512776  14.2883551   7.5740856  19.7529006  61.5801716
   8.4302944  19.4443429  61.2836409   6.9526464  19.3613625  60.9663773
  34.7571945  17.0691109  54.9676228  34.4927502  17.6402736  54.2464590
  35.7135391  17.1096063  54.9669170  74.2056942  31.3103127  26.5658545
  74.0069008  31.3486147  25.6303072  75.1567078  31.4082694  26.6128421
  34.5004249  31.5357590  57.8113174  35.3797293  31.8118620  57.5528193
  34.1307950  31.1424518  57.0207977  28.6453533   5.6747353  52.2777271
  28.8035321   5.1886654  53.0870199  27.8150558   6.1266333  52.4281454
  48.7168360  19.7091377  44.5760298  47.8968334  20.1742935  44.7417402
  49.3493748  20.4006839  44.3813753  40.8071280  10.2594793  59.1768885
  40.4481220   9.7155404  59.8779440  41.6766644  10.5096352  59.4892454
  29.5523643  41.7991829   7.2875130  29.9542141  40.9827280   7.5844157
  29.3947935  41.6627026   6.3532889  51.1177540  11.4561546  62.5815630
  50.4711962  11.2711346  61.9004202  51.2147760  12.4083197  62.5674152
  29.0616846  24.2075658  60.5825329  29.2924356  23.2817507  60.6590271
  28.1193233  24.2064524  60.4146433  80.1364899  64.6280098  51.6079903
  79.9899769  64.4557190  50.6778955  79.2697477  64.8462248  51.9505930
  41.0116720  20.6954384  37.3000312  41.0909557  20.3439999  38.1868434
  41.2112999  21.6269803  37.3928261  66.7588568  17.1104538   1.1679627
  67.6876879  16.9001043   1.0717365  66.6995573  18.0398023   0.9465456
  48.7350750  51.5125513  12.5586236  48.3053398  51.8373299  11.7673719
  49.6695900  51.6335535  12.3904943  67.6581192  64.7155809  19.2473674
  66.9436073  65.0344324  18.6959684  67.9025173  65.4703617  19.7829103
  18.1938648  44.1163397  42.3535156  17.9729557  45.0307703  42.5303030
  18.6569059  44.1393900  41.5160847  47.9242992  72.6447392   4.4358495
  47.3354387  73.1490946   4.9971873  47.3737097  71.9506359   4.0734917
  67.3422956  51.2815952   5.9525353  66.6783905  51.8977547   6.2620676
  68.1746435  51.6738987   6.2162131  73.2063437  15.8729553  46.2914801
  72.8797817  15.9602022  47.1870136  73.4693146  16.7596996  46.0449791
   0.6601689  16.3043308  52.2330952   0.7373465  15.9038055  53.0990362
  -0.2813663  16.3251722  52.0618963  23.3659625  12.9509974  50.3536272
  22.9419518  13.5855997  50.9313202  24.1767406  13.3801937  50.0803804
  70.9721661  50.1586485   3.5271868  70.3983307  49.4333076   3.7738207
  71.7224646  50.0815392   4.1165429  24.6854353  67.1271181  52.6177883
  25.2903557  67.8348494  52.3954773  25.0376558  66.3602304  52.1660662
  37.7047420  75.8171082  20.5019212  38.5516214  75.5384350  20.8503056
  37.1525192  75.9289742  21.2757230  17.1545804  56.1916018  13.0818105
  16.9089627  55.2846575  13.2644558  16.3207340  56.6571283  13.0168557
  43.1762075  32.6397491   7.2140980  44.0873480  32.3965955   7.3782015
  42.6678085  32.0610094   7.7822727  33.6321521  65.3389120  11.4088237
  32.8662848  65.3252506  11.9828403  34.0650463  66.1693621  11.6067708
  40.4424095  20.1381016  55.4104710  40.0180864  19.4249141  55.8874846
  40.2588367  20.9185386  55.9333944  34.8990893  74.9278545  19.9161220
  34.9245286  73.9907455  19.7226942  35.8060527  75.1547289  20.1214957
  26.3785863  41.4174509  50.6899929  26.7023778  41.5404749  51.5823269
  27.1696329  41.3538170  50.1548052  70.7915963  76.9706689  52.9317284
  70.3591122  77.7758632  52.6473856  71.3251890  76.7077213  52.1818161
  33.4664536  18.4820700  34.1856432  32.6058817  18.0899644  34.0376663
  33.2772732  19.3829942  34.4478989  11.3368511  10.7799220  64.4423008
  10.8111858  10.1316524  64.9109745  10.9194124  11.6174865  64.6434546
   1.1029933   6.4052671  51.5915966   1.6376677   6.5471870  50.8104324
   1.7360383   6.2140471  52.2836351   4.4956666   5.9656715   3.8046846
   4.8619920   5.1574045   4.1634911   5.2480495   6.4243561   3.4308398
  19.7493148   9.5411241  58.1004572  19.0847754   9.4897991  57.4134445
  20.3017688  10.2797461  57.8446007   2.0238513  13.6054230  41.6728115
   2.8632879  13.3873546  41.2678099   2.1294168  14.5087433  41.9713068
  18.4524453  52.6395130  54.3411589  18.7253070  53.4503794  54.7704220
  18.8664532  51.9457197  54.8544645  43.3854294  58.3137512  53.6409616
  43.5287857  57.6940632  52.9256535  42.6354504  57.9590750  54.1184282
   6.0150737   9.2136848  56.4255571   5.1174426   8.8837290  56.3853121
   6.5123910   8.6248028  55.8579969  13.1038523  66.3496876  12.1203768
  12.5276661  67.0754480  11.8805563  13.8655782  66.4498806  11.5494406
  73.5440063  60.5149555   7.2164452  73.5328436  61.1677504   6.5164697
  73.7748623  59.6965170   6.7770171   2.0978005  44.0602446  42.8178644
   2.5555715  44.4794607  43.5465145   1.2195689  43.8849545  43.1558180
  46.8776989   2.0137338   2.3834266  47.1850586   2.6419371   1.7298821
  45.9262180   2.0059091   2.2792201  67.2846270  76.4815855   0.7647365
  67.8091908  76.9119501   1.4399058  67.9171038  75.9710598   0.2592003
  55.8737183  56.0036135   4.3878528  56.1421680  56.2042618   3.4912434
  55.3431129  56.7549372   4.6528149  23.1527352  31.9630146  11.0460246
  22.4034190  31.7088628  11.5846932  22.8309894  31.9066978  10.1462805
  25.7890153  68.6116600  59.8206043  24.8771048  68.4765100  60.0782537
  26.1312985  69.2297029  60.4664326  57.6345730  45.4090452   3.5519096
  58.3145428  44.7376490   3.6075950  58.0685663  46.1558294   3.1393594
  72.4107885  68.4770012   4.1096964  71.7049789  69.0386915   4.4299582
  73.1132460  68.5860491   4.7507071  49.5451832   5.4813421  24.9926972
  48.6455393   5.6819540  25.2508163  49.8434162   4.8426986  25.6403255
  69.7804165  47.9108143  14.8963857  69.9833870  47.8810549  13.9614272
  69.5221472  48.8184786  15.0566363  74.0479755  54.6987104  13.2682645
  73.8521576  55.2057362  14.0561795  74.0309906  55.3416443  12.5593388
   3.7003773  14.1698134  10.6742632   4.5093781  13.8325417  11.0589671
   3.9858210  14.6422350   9.8922324  42.7843618  21.5074897  39.4287086
  42.6674318  20.5631971  39.3244529  42.2309732  21.7363548  40.1754427
  38.1254753  21.0065829  67.5856155  37.2704205  21.3932024  67.7744031
  38.0687985  20.7356821  66.6693017   8.5184330  74.7535372  57.8779125
   8.3335757  73.9670515  58.3912325   9.0920901  75.2760267  58.4384060
  82.1917152  73.5575533   9.8866868  81.9138432  74.4735336   9.8862457
  82.0369911  73.2607555  10.7834601  65.0646162   3.2174525   8.7854290
  64.6738386   2.3446609   8.8273579  65.8870459   3.1350890   9.2681891
  37.6487613  57.8292799  23.5466337  38.1909132  57.5840902  22.7968454
  37.7568316  58.7774897  23.6204696  43.3514738  25.3986263   7.4032873
  44.0150404  24.7354531   7.5933117  43.6709738  25.8382392   6.6153216
  19.6867824  27.6095891  53.6731148  19.5117140  28.4700155  54.0542269
  18.8333690  27.1763706  53.6575937  45.1856852  71.3383245  23.6359239
  45.9282160  70.7619238  23.4552217  44.6869183  70.8812523  24.3130851
   2.1561176   9.1623032  49.8616219   1.2512784   9.0845418  49.5592117
   2.0894894   9.6138591  50.7029819   7.6487327  24.3008637  59.5524979
   8.3909810  24.5100355  60.1195478   7.9411745  23.5440922  59.0445566
  33.6121511   7.7113342  65.3261566  33.4473443   6.7684549  65.3331327
  32.8657174   8.0814683  64.8549175  20.0052977  13.6541569  48.2559395
  20.7076669  13.4993362  47.6243210  20.2809596  14.4364524  48.7337017
  22.4703074  14.5518696  57.8724051  21.8861771  14.3157339  57.1518040
  23.3488655  14.4966304  57.4964857  13.4955251  55.0729799   8.2831407
  13.7357557  55.0722694   9.2097044  14.3320787  55.0447941   7.8187954
  44.3917608  16.7048228  17.3813629  44.2136335  17.3570311  18.0589509
  45.3452826  16.7007720  17.2975838  58.0661106  17.8832388  14.6321809
  57.9761076  18.8081241  14.8617899  58.9142275  17.6278031  14.9950647
  41.4830065  49.6449375  14.2462564  40.9754848  50.3677177  13.8771510
  42.3698616  49.7799683  13.9123595  47.6476812  17.3891437  37.6877308
  47.6248074  17.2129571  38.6282969  47.7129221  18.3419919  37.6240563
  31.4162731  27.3234534  48.2116365  31.9685340  26.8818712  48.8568068
  31.8740225  28.1432557  48.0255651  73.7148714  68.8696957   1.5576974
  73.2959366  68.8440800   2.4179709  73.1347466  68.3584785   0.9934724
  35.3824207  57.3126627  -0.0044483  35.0396505  57.8477563   0.7113844
  34.8465005  56.5197123   0.0113970  21.1399364  75.3305435  45.1992130
  21.2512088  76.2791872  45.1365805  20.6445456  75.0951815  44.4147253
  20.1991796   9.0433675  62.2454023  19.4699514   8.8054335  61.6728258
  20.9107137   9.2685431  61.6460276  77.3736525  32.8575158  12.4252403
  76.7972708  32.1486545  12.1396995  76.9190931  33.2503796  13.1704009
  13.6388767  41.7740440  36.5949845  13.7546623  41.5062714  35.6833243
  14.1896868  41.1705875  37.0936608  32.1267486  47.9592085   0.9791178
  32.1087670  47.5319052   0.1227764  32.5134325  47.3075008   1.5639129
  40.4226589  12.7628815  12.2261059  40.5369711  11.9029593  12.6307034
  41.3131523  13.0966532  12.1172643  67.5207233  62.1267176  35.7244658
  67.2780848  62.6781702  34.9806571  66.7481565  61.5841103  35.8824277
  58.6884403  54.4214678  21.2651348  57.8985882  54.9288034  21.4521456
  58.5279608  53.5698795  21.6716814  39.5502615   6.2786829  53.1440544
  38.8395405   5.7301027  52.8121376  40.0679922   5.6921554  53.6955738
  75.7885742  72.9950857   0.5621531  76.1943054  72.5224304  -0.1646294
  75.2477264  72.3392677   1.0021729  35.9402561  57.3537683  33.5088730
  36.1739659  56.4392710  33.6679554  35.0444460  57.4325752  33.8368201
   1.0540243  42.8135061  40.0110579   0.1676903  42.4796438  40.1495504
   1.1941098  43.4273720  40.7320166   3.3444861  50.3751040  37.3448801
   3.2628602  49.6567488  36.7175579   3.6323532  49.9541521  38.1549215
  78.9971256  45.2148533  18.2603240  78.1923342  44.8314333  17.9117084
  78.7055349  45.7612181  18.9901841  23.6964202  48.6271524  14.4591653
  23.9888310  48.2173872  13.6450291  24.3773627  48.4085417  15.0953698
   0.8342203   3.8177249   2.9446188   0.9766905   3.5102481   3.8398236
   0.0219254   3.3914113   2.6713690  47.9918432  70.0188160  17.8610206
  47.2277451  70.1029396  17.2906613  48.7409210  70.0754690  17.2678089
   9.3279278  18.2234454  23.6952734   8.9123189  17.6215339  23.0778575
   8.8675511  18.0749607  24.5212507  67.3676586  22.8619289  25.1240468
  67.4638462  22.2519302  25.8554029  66.8610287  22.3768973  24.4726586
  16.2024260   3.4709263  49.4001675  16.4830840   4.3838733  49.4633341
  15.2463806   3.5148680  49.3834543  62.1037865  31.4442134  20.1824951
  62.0469570  30.5112195  19.9762809  62.5583792  31.4761996  21.0242534
  75.2874613  63.5600281  57.0390177  74.4486904  63.8303471  56.6653538
  75.4012680  62.6566982  56.7436075  42.1174574   0.2852014  57.6768446
  42.6492071   0.9356061  58.1355906  42.0348930   0.6279000  56.7869139
  57.5924587  26.6267705  39.6160603  57.0505762  26.6069198  38.8272619
  58.0552387  25.7888985  39.6098781  58.2953930  63.8330841   9.7216994
  58.5797071  63.6188984  10.6102490  58.3681250  63.0082083   9.2415726
  66.7070627  53.7123203   9.8948222  66.3846064  52.8128433   9.9513608
  67.0381117  53.9036798  10.7723296  64.6237850  32.5727272  52.0796108
  65.1974201  32.3452640  52.8113461  64.5884180  31.7781591  51.5470314
  48.4872866  22.9743409  61.4795971  48.3444309  22.3525119  62.1931458
  48.9009476  23.7289548  61.8987370   1.4363679  17.8024209  56.6956758
   0.5814309  17.5143361  57.0155573   1.2411807  18.2866788  55.8934116
  22.8474450   6.0883617  57.4431610  23.0015063   5.2398849  57.8585958
  22.5545883   5.8719599  56.5579271  72.9144907  50.2063417   5.7432878
  73.4563398  50.7967806   6.2667501  72.8868961  49.3944883   6.2496096
  68.5183382  45.1691246   9.1220129  68.6096907  45.4791975  10.0229800
  68.5612249  44.2154074   9.1914314  82.5754070  76.5363979   9.8557663
  81.8045044  77.0910168   9.9755400  82.9613400  76.4708281  10.7292581
  72.7155876  27.5565720  51.9466305  72.6955891  27.3014927  52.8690004
  73.6434555  27.5356722  51.7124176  82.6453686  59.5401001  10.1938224
  82.2554302  60.3872299   9.9780738  81.9141102  59.0161753  10.5209303
  67.9062366  45.3809500  11.9023359  67.8443146  45.0525188  12.7992928
  67.0075750  45.6152105  11.6704726  63.6426020  32.5865865  22.0247698
  64.5252609  32.2740746  22.2234702  63.7502718  33.5247350  21.8681836
  49.9370193  69.4323826  13.2692218  50.2649498  68.5946608  12.9422355
  50.7061529  70.0020218  13.2823265  45.9648085  55.2015877  11.8521762
  46.0929823  55.4990101  10.9514296  46.8407393  54.9566364  12.1504605
   1.5318982  61.6008091  45.9922886   2.2914964  61.0258770  45.8990383
   1.7968436  62.2427750  46.6510057  64.7523355   4.0739048  67.0205116
  65.6344509   4.2303091  66.6834021  64.5731640   3.1582069  66.8069077
  16.4478469  42.6221037  46.9326830  16.6341329  42.7599716  46.0039616
  17.2941089  42.7336550  47.3658466  25.7970858  25.9982443  40.1728630
  26.3345361  25.7754111  39.4127798  25.1450229  25.2989817  40.2184200
  50.5352211  39.0408325  62.7812767  49.7764540  38.8874745  62.2182608
  51.2612391  38.6141086  62.3262691  36.4091682  65.5336094   2.6510772
  36.5303612  66.4139223   3.0068842  37.1617413  65.4027176   2.0742464
  77.4529171  14.7625935  33.5446835  78.0261135  15.2745700  34.1152620
  77.8058720  14.8994339  32.6655197  41.8817186  22.6172090  65.9338140
  41.5552902  22.3614836  66.7965317  41.1466932  22.4561000  65.3421974
  49.7429800  28.3003974  31.0808063  49.4862795  28.2213926  30.1620603
  49.2974663  29.0903711  31.3868904  51.8357515  40.9451151  11.3117588
  52.7163696  40.7750845  11.6461754  51.7695522  41.8996716  11.2858653
  56.3092089  66.9563437  34.0211177  56.7711735  67.4878645  34.6694255
  55.3858471  67.1757746  34.1455436   8.4047103   6.4182180  11.9740570
   7.9899228   6.8287712  12.7327585   8.7839752   5.6090677  12.3170805
  54.5811749  64.9051523  59.8814678  54.0210342  64.3350458  60.4082108
  55.3212833  64.3510675  59.6335649  10.1314247   6.2804872   6.2086058
  11.0304022   6.0945624   6.4797181  10.1301074   7.2167301   6.0094070
  29.5089579   5.9056783  65.9448433  30.0087476   6.0555106  66.7473364
  30.0511432   5.3048795  65.4336596  46.9177485  27.2175360  55.2167463
  47.4332523  27.9950953  55.4309654  47.0801258  27.0718050  54.2847443
  12.2047591   0.3752472  26.7353535  12.4879086  -0.5386230  26.7053652
  11.8816507   0.5549782  25.8524442  25.7222199  11.4099908  42.7067423
  26.5476441  11.6457582  42.2832823  25.8915305  10.5548322  43.1020498
  40.7094049  61.9151545  14.2079043  40.8907890  61.0914326  14.6604705
  41.4777851  62.4586058  14.3824983  33.1492972  58.1842375  15.9590709
  33.8539124  57.6342058  15.6167078  33.5183406  58.5834312  16.7469060
  35.5379653   4.2269933  48.8729620  34.6209669   4.4581163  48.7248850
  35.7931018   4.7390017  49.6404123  52.0668221  20.3408170  49.2006111
  51.7183733  19.9326873  49.9932337  51.2908459  20.5961728  48.7017298
  50.4411650  27.9746699  15.3395355  51.3584089  27.7622771  15.5121362
  50.3084469  27.7354884  14.4222522  35.0803995  24.4642138  64.8466921
  35.6772542  24.8500562  64.2055035  35.6478071  24.1889000  65.5667496
  58.7448692  65.7282448  14.7660911  58.5974693  64.8338842  14.4584739
  58.3875322  65.7380676  15.6540358  71.8760681  44.3010712   8.3103150
  71.1939955  44.2990112   7.6387489  71.7193460  43.5019112   8.8133192
  18.5850978  39.4035602   6.7347986  17.7221239  39.0421796   6.9370598
  18.7632859  39.1120124   5.8406621  70.8291435  41.7783976   7.1023607
  70.5579615  40.8634901   7.1774369  70.3235579  42.1182489   6.3640410
  74.2422056   1.2242722  38.6170912  73.3395100   1.0908768  38.3279920
  74.7733974   0.7789010  37.9570031  25.1398110   8.5621965  63.4673595
  26.0096526   8.9107209  63.2720757  24.9075246   8.0501014  62.6927423
  75.9158516  27.6296616  41.3495827  76.1941719  28.2168841  42.0523882
  75.9378195  28.1722498  40.5613232  64.0392208  67.7033997  39.3508697
  64.6919298  67.2269964  38.8377976  64.4350863  67.7934361  40.2177095
  52.3836327  16.9966078  42.2523022  51.6225910  16.8586373  41.6883802
  52.8667212  17.7085125  41.8327188  12.7026653  33.5285258  64.9767256
  13.3488107  33.1622362  65.5805159  13.1432688  34.2810750  64.5820475
  65.7179642  38.8266778  21.2688994  65.1955032  38.3193016  20.6477427
  65.2179861  39.6322393  21.4005232  44.1848230  35.5029273  59.3529654
  44.4174862  34.5754051  59.3954325  44.3656969  35.8357239  60.2320337
  32.5610518  35.8166909   2.9910740  33.2295680  36.0840940   3.6217999
  32.2704268  36.6351175   2.5886485  81.0150528  74.6562290   5.4650849
  81.0221100  75.4619265   5.9818417  80.7921982  73.9701128   6.0942221
  73.6823750  36.7787409  29.8455358  72.9535627  36.4634752  29.3110490
  74.0425682  37.5139856  29.3496442   9.5311451  37.3436069  32.4509597
   8.5822725  37.2709942  32.3479986   9.6468168  37.8444028  33.2584572
  37.9917955  74.1680336   7.1936232  37.4862504  73.5019207   7.6594019
  38.1803346  73.7736654   6.3420606  63.3668756  59.1804361  11.9902933
  64.1532135  58.9033651  12.4605441  63.3086395  58.5805368  11.2466812
  61.1575079  28.4874392  34.6222830  60.3814507  28.9117575  34.2563272
  61.2842751  28.9111328  35.4711938  49.4129515  27.5862122  58.3516121
  48.7853813  26.8636799  58.3699465  49.9703169  27.4002290  57.5959778
  29.1664219  61.1890745  12.9741633  29.2898130  61.8713617  13.6340785
  30.0181341  61.1154938  12.5435758  49.7123289  40.6023121   5.1937133
  50.3111410  40.3245449   5.8868957  48.8495827  40.6024408   5.6083190
  55.3282738  13.4189594  47.9481173  56.0278463  13.1445742  47.3552084
  54.5499229  12.9635465  47.6271677  31.5045571  10.1330435  21.3954306
  31.2899137  10.2224004  22.3239660  32.1627235   9.4385880  21.3675022
  14.6066666  14.1532910  62.3214865  14.9628890  13.2648444  62.3212814
  15.3776777  14.7204757  62.3128366  75.3307581  66.5703011  49.9874067
  75.6616640  65.6827164  50.1249838  75.9162903  67.1265316  50.5012035
   9.6056324  76.5968275  26.5048218   8.6511600  76.5444422  26.5545154
   9.9131310  76.0710812  27.2432446  67.4761486  39.8042345   5.1473588
  67.2318840  40.0966454   4.2692557  68.3486795  40.1717997   5.2881306
  80.4619980  54.7328329   1.7451018  80.4660892  53.7978649   1.9501813
  79.6026421  54.8883200   1.3532281  68.5702848  33.5414314   1.1466220
  69.3306065  33.4760809   0.5688022  68.9429760  33.6545634   2.0209986
  17.7889895  24.1734433  37.7616572  17.4449205  23.7522769  38.5493565
  18.6780918  23.8295817  37.6751137  56.7017221  42.6591206  49.4305182
  56.5154266  42.7635241  50.3635883  57.6086235  42.3544550  49.3999672
  35.6488356  77.8511416  36.3682938  35.6150564  77.6345957  37.3000646
  34.7436795  78.0608024  36.1381555  14.8995388  26.7469764  55.6659460
  15.3021514  25.9002495  55.8587933  15.5456114  27.2018957  55.1256990
  37.8869629  10.8372188  13.0881214  37.1757340  10.5345070  13.6526990
  38.5027480  11.2617946  13.6854291  49.4731855  51.1386919  63.5748768
  49.1029644  51.7678022  64.1940594  50.0110960  50.5595016  64.1147137
  21.3543248  65.4040766  16.0688472  21.9284415  64.7574043  15.6584322
  21.9485855  66.0819960  16.3905811  30.6544614   6.6550928  22.4423432
  30.2850461   5.7737571  22.4972248  30.0303674   7.1433759  21.9053912
  62.1791601  43.0805540   0.5195110  61.6781187  43.4121180   1.2646624
  62.5794840  42.2725296   0.8405625  24.0826225   9.3735445  35.3824496
  23.8163543   9.2475039  34.4717097  23.2819080   9.6460879  35.8305621
  16.1837053  43.1713486  50.0582075  16.3087094  42.5171757  50.7457161
  16.8090868  43.8642597  50.2703476  24.0364408  39.3486118  61.4034653
  24.9865198  39.3247890  61.5175533  23.8952923  39.0463614  60.5062723
  25.9042907  13.9679968  20.0723147  26.2872767  14.1937733  20.9200048
  26.0251045  13.0212522  19.9994361  27.9646969  27.5058866  53.7512302
  27.3250866  27.8228045  54.3889570  28.4210873  26.7956877  54.2024088
  16.6870117  26.9272184  63.3868265  16.5082788  25.9956670  63.2583857
  17.2870266  26.9554496  64.1320848  71.9037294  23.9869380   5.1412398
  72.3012924  24.2637253   4.3156701  71.1867428  23.4091115   4.8799402
  44.3927383   3.9802384  35.9304953  44.2621279   4.8278189  36.3556790
  43.5690117   3.8124591  35.4727173  32.3088503  40.7387686  57.7393150
  32.7845526  39.9081564  57.7341986  31.7362785  40.6915760  56.9737005
  28.9366722  24.7701192  49.7378778  29.6051383  25.3815651  50.0469398
  28.1061578  25.2008295  49.9402809  39.9772906  21.4665008  41.9316053
  39.8338985  21.9893980  41.1427736  40.5032873  22.0293498  42.4997234
  35.7071066  33.8813353  61.0029793  34.8866749  33.4337020  60.7962227
  35.8877015  33.6425591  61.9121552  32.5314975  55.2581787   7.7215993
  32.0999408  54.5500183   7.2435820  32.3377299  56.0444784   7.2112805
   8.5458785  66.0881615  11.4328742   9.1755605  66.3921213  10.7791615
   8.2293355  66.8889093  11.8510032  40.2001715  48.7393141   8.6017638
  40.9000063  49.2647791   8.9895123  40.6573248  48.0621290   8.1031001
  64.3407726   4.3558657  44.7017097  64.3824387   4.9459064  45.4542732
  65.2519846   4.1137844  44.5364189  54.0105534  14.5299292  14.5697892
  54.4681358  15.3540766  14.7360194  53.1019497  14.7876394  14.4140339
  42.7956963  19.7051442  42.6985121  43.0325508  18.9887905  42.1094704
  42.2057629  19.3048954  43.3372688  53.7070274  75.4939032  46.1813688
  53.3966541  75.2652931  45.3052187  54.6287632  75.7203531  46.0574293
  59.7703981  50.6449413  66.4499092  58.8610697  50.9435320  66.4357853
  59.7151566  49.7203112  66.6912365  62.4783087  48.5776281  10.2801633
  62.1204329  48.5997725  11.1676693  63.0868053  49.3158531  10.2487898
  61.7956257  26.6178274  49.6340656  60.9892941  26.9737649  50.0073814
  61.8045044  26.9393754  48.7325335  70.1353455  14.6268046  67.1804047
  69.8347521  13.8222933  66.7577457  69.5375586  15.3028190  66.8612099
  74.9371147  51.6130447   7.1754539  75.8926725  51.6476727   7.2195274
  74.6589804  51.5091848   8.0854470  35.9741926  54.6271658  16.1072910
  36.0595345  53.8140345  15.6095302  35.0298762  54.7671700  16.1772597
  72.0027828  41.0861206  40.4542208  71.8570995  41.9302416  40.0270605
  72.4022055  41.3089657  41.2950754  26.4960670  19.1634297  50.7462025
  27.0652342  18.9025390  50.0221729  26.6418505  20.1049805  50.8381796
  78.0770159  74.7461367   2.1253061  77.4483919  74.9030495   2.8298965
  77.6008940  74.2046976   1.4957172  20.9392333  74.1862011  37.9000330
  21.5335226  73.5473251  37.5064707  21.5120292  74.7756338  38.3906507
  22.3095798  66.9633675   5.4288632  23.0892539  67.4674797   5.1960307
  22.5864244  66.4217806   6.1679649  82.6777077  72.3562145  32.9766488
  82.0756626  71.6132259  33.0184054  82.1646500  73.0579901  32.5760055
  79.6101570  19.3140340  19.5546401  79.6177673  18.4257698  19.1980422
  79.0179062  19.7980833  18.9791691  13.0798757   8.1829572  43.0523920
  12.5909722   8.8695741  42.5987816  12.8323007   7.3753405  42.6021814
  55.9114981  27.5450039  21.5539050  55.9810877  28.4912992  21.4277506
  56.7069817  27.3077679  22.0305133  81.2535763  45.3061724  65.8161259
  80.7022572  44.5377159  65.9636116  80.6812954  45.9291124  65.3681660
  60.1855135  22.2607899   7.4425226  60.7502508  22.2733998   6.6697723
  59.3103218  22.0855331   7.0967424  22.7518535  15.3904533  43.6119175
  23.2783198  16.0601294  44.0484905  21.8630910  15.7458889  43.6133289
  28.3934164   9.2444229   3.0607593  28.8547611   8.4297329   3.2599384
  27.8014541   9.3718576   3.8020918  82.8698555  48.8602145   0.6065660
  82.5682750  49.6452273   1.0637718  82.1860615  48.6814333  -0.0389523
  61.3750029  51.2754297   5.6437898  61.0962963  50.7845592   6.4168376
  60.6236076  51.8272686   5.4267299  76.8952036  43.8079357  20.2223229
  76.3197184  43.2622051  20.7582569  77.7773190  43.4956455  20.4237628
  60.6706381  21.8825078   1.9136642  60.1140594  21.6194272   2.6466325
  61.1294889  22.6612067   2.2288024   3.0546913  13.6453664  49.5575476
   2.1983320  13.4600699  49.9429607   2.8695154  13.8185847  48.6345387
  39.9915600   1.9004229  62.3095036  39.0733147   1.7180003  62.5089550
  40.4790783   1.4733766  63.0139112  16.6969645  75.9345818  52.1599293
  16.9148016  75.2436924  51.5342760  17.0410466  75.6184006  52.9953146
  78.4468842  62.9514122  34.6150589  78.9770222  62.9914141  33.8190770
  78.0409479  63.8161182  34.6761775  39.6437621  75.8601856  59.6227503
  39.7237396  76.6893578  59.1512489  40.0852108  76.0158825  60.4576778
  15.3239679  64.7339249   4.3220887  15.9594786  64.2333460   3.8104486
  14.5693994  64.8281574   3.7407291  47.7712202  75.0910521  64.0230417
  48.4536552  74.4917345  63.7208319  47.9418373  75.1958704  64.9590635
  50.9453726  48.8342857  64.5768261  51.7675972  48.5192156  64.2014503
  50.3791046  48.0627584  64.5948029   4.1775915  59.0444613  11.0379314
   3.8663882  59.6555281  10.3701127   5.1254427  59.0108585  10.9087813
   5.7161367  71.3122082  33.5071254   5.9477776  71.4879513  32.5951552
   5.5906975  70.3639746  33.5439229  18.9301634  68.8887501  17.8598249
  18.4670937  69.6012115  18.3005023  19.8560524  69.1162395  17.9447174
  45.4330063  43.1846619  60.5806303  46.0019970  43.9438343  60.7076645
  45.7613039  42.7701330  59.7827435  22.4428558  13.2826328  55.0371981
  21.6419005  13.2078385  54.5184422  23.1142068  12.8569937  54.5039511
  10.6903183   6.7520982  60.1597691  10.5254292   6.5484560  61.0804033
  10.8682251   7.6925755  60.1506376   8.5038358   3.2203022  46.6013765
   9.3092185   2.7139312  46.7071104   8.6686468   3.7761557  45.8397388
  42.5912189  40.0459528  47.7177382  43.1230021  39.7936225  46.9629097
  43.2078075  40.0645065  48.4496593  46.2871838  64.2212296  24.3055058
  46.2767553  63.3208084  23.9809084  46.7483950  64.1687298  25.1426196
  68.6130476  50.2986479  66.4451694  69.1647053  50.0858259  65.6924295
  68.4221458  51.2313747  66.3461256  41.9290543  69.3957806   8.2460499
  42.6322317  69.7055912   8.8168359  42.3711729  68.8492918   7.5963485
  13.3546579  52.7882671  25.4566741  12.4401319  52.5334120  25.3345108
  13.3164001  53.7184477  25.6792140  28.9535522  35.9876180  50.7603121
  28.5675263  36.7569613  50.3415966  29.2858434  35.4607821  50.0334978
  18.5504556  37.2976780  61.0031319  19.0697956  37.8274035  60.3982306
  18.6089897  36.4084673  60.6536913  14.5891476  71.5823984   4.9306116
  14.6361423  71.2537718   4.0328199  14.4435537  72.5234985   4.8338738
  76.7634106  61.4880228  51.5752220  77.3227739  61.3582993  52.3410606
  76.0727739  60.8319521  51.6691685  73.0041838  61.4214468  44.2899323
  73.5023069  61.4697170  45.1058817  73.6697054  61.4320660  43.6020374
  47.6745033  66.7854929  14.6646810  48.5933447  66.5731573  14.8286164
  47.5487185  67.6397848  15.0777125  47.7419996  25.4859900  53.2889175
  48.4476042  24.8977423  53.5578346  47.4611902  25.1498103  52.4378252
  56.7580938   8.3334011  52.7263451  56.7701387   7.6258796  53.3709383
  57.4593115   8.9226663  53.0043697   0.9272203  11.7591381  12.5530922
   0.3058731  11.5425634  11.8579268   0.7466502  11.1208177  13.2431448
   6.1836666   3.6174646   9.8715258   6.0947710   4.4642562  10.3088737
   5.7554340   3.7393990   9.0241885  26.1330318  40.2988577  16.7185569
  26.9809198  40.6305170  16.4230561  26.3441324  39.7219706  17.4526322
  37.6299000  43.2942820  58.3285284  38.4122109  42.8157806  58.6028576
  37.1490812  43.4530067  59.1408396  20.8109593  46.5858221   8.8735002
  21.0808158  46.8801594   9.7434276  20.0014377  46.0983324   9.0260190
  61.9735479  59.6829319  16.3278055  62.8832722  59.8366404  16.0728347
  61.7502213  58.8440847  15.9244549  45.9119225  19.0472925  43.8039398
  45.6515694  18.8797450  42.8981924  46.8305731  18.7811315  43.8422298
  25.7490182   8.9401722   7.5789130  25.9228921   9.3056792   8.4463257
  24.9757147   8.3895630   7.7016318  80.0650883  22.9185629   6.2529445
  79.2613745  22.5139666   5.9264874  79.9661779  23.8480449   6.0467649
  36.4031219  29.4611001  60.4430485  36.0568166  30.2578616  60.0412083
  37.1287799  29.7640204  60.9888411  44.5830011  46.3990021  62.9569626
  45.3386402  46.0691786  63.4432268  44.1669989  47.0210218  63.5538435
  64.8305035  74.8532534  20.5163240  65.2592373  74.3849850  19.7999835
  65.4487896  75.5439186  20.7549310  23.6059499  29.3698645  45.8530951
  24.4344378  29.3431830  45.3744221  23.6522293  28.6259151  46.4536190
  60.1136541  46.7732668  19.5139647  59.9704409  46.4883661  20.4164910
  60.8442402  46.2366676  19.2064857  67.6841831   3.6475134  24.6690226
  66.8046188   3.5114959  25.0212884  68.0428028   2.7652442  24.5729733
   2.3540115  50.0418615  24.6313024   2.9915002  49.3370152  24.5171380
   1.5675044  49.7280645  24.1850185  18.3065164  33.1220222  38.9631510
  18.4642839  33.7572622  38.2647181  18.5647142  32.2813821  38.5851431
  66.7314196  14.1207600  55.8397532  67.4492502  13.9105773  56.4370584
  65.9712172  13.6741269  56.2123680  67.8414869   6.6664481   7.1520334
  68.2223654   7.2396177   6.4867210  67.9213047   5.7863832   6.7841387
  54.1508818  19.5930898  47.5997686  54.5153236  18.8100803  48.0124521
  53.5423613  19.9450576  48.2494259  52.3597002  14.2114449  63.2598114
  52.3522615  13.7784278  64.1134357  52.6882505  15.0920832  63.4408188
   4.3096313  51.5907717   5.3533727   3.6242163  52.0457411   5.8427018
   5.1043171  52.0943499   5.5297726  77.9887772  10.0726986  33.6954665
  78.1316710   9.1458791  33.8873458  77.5550127  10.4149997  34.4770741
  43.7058687  40.0567627  66.5971899  44.2894125  39.9679589  67.3507261
  43.5984135  41.0015678  66.4874983  67.8254795   8.8780528  62.0156479
  68.0424213   9.7936839  62.1911144  68.5270739   8.3808613  62.4361229
  70.8060169  27.5057292  57.9760695  70.6417179  27.7705050  58.8811255
  71.0240412  28.3207393  57.5239038   2.6117364  14.0880287  33.0374193
   2.6102668  13.1373715  32.9257059   3.5069233  14.3526852  32.8256917
  56.8074274  66.0004473  16.9681728  56.8494654  65.1662350  17.4356699
  55.8756685  66.1286831  16.7903876  41.9126272  55.8116674  53.3167267
  41.0314798  56.0253048  53.0098486  42.4448586  55.7912874  52.5214005
  37.7990389  31.6549730  53.4007549  37.4393606  32.4851155  53.0881405
  38.7223363  31.8425131  53.5698271  33.9248252  17.5471485  64.6358967
  33.8869810  16.6030204  64.7889423  34.2093372  17.6310444  63.7258148
  50.7976055  56.3229418  34.2645144  50.0881529  56.2849188  34.9059677
  50.4551744  56.8744183  33.5610628  79.3819666  15.4949319  11.8681526
  80.1137161  15.8435190  12.3773229  79.5495701  14.5536804  11.8214118
  13.8806915  58.1608200   0.7814811  14.0581977  58.9342451   0.2461835
  12.9281986  58.0683994   0.7603799  21.9104494   4.5796859   1.1580807
  21.9020809   5.1952302   0.4250961  22.4185147   3.8339317   0.8387857
  68.1506586  18.0912960  55.3797531  67.5019693  18.5417867  55.9205770
  67.7405119  18.0272448  54.5172501  59.4043446  12.2594213  65.3152180
  58.7094307  11.6232181  65.1461935  60.0650549  12.0754933  64.6474934
  32.3010159  35.2297473  50.1481915  31.9902515  36.1018085  50.3914356
  32.3241854  34.7449803  50.9732342   5.1235235  10.1023197  43.1397963
   4.6461558   9.3465251  43.4820318   4.7777486  10.2236354  42.2555161
  39.1104507  21.9712782  64.6312284  39.6859193  21.8080282  63.8839531
  38.4399414  21.2908816  64.5703125  56.3824701  21.8909240  63.2817698
  56.1743832  20.9813476  63.4953165  56.9855642  22.1670294  63.9718914
  75.8406115  42.7758455  33.8527298  75.9454250  41.8731689  34.1534376
  74.9675274  43.0284643  34.1529632  79.8472691  52.6476908   7.2743094
  80.2284622  52.9036999   8.1141800  79.5264530  53.4669113   6.8972319
  62.0627975  53.4655762  64.2223835  62.2638559  53.1388474  65.0993395
  61.5656424  52.7583313  63.8114405  39.9759865  57.8941011  42.5333071
  40.8362150  57.7505398  42.1388149  40.0670528  58.7170935  43.0135393
  32.4686646  30.1007581  48.8051653  31.9482303  30.8203173  49.1623974
  32.5208449  30.2854490  47.8674030  51.8332529  46.7958784  15.5944371
  52.4381733  47.3194981  16.1199141  51.8629074  45.9253883  15.9914231
   2.1191554  53.9442825  27.1076226   2.9723379  53.7129402  26.7404795
   2.2727153  54.0053368  28.0504489  36.7585731  18.1790102  57.1332359
  36.9477987  18.5667408  57.9876900  36.2701344  17.3809743  57.3352242
  66.0987759   7.2476965  60.4183817  66.1465836   6.4328909  60.9184217
  66.7219973   7.8312325  60.8511782  62.3411274  61.8923569  51.0097551
  62.1831417  62.7706575  50.6635475  63.2654572  61.7250633  50.8257484
  45.6246328  18.6564732  50.7895422  46.4876938  19.0328395  50.6171751
  45.3132057  18.3684945  49.9314547  75.4789877  53.3277369  50.4014015
  76.3367319  52.9180861  50.2887630  74.9401474  52.9503155  49.7061062
  15.0069654   2.8443876  21.7076731  15.9376442   3.0441079  21.8085718
  14.9405158   2.4441120  20.8407259  70.8848095  55.4114771   3.4182110
  70.6742620  55.9829092   4.1567034  71.8377256  55.4600048   3.3418968
   4.8187569  44.0844488  24.5474124   4.5616812  43.7624645  23.6834264
   4.3273285  43.5395288  25.1620626  81.0635948  42.0663214  40.4389191
  80.9857464  41.2630653  40.9536552  80.5862904  41.8799067  39.6304297
  30.4188967  10.7288885  13.6287749  30.1978374  10.0444341  14.2603505
  31.3188004  10.5327177  13.3681595  37.4320698  11.6129816   3.1209639
  36.4793825  11.5377951   3.1753901  37.6163983  12.5153494   3.3817104
  73.2403231  69.1620684  27.9136419  72.8940296  68.7973833  28.7280846
  72.5019407  69.6352434  27.5300694  66.4501429  52.0427799  27.2171831
  66.1117792  51.1682463  27.4093509  66.5358782  52.4601126  28.0743408
  18.9555037  77.2115660  10.0083888  19.4820750  76.6456938  10.5729616
  19.3831551  77.1617222   9.1534847  17.5854623   8.8099593   8.8982666
  18.0705702   9.0546906   9.6863073  18.1420541   9.0987098   8.1750369
  26.4846301  42.6416540  62.0243597  26.9401741  42.8812361  61.2173223
  25.5913901  42.9621744  61.8993855  39.0216231   9.4352406  61.9695139
  39.0088725   8.5701478  61.5600204  39.2497540   9.2643547  62.8832912
  71.3242960  37.3917580  17.6067030  72.0975828  37.9192543  17.4066794
  70.7872772  37.9555178  18.1634951  81.2120914  65.9109402  11.3545132
  80.8367443  66.3835907  10.6115794  80.6587601  66.1534786  12.0969594
  12.2604847  44.7603750  30.8668232  11.4375830  44.3837166  31.1785817
  12.0161974  45.6210041  30.5264211  18.1803334  12.1669316  46.9791126
  18.7945032  12.7604401  47.4112892  18.5877395  11.3040602  47.0546484
  75.7102203  44.9959135   1.5768051  74.9869919  44.3885946   1.7328109
  75.3044796  45.8625555   1.6000642  57.4623775  15.3199697  26.8450499
  56.6385889  14.9539888  26.5230823  57.2833395  15.5465460  27.7576494
  64.4244194  26.5625763  59.6350431  63.8065100  26.1888623  60.2633429
  63.9631414  26.5297389  58.7969685  40.0403166   8.2393098  26.0386205
  40.5289316   7.4178803  26.0909915  40.4990721   8.8294142  26.6365790
  24.4820714  45.2633858  13.4801507  23.6049056  44.9124575  13.3263350
  24.5444107  46.0176992  12.8941870   3.3815214  60.8613396   4.8644033
   4.0722781  60.2884436   5.1973850   2.8309470  60.2878284   4.3313122
  42.4351263  54.3953228  46.7656994  42.6418161  54.8073864  45.9268236
  42.2020912  55.1248407  47.3399210  69.5445395  61.0872316  28.8780928
  69.4466066  60.9824133  27.9317021  70.4765129  60.9409237  29.0401053
  24.9122834  12.7571261  44.9186707  25.1202321  12.2872043  44.1111088
  25.2637148  13.6367989  44.7811794  76.3521910  47.5194502  63.8486385
  75.9164000  47.9693079  64.5724821  77.1127844  47.0997810  64.2506456
  65.5886698  27.3021054  31.1168456  65.3418159  26.3847733  31.2343073
  64.9403381  27.6479435  30.5034137  54.2794847  66.7785358  62.3937130
  53.4986496  66.5701008  61.8807983  54.9341631  66.1441517  62.1018457
  50.7759285  24.2552352  58.0937338  51.2666702  23.4729242  57.8419542
  49.9331045  24.1625404  57.6495743  68.7851954  31.1107540  64.9937010
  68.4324026  31.6361666  65.7118320  68.6976099  30.2059221  65.2934408
  62.4469963  51.6411043   0.5356031  62.6106659  51.7320932  -0.4031033
  63.2822171  51.3439919   0.8966594  26.9753289   9.5395041  53.7959909
  26.9548988  10.2975154  53.2118416  27.9008055   9.3001896  53.8455486
  71.1392975  66.2776327  12.0728457  70.8599615  67.0515728  11.5837431
  70.5266333  66.2238121  12.8063178  50.5235815  44.4467688   6.2056023
  49.7352171  44.8629284   6.5541995  51.0695934  45.1761055   5.9120530
  67.7125406  30.6198978  55.3469849  67.8492880  30.3310442  56.2492561
  67.9651594  29.8664403  54.8133945  34.0591311  21.4711404  46.0154057
  33.2426405  21.9445539  46.1749554  34.6786737  21.8440199  46.6425896
  56.1886644  64.8516417   8.1279665  55.6655121  64.0500927   8.1355494
  56.9090986  64.6731663   8.7324113  74.5721483  66.8394995  61.5282726
  75.1662016  67.5253010  61.2233019  73.9022017  67.3072481  62.0268869
  63.0774832  57.2356939   7.6001769  62.2007656  57.1309996   7.2305286
  63.3687401  58.0920553   7.2870541  61.7678452   0.4970837  12.5701010
  61.1057806  -0.1774831  12.7213013  62.5862885   0.1006192  12.8687692
  16.1981642   1.4528027   3.7870803  16.7611277   1.9065909   4.4142812
  15.4778671   1.1099789   4.3161124  -0.0019348  40.9641695  17.7347922
   0.3257322  41.4598274  16.9843328   0.6951050  41.0292053  18.3875847
  61.4546394   9.0973538  21.3217688  61.5676832   9.5543098  20.4883170
  62.0051098   8.3181167  21.2442732  31.7726183  70.7969952  38.3954525
  31.8324018  70.8045483  39.3507528  32.6475978  70.5421305  38.1027222
  48.0863333  49.3198109   8.1432718  48.8307571  49.9103165   8.2588774
  47.6987696  49.5835352   7.3087221  14.2449737  33.1794119  60.2482939
  14.7556055  32.4688029  59.8603201  14.8512709  33.6078143  60.8525324
   1.8555064  74.2942905  37.2764945   1.4966342  74.9849319  37.8336811
   2.6055744  73.9569807  37.7662396  52.2479296  24.0249681  61.3096428
  52.6999092  24.7323632  60.8497143  51.4593887  23.8671541  60.7904816
  32.7553821  25.5962229  25.1476860  32.6792407  24.9478936  25.8477616
  31.9348788  26.0876775  25.1860952  46.5510082  36.4569139  52.0045900
  45.8511829  35.8258986  51.8363667  46.2585592  37.2596478  51.5729427
  56.6313076  39.7647834  20.2049685  57.3712111  39.1639066  20.2928543
  55.8965206  39.3001032  20.6054497  25.9741616  30.5465817  26.2602115
  25.1075745  30.4571605  26.6567755  26.4292169  31.1769152  26.8186378
  68.3558846  56.5232706  29.8317194  68.7695599  57.0639133  30.5046296
  68.7345219  55.6531620  29.9573255  63.1991863  38.3863497   5.3187859
  64.0482807  38.7918782   5.4943401  63.3702040  37.7719235   4.6050179
  63.0767488  55.0445223   0.6672520  62.8694820  55.8577585   0.2069085
  62.2289801  54.7159338   0.9665011  82.0806529   7.7847821  28.6255479
  82.5008113   7.3508048  27.8830099  81.1814962   7.4566340  28.6173081
  10.6741261  70.8366251   2.6522014  10.9361529  71.6616488   3.0607489
  10.2993667  70.3233242   3.3679590   8.8620073  21.9190645   5.5472916
   9.5025051  22.5542736   5.2271259   9.3334478  21.4183521   6.2130708
  48.4457397  48.2876778  59.7153902  48.0445671  48.9428520  59.1443920
  48.0324125  48.4272194  60.5674028  16.1734605  29.0947747  61.5912580
  16.5354776  28.7218738  60.7874441  16.3231897  28.4223652  62.2558498
  78.0342293  43.8274336  13.2746851  78.6535120  44.1630316  13.9228344
  78.5807467  43.3702469  12.6355183  68.5139275  67.5591326   6.9702500
  67.9722118  68.3138561   7.2008294  69.4121170  67.8544569   7.1194786
  10.1204407   3.0723360   4.6818390  10.2751398   3.1493679   3.7403688
  10.8248067   3.5816118   5.0827610  78.1432772  58.6597300  23.4890556
  78.2104397  57.7467632  23.7687159  79.0390825  58.9928770  23.5417056
   8.5008126  45.0868797  19.4117749   8.5793477  44.2608976  18.9344704
   7.7795029  45.5450773  18.9804983  46.5257978  14.8755682  54.5425749
  45.9484673  14.8780167  53.7790823  47.1836710  15.5429423  54.3475294
  68.1502819  11.7064881   0.2534904  68.9683628  11.8749595   0.7210279
  67.7491570  10.9780335   0.7274997  55.2960348  32.7512312  66.9361258
  54.6005630  32.4757147  67.5333214  55.3918076  32.0197010  66.3262701
  47.2987127  37.3185039  12.8136802  47.0610332  38.2249761  13.0087435
  46.4609146  36.8606257  12.7453232   7.6883918  72.1976137   5.9357882
   7.3566121  71.6857338   6.6734415   8.2506025  72.8600073   6.3375157
  81.2040138  72.1366119   3.3064505  81.2804317  71.5247488   4.0385813
  80.8873177  72.9476357   3.7041607   6.1079657  68.6078072  56.0078335
   5.4834831  67.9127693  56.2156153   5.9090811  68.8456249  55.1022291
  68.0744314  50.8799791   9.3941402  68.5379791  51.1893892   8.6159241
  68.6635494  51.0835552  10.1205885  49.6547842  48.4426403  14.2651463
  49.2044401  47.6528740  13.9656687  50.5527210  48.1570292  14.4335914
  76.3650084  54.1526175   8.8384736  76.3632059  54.5256329   7.9569477
  77.2734833  53.8892460   8.9852470  38.8899279  58.6986399  15.6531048
  38.6209416  59.5388031  15.2816129  38.0715179  58.2853317  15.9280849
  25.4314113  53.1063604  23.1400275  24.6679378  53.5582066  23.4994411
  26.1796188  53.5234070  23.5672164  52.5413418  61.2686825   2.3084277
  52.8482771  61.7408276   3.0824462  52.4488115  61.9443607   1.6367674
  60.0175714  45.2129650  47.0953608  60.7196617  45.8624792  47.0575428
  60.2972364  44.5226860  46.4940834  74.1451836  53.6056423  33.1328201
  74.5009041  53.1170368  32.3905563  74.2439795  54.5246649  32.8840709
  74.5747328  21.6888022  37.1698594  74.7305632  22.6302695  37.0951033
  74.2112303  21.4380217  36.3206220  50.8481312  67.6915646  52.7477741
  51.4757252  68.3242798  52.3984480  49.9988937  67.9937983  52.4257660
  45.1712847  35.7763696  12.3818350  45.7820988  35.0492120  12.5017321
  44.5366669  35.4531240  11.7423010  78.6291695   7.6036912  64.9305630
  78.4413004   6.8448812  65.4829597  78.2638502   7.3742336  64.0760899
  47.9711580  39.1588902  65.4044580  48.1696081  39.9631834  65.8840036
  48.6671972  38.5519671  65.6562662  34.1395116  71.6493034  44.9927568
  34.5532179  71.1507130  44.2881393  34.6054506  71.3780165  45.7836628
  43.4037352  70.1124573  48.8517952  42.5748777  70.5876970  48.9099073
  43.9043856  70.4103661  49.6112919  54.0065718   7.3231739  28.0150914
  54.5062304   6.5817612  27.6732063  54.5580149   8.0854058  27.8386045
  14.5980859   5.6013417  14.5097733  14.1694188   5.5046326  13.6594069
  15.2923274   4.9423796  14.5043528  56.6857338  19.9475193  58.4675884
  56.2393904  20.1969981  59.2767668  56.0246325  20.0607538  57.7846861
  72.4942732  31.5597963  44.7497082  71.8255138  32.0302629  44.2520571
  72.1773577  30.6571960  44.7829819  52.7670527  31.5534472  49.6038866
  52.1877337  30.8296442  49.8420572  53.3988523  31.6006136  50.3214121
  34.5534825  74.5487452   8.2098842  33.7308931  75.0382090   8.2072651
  35.2314520  75.2201557   8.2860559  55.3446913  73.2438517  57.1076298
  56.1777830  73.7028074  57.0001507  54.9394035  73.2770729  56.2411022
  10.1410592  32.3971224  46.6051579   9.2480397  32.5363779  46.2899494
  10.1838076  31.4604330  46.7975616  56.9556236  75.4705429  16.2240076
  57.0496130  75.6267881  17.1636796  56.3883638  74.7018290  16.1645865
  65.0458956   6.2815875  46.4906073  64.5504856   6.1792022  47.3032045
  65.4816484   7.1290517  46.5809107  18.9440095  62.3413324  12.3765922
  19.6404994  61.9409657  11.8561685  19.3170679  62.4218893  13.2544136
  25.0088668  21.8354082  21.0739779  25.1450729  21.1845684  20.3854370
  24.5527506  21.3586044  21.7674112  77.9657269  75.1472282   8.1416368
  78.0223083  75.7104158   8.9135498  78.8095045  75.2564812   7.7030730
  15.8112705  73.0231524  24.4516420  16.3543069  72.2811031  24.1857362
  16.0437465  73.1739187  25.3678608  53.5429096  46.1865568  17.6398051
  53.6856174  46.3917923  18.5637879  54.0566349  45.3931761  17.4885666
  44.4360304  25.9384084  40.0131941  44.9772263  26.3910174  40.6601000
  44.3622875  26.5577888  39.2871380   4.0680221  54.8976851  51.1966562
   4.9799648  54.9233103  51.4863729   3.5814753  55.3298426  51.8986130
  23.1197500  31.0025525  60.0857496  22.4256706  30.3434038  60.0834751
  22.6601720  31.8346834  59.9735975  16.1064065   8.8019645  59.1403151
  16.9371986   8.6309958  59.5839167  15.7956421   9.6229589  59.5219231
  11.9705892   6.0761595  25.4805517  11.7742944   5.9061986  24.5592403
  12.8926218   6.3331884  25.4855275   9.3642387  78.1263057  11.6709745
   9.8419937  77.5496372  11.0747921   8.4963617  78.2126243  11.2765479
  40.2961636  49.8794365  60.7076550  40.2522039  49.8687696  61.6637850
  40.9734106  49.2383432  60.4918623   1.8696640  74.1583872  28.3318067
   1.3577053  73.7719488  27.6213193   1.2155771  74.4534111  28.9653397
  49.6802616  34.0338993  54.3323898  49.6419334  34.9892426  54.2867470
  50.3221846  33.7878537  53.6663342  50.5217600  77.1963930  34.7989035
  50.0380373  76.3787603  34.9160242  50.6794071  77.5110340  35.6890607
  33.7542272  39.3367910  54.8573828  33.9173293  38.6271763  55.4787350
  34.3864417  40.0145531  55.0964975  47.1200705  19.3883467  12.9570103
  46.9369650  18.4823608  13.2057929  47.4915075  19.7829866  13.7460124
  45.0975704  12.1570837   7.0344812  44.3861055  11.5256143   7.1407771
  44.6599102  13.0077434   7.0018148  27.4902368  12.7968979  25.2510738
  26.6798568  12.4277472  25.6021357  27.3622465  13.7443006  25.2987957
  44.2531347  19.5169485  52.8995609  44.7670126  19.2182875  53.6498690
  44.6617126  19.0924227  52.1451902  58.7260425   7.0742929  -0.2915425
  57.7750868   6.9816244  -0.2338452  58.9830834   7.4380576   0.5557113
  37.8676224  28.5417819   4.6154708  37.5870204  28.1714845   3.7785867
  38.4089422  27.8582191   5.0103718  69.6163130  33.3674884  57.4163294
  69.9352121  33.7841177  56.6157341  69.1263199  32.6042676  57.1103334
   9.9977851  56.0122061  41.0233116  10.0145471  56.7991495  41.5679836
   9.5587116  56.2872839  40.2184677  21.3153315  50.7421589  39.3225431
  20.9100413  49.9967194  38.8794923  20.7560754  51.4863014  39.0995646
  61.8863773  16.4419484  65.5013227  61.3355732  17.1720111  65.7839108
  62.7709532  16.8065286  65.4723024  60.2138042  43.6817455  60.8180523
  59.6259785  44.2837048  61.2744904  59.8699188  42.8116655  61.0203695
   5.3761786   1.7170091   2.0513387   5.9172493   1.0898790   2.5311118
   4.9328876   1.1909425   1.3857719  46.1423969  58.1602621  66.1266088
  46.2808371  58.0663347  65.1841450  45.3804064  58.7348175  66.2006760
  54.8321867  16.3631105  25.4880357  54.4350576  16.3375545  26.3585901
  54.2613316  16.9406009  24.9812222  24.4916701  15.6917202  55.0632954
  25.3750968  16.0543931  54.9980450  24.4980240  15.1908481  55.8789635
  43.3220434  69.7654867  31.4221931  42.3875380  69.5601654  31.3943362
  43.7392044  68.9469528  31.6909194  64.6950531  56.0532761  53.0481434
  64.3275118  55.6779337  52.2479773  64.8096180  55.3044701  53.6332846
  57.8920937  18.8643193   7.8167593  58.3288717  18.0592108   7.5388056
  58.3400583  19.1129625   8.6252987   2.0850658  64.2984581   2.2489969
   1.1938155  64.1236305   1.9467714   2.2525661  65.2044630   1.9895238
  26.3121343   1.7636183  51.7079401  26.2293100   2.7172250  51.7104959
  27.1050406   1.5907103  52.2155190  75.2429247  48.7713385  60.7697487
  75.0650311  49.7116232  60.7908440  75.6238270  48.5803556  61.6268778
  43.4806824  65.5871582  56.1269617  44.4189405  65.6724596  56.2961531
  43.0638695  65.8691692  56.9411898  82.2825527  33.1208467  11.7965639
  81.7542839  33.5802817  12.4493182  81.6959763  32.4536037  11.4402699
  26.4757919   4.7421581   8.8818854  26.5467048   4.5442009   9.8157030
  26.7916703   5.6423038   8.8032085  48.4954548   4.5054424  50.1484632
  49.3072462   4.9473846  50.3972912  48.7021255   3.5728022  50.2093077
  41.8649054  23.3699322   8.9436585  42.7384424  22.9931855   8.8376868
  41.8880081  23.7902093   9.8033482  61.0341215  54.0288877  29.0461349
  61.7673635  54.3768024  29.5536232  60.3429604  53.8840246  29.6923113
  76.9810581  75.3829288  17.1435368  76.2869978  74.8670006  16.7332637
  76.8618870  75.2408600  18.0826032  74.1970825  29.1527224  58.2968378
  73.3705854  29.6355605  58.2963896  74.8091125  29.7251129  57.8342104
  54.2140818  30.4743290  58.1061554  55.0643492  30.1454973  58.3979654
  53.7523365  29.6975231  57.7905703  49.3657064  73.6245012  62.0044136
  49.4090509  72.6686573  62.0311546  49.1886234  73.8306475  61.0866022
  53.2232094  70.6124783  41.1705971  53.5084820  71.5250492  41.2160397
  52.4591732  70.5714560  41.7457438   5.8489007  53.3562195  66.8830578
   6.6432732  53.8877332  66.8311131   5.7772273  53.1224489  67.8085015
  47.2044897   8.2042241  14.2215085  47.0922041   8.0176997  15.1536202
  47.2006941   7.3434472  13.8028431  68.4212971  54.6601772  50.1723385
  69.2854166  54.7683430  49.7750616  67.8535461  54.4052362  49.4450855
  38.5051250  44.4201517   2.1518555  39.2353749  44.9646044   1.8576828
  38.1889462  44.8519421   2.9454699  52.9412746  63.2284784  61.1506796
  53.2122517  63.1437254  62.0648050  52.8740788  62.3269081  60.8362103
  77.6597786   0.8590240   6.7914796  77.2318649   0.0848930   7.1573275
  77.2684050   0.9615388   5.9239817   3.0898970  59.9007845  28.0173469
   2.2806937  60.2420139  27.6365781   2.7973661  59.2866325  28.6907506
  50.8431196  55.1178503  47.6493931  51.0999107  55.9807158  47.9745865
  51.2701464  55.0468159  46.7956734  56.7595482  11.6717124  19.5915055
  57.2428703  11.9994915  18.8330925  57.2976303  10.9545672  19.9267638
  24.9740624  12.1265543   7.2842258  24.9737906  13.0766356   7.1677071
  25.5598593  11.9764113   8.0262035  77.3228407  71.7254257  54.6874380
  77.9776716  72.1914864  55.2072573  77.1989202  72.2726154  53.9119005
  71.5459919  68.8005590   7.0155138  71.7318344  69.6153259   7.4822533
  72.4045086  68.3975649   6.8859726   9.7022134  69.4972992  28.7586641
   8.9104640  68.9804173  28.6096764  10.2713060  69.2821217  28.0197048
  71.6980553   2.8401119  53.7135744  70.8408403   2.5205576  53.4319592
  72.0798731   3.2274535  52.9259109  60.0649977  50.0142384  40.2594948
  60.2824974  50.9360218  40.1207685  60.6596136  49.7296667  40.9535265
  30.2517295   4.8935062  61.8852806  29.6033597   4.6140078  62.5316000
  30.0716591   4.3529209  61.1161423  82.0907946  57.5610399  42.7996922
  82.7508485  56.8709278  42.8653145  82.5588897  58.3630371  43.0319071
  32.3869276   4.6920580  45.7651281  33.3287621   4.8388931  45.6778526
  31.9873953   5.4959810  45.4329920  40.0225019  10.7536960  40.1134920
  40.5458164  11.3518310  39.5800042  39.3275404  11.3025296  40.4768658
  32.9299927   7.1714020  13.3978391  33.2080030   8.0621380  13.1844580
  33.7364125   6.6563362  13.3728433  46.8404627  13.7381780  30.7952023
  46.9839096  13.2246137  30.0002766  47.7204180  13.9179969  31.1262250
  55.9273338  72.7366734  14.9348390  56.6337490  72.9687643  14.3320584
  56.3251686  72.1114302  15.5406713  50.0116444  60.3417969  53.2002449
  49.4862938  60.4264402  52.4045849  50.2987671  61.2341785  53.3937407
  82.3815897   7.1386313  16.4391649  82.6192072   6.8182439  15.5690372
  82.7009350   6.4638817  17.0383000   6.1798811   3.7323993  27.9354119
   6.0741091   3.6228049  26.9904089   5.5838460   4.4463056  28.1619358
  59.4905853  35.8560801  55.8841753  58.9268017  35.2487326  56.3632536
  59.8411942  35.3371143  55.1603127  63.1126976  31.8159246  48.7653017
  63.1203985  31.3795996  49.6172333  63.6739635  31.2721086  48.2125998
  60.9270716  56.8617010  12.3241842  61.0971546  57.0673656  11.4049423
  61.7897749  56.6648102  12.6891553  33.2101957  70.2905834  67.1769013
  33.0852525  70.7183850  68.0240182  34.1601769  70.2504814  67.0666316
  66.6715717  59.2154741   6.4746302  66.2523651  58.4437847   6.8554056
  66.9042873  59.7579575   7.2281504  29.0416074  47.5566721   9.5032507
  29.6600246  46.8389082   9.6396559  29.1302085  48.1010914  10.2855480
  25.5457711  48.2911396  25.7093501  26.3805556  48.0899763  26.1323142
  25.7867956  48.5812235  24.8295832  76.9692707  57.0877552  57.7021408
  77.0170927  56.3490438  57.0953035  76.0469675  57.3437738  57.6955891
  58.7636042  17.6338279  11.9810915  59.4937801  17.0153809  12.0054901
  58.6717701  17.9318082  12.8860819  15.1741254  76.9582558  44.3552589
  15.6676495  76.1947823  44.0556383  14.3937516  76.5911245  44.7705412
  78.0179024  17.0888102  56.5955067  78.6462736  16.4428353  56.9181490
  78.5018492  17.5845909  55.9350300  42.2350502  54.1897202  16.6510713
  41.6409206  53.7503386  17.2594976  41.6798830  54.4391918  15.9122992
  65.5252504  70.4243422  54.7771215  65.0986242  69.5991039  55.0077915
  65.4554081  70.4717445  53.8236475   3.9969736  17.7520251   5.7764721
   4.1789612  18.5194302   5.2340674   3.5625684  17.1379125   5.1845354
  24.1832733  71.0294580   8.3716726  23.9087725  71.9134951   8.6153156
  23.7536311  70.8682346   7.5316447  11.0184419  15.6932247  38.3140516
  10.9649110  14.8206925  37.9241133  11.8366575  16.0569668  37.9757524
  47.1023321  40.5970240   9.4843441  46.7943859  39.7347140   9.7633147
  48.0290413  40.6093836   9.7237027  43.6848974  21.1760950  59.6924400
  43.0544710  21.6976094  59.1956329  43.9365005  20.4716706  59.0951824
  16.9026828  75.6487370  16.5727770  17.4152398  76.3622189  16.9528496
  16.5878153  75.1514864  17.3276508  30.3332353   9.0795946  18.7513340
  30.5707550   9.7402275  19.4020104  29.7036815   8.5159808  19.2010367
  64.0600204  44.2047644  58.2727575  63.2477236  44.5332003  57.8873539
  64.4259357  43.6264181  57.6035357  61.2945652  50.8493805  17.6621521
  62.0695782  50.3097343  17.8182495  60.5983067  50.2199554  17.4743187
   7.2655690   1.0876023  50.6178522   6.5942580   0.9686407  51.2897301
   6.8577695   1.6635433  49.9711514  70.1650143  32.8452063  46.5327978
  69.5280504  32.5425982  47.1800566  70.5439234  32.0419049  46.1759138
  55.4389143  76.5275240  62.7863789  54.8905516  76.0018206  62.2040033
  56.3205051  76.1734247  62.6695824  46.6070271  58.3449507  53.6361170
  46.5566397  58.8101149  54.4711733  46.4550543  57.4276257  53.8633966
  31.0185695  21.2519526   5.1856959  30.9837699  22.1592355   4.8826125
  30.4709435  20.7709813   4.5652103  56.4966106  60.4562426  52.9972744
  55.7248640  59.9068308  53.1343460  56.9386387  60.4644251  53.8462591
  63.9421129  17.8688669  66.5975714  63.6587954  18.3037674  67.4018240
  64.5941925  18.4606040  66.2222385   2.2725384  25.4157948  10.7199991
   1.5208830  24.9089694  10.4127955   2.6872426  24.8554945  11.3759840
  19.5597064  26.8081307   7.5823623  20.1155806  26.1366582   7.1869415
  19.2695379  27.3440266   6.8442219  75.2948666  34.6032834   1.2330735
  75.8171558  35.3771973   1.0221179  75.6259775  34.3154883   2.0838204
  78.3945942  59.9557447  60.5054140  79.1770315  60.5000162  60.4171133
  77.6860523  60.4964924  60.1564312  51.3357449  13.4367275  35.7629371
  51.9307566  14.1640425  35.9451580  50.4666471  13.8373780  35.7435369
  59.9962950  57.1125937  38.8211346  60.7483959  57.5801277  39.1844368
  60.3368759  56.6848898  38.0354452  43.4750462   1.8588541  18.3094442
  43.5941792   1.1376539  18.9274323  42.5264168   1.9757429  18.2577491
  52.0493174  37.5046825   4.9167159  51.2703609  37.5326920   5.4723024
  52.7282190  37.1257305   5.4750288  39.4454813  32.9210663   3.8944599
  38.7614012  32.4097204   4.3266523  39.7128534  32.3823333   3.1498036
   3.1686980   9.8421186  19.3168533   2.2633237   9.9597967  19.6043968
   3.6123234  10.6460154  19.5873702  67.0616627  66.0898113  51.5287447
  66.7535353  66.9687033  51.7497444  68.0018520  66.1138058  51.7067814
  72.6187277  19.6458852  53.2978392  72.2861385  20.3714347  52.7694464
  72.5478315  19.9551010  54.2009401  71.8277884   7.1956563  41.4217043
  70.9579945   7.4771535  41.1380625  72.3870611   7.3402631  40.6584644
  59.0750170   2.4628343  45.4030657  60.0319242   2.4410860  45.4125738
  58.8451385   2.4837647  44.4741154  38.3033156  63.8373184  29.7912550
  37.5824523  63.2112169  29.8589873  38.8788128  63.6202288  30.5246782
  32.5181699  30.8105397  46.2232113  32.3151565  31.6169930  45.7492399
  33.4647179  30.7070470  46.1253929  59.4133043  20.3309774  49.0606785
  59.1525269  21.2519598  49.0653419  58.5874796  19.8480535  49.0927744
  68.9010906  17.2247672  66.3419104  68.9721537  17.6941979  67.1730614
  69.0627813  17.8923130  65.6752253  74.1532755  14.8001921   0.4293569
  73.6434937  14.1846430  -0.0973823  73.5147047  15.1912463   1.0256262
  32.4138665  35.1249671  65.7467461  31.5450668  35.5051446  65.8766794
  32.2870898  34.4652486  65.0648880   6.4171153  57.3941422   8.2460326
   7.3227298  57.1140766   8.1131476   6.4802271  58.1251478   8.8607514
  62.2506046  23.6333394  15.1140225  61.5402555  23.7791252  15.7388306
  62.9696083  24.1758704  15.4379463  48.4661961  66.6929865  59.6759272
  48.3578777  65.8991003  60.1996088  48.9004707  67.3106194  60.2642870
  77.4128580  66.3955069   2.6754475  77.7727079  67.1111536   3.1994665
  77.2430563  65.6974030   3.3079386  52.1617365   4.6032923  47.9718685
  51.7439365   5.4185206  48.2495022  52.4743843   4.2055649  48.7844515
  69.9228668  63.4628820  39.6704364  69.2976952  63.9104128  40.2406168
  69.6361017  63.6801243  38.7834167  65.0559759  17.9709840  44.5895863
  65.0312853  18.8380146  44.9944067  65.9884310  17.7831709  44.4823885
  47.4870348  75.1163816  57.4472094  46.8625879  74.7278404  56.8345642
  48.3456707  74.8885107  57.0907593  58.3471966  51.3804960  58.6886644
  57.6786232  50.7008028  58.6034775  59.1703844  50.9324598  58.4941006
  53.5649729  57.7070284  65.8026934  53.2260799  57.0615005  66.4229202
  53.2469273  57.4100018  64.9501324  47.6027393  76.7122078  66.4449215
  46.8582058  77.2933578  66.6003799  47.3342991  75.8734703  66.8200111
  13.9829934  74.1246223  26.6443062  13.4503627  73.3296490  26.6677427
  14.8817182  73.8141108  26.7543435  27.8401327  13.8223898  66.7101336
  27.9698396  14.2772496  65.8779621  27.7216077  12.9045999  66.4654970
  29.8935795  46.6089344   4.5682985  30.3089476  45.8010244   4.8699340
  29.6931529  47.0895290   5.3714740  61.6884375  67.8580570  51.9979191
  62.4463558  67.9777479  51.4256716  62.0234966  68.0290794  52.8780985
  69.3605137  43.0550528  13.7115967  69.3746328  43.0161190  14.6679008
  68.5514593  43.5220337  13.5028160  68.4597254   0.8422777   3.2358631
  68.2705832   1.0270482   2.3159079  68.9252234   0.0060169   3.2214057
  73.3357286  52.1997309  63.3133984  74.1160679  52.7540827  63.3133841
  72.6048040  52.8150606  63.3712530  33.7690353  14.5005441  21.5359569
  33.0875540  14.9573481  22.0290542  34.2066717  13.9503419  22.1855593
   2.2551531  63.9206982  22.9948640   1.8396896  64.2098093  23.8072920
   1.6086763  63.3444548  22.5871348  55.3268337  66.6681623  50.6768942
  54.4050503  66.5267754  50.8926773  55.8072519  66.2156534  51.3701963
  68.3851242  43.5987043  40.8343172  67.8921890  44.3746519  41.1010551
  67.7910948  43.1264067  40.2509642  70.2532387  62.1869469  54.1375303
  70.9156656  62.5464630  53.5474682  70.5886364  61.3227415  54.3760490
  38.4677577  25.1662445  54.7937727  37.6358724  25.2350330  54.3252993
  39.1343260  25.2572250  54.1128635  60.8406305  51.8381453  54.2989206
  59.9234819  51.8476295  54.0250921  61.2830067  51.3078308  53.6361265
   6.4652103  16.3502765   5.0420386   5.6863838  16.8462682   5.2943349
   7.1967542  16.9327438   5.2465045  66.5080547  42.1085262  39.5331192
  65.9631586  41.3996840  39.8749661  66.3377476  42.1086168  38.5911918
  57.7364206  64.7345924  28.7158513  58.2301378  64.8677015  27.9066801
  58.4044743  64.6944284  29.4001913  73.9931059  76.8023872  14.2109799
  74.3754244  76.5203810  13.3799958  74.6549082  77.3765135  14.5965111
  18.8812435   6.9532079  19.2385066  18.5009909   7.5843823  19.8494554
  19.5077944   7.4638057  18.7257159  26.3126874   7.8279525  36.1720490
  26.4594221   7.8770292  37.1166611  25.5010200   8.3150697  36.0301185
  12.8558326  69.4754219   1.4248118  12.2447574  70.2098465   1.4834638
  12.4033046  68.8301086   0.8816534  54.7963858  52.1141005  21.8274021
  54.7393703  51.2548542  21.4094520  55.0095987  51.9225359  22.7406788
  75.9787607  51.9533205  34.7990155  76.4296150  52.7932549  34.8854899
  76.2870741  51.6008234  33.9642000  82.2016811  23.0986762  58.3805418
  81.4295769  22.5363588  58.3181858  82.9203796  22.5554085  58.0571890
  39.0812826  66.2384701  65.2428389  39.4768310  65.6635857  65.8980370
  38.1478024  66.2363148  65.4545879   9.1191483  73.9955139  40.7149553
   9.1421419  74.7053146  41.3567400   8.7010700  73.2686520  41.1766052
  72.9871082  53.6040545  47.2507286  72.3866510  53.6689997  47.9933310
  72.4326658  53.3389521  46.5168715  70.2981710  28.8782215  60.3370571
  70.7930422  28.9629769  61.1520147  69.6195078  29.5504832  60.3979349
  22.3292017  24.6881032   0.8288682  21.8400121  24.1439438   1.4459716
  22.0563459  25.5831933   1.0303444  52.5207090  64.0691185  47.9251528
  51.5918159  64.2371321  47.7665281  52.5603819  63.1407166  48.1547689
  78.9596081  23.2670450   3.0485585  79.3288231  22.5456691   3.5579997
  79.6888638  23.8760877   2.9324251  75.4462576  11.3758993  43.2749653
  75.4460478  10.9586143  42.4135065  75.6937695  10.6765234  43.8798141
  82.3307062  11.8315578  41.1244774  83.1269332  12.2672439  40.8204508
  82.2078079  12.1531892  42.0176077  69.4275236   9.8371291  40.1078415
  69.3250418  10.4310393  39.3641996  68.6192131   9.3245292  40.1181412
  66.0764742  43.0683565  49.1166639  66.7750025  43.4271479  48.5693407
  66.2222481  43.4595490  49.9780273  79.8256874  53.5182142  64.8873615
  80.1963997  53.6174059  65.7642698  79.3435049  54.3314505  64.7377777
  26.7338252  24.0193963  63.7370253  27.1788883  23.1869340  63.8956261
  27.1841311  24.6439028  64.3057489  63.7927818  47.2243500  55.3983688
  63.2302141  46.4632940  55.5416775  63.2590342  47.9712057  55.6695747
  34.4063449  33.0150080  49.8081541  34.6672940  33.8841462  50.1126766
  33.6856318  32.7650285  50.3863525  24.9989843  42.1140194   9.2802393
  25.5929255  41.7377567   8.6307091  24.8426700  43.0069876   8.9729822
  73.2191658  74.4659424  25.8900285  74.0491295  74.6351004  25.4441857
  72.8834057  75.3351641  26.1090016  17.4772775   4.0719548   1.3251144
  18.2015526   3.7703237   0.7767742  17.1144640   3.2714587   1.7043296
  21.7259550  42.4509764  56.2600803  22.4995160  42.0100069  55.9088230
  21.3999438  41.8590117  56.9379616  45.4491282  66.5434790  23.5298681
  45.8754683  65.6865501  23.5416245  44.5345640  66.3589382  23.7437582
  75.6003332  51.8267632  45.2416897  76.3764858  52.1320105  45.7114124
  75.9031582  51.6861773  44.3446016  54.8015594  69.5344353  50.8130836
  55.0873804  68.6514044  50.5789995  55.4753733  69.8529387  51.4137173
  56.8397045  65.4836702  63.7841892  56.5898228  66.1956024  64.3732023
  57.6820230  65.7575560  63.4212637  70.6796741  68.6591816  35.9203982
  70.3396177  69.5276499  35.7050943  71.5317297  68.6211109  35.4859066
  12.6926172   0.3257591  10.1129866  12.8209889  -0.0583950  10.9802687
  12.9626083   1.2386275  10.2130258  42.9234362  37.9457545   2.9238182
  43.1864738  38.8305187   3.1772566  41.9918633  38.0226374   2.7176762
  34.3466330  62.6701689  63.8970470  34.4828081  63.2438707  63.1430197
  34.1557074  61.8135881  63.5148811  52.4922705   5.1354599  15.3316855
  52.4108887   4.2857495  14.8985565  53.2607031   5.5379426  14.9270236
   9.3884748  51.0271597   3.6557910   9.1444749  50.7190418   4.5285794
   8.7110800  51.6641521   3.4286150  55.5274963  28.8195300  50.8956575
  55.2370024  28.0769110  50.3661633  56.3921642  29.0379119  50.5479765
  47.3592482  56.1898935  67.5101932  47.3023079  57.1291578  67.3347695
  47.5837074  55.8014894  66.6646209  39.5948792  66.9919157  24.9117899
  38.8673997  67.1460009  25.5145001  39.8331928  66.0757160  25.0532866
  28.8606429  57.7341032   1.6250561  28.1054330  57.9497433   1.0778892
  29.3690944  57.1168518   1.0990204  11.2953889   2.2695707  16.6826057
  10.5586314   2.8786141  16.6327417  11.8380487   2.6079091  17.3948419
  80.3597069  37.4478841  66.0115051  79.9970627  37.0614815  65.2143812
  79.6364355  37.4272799  66.6381502  16.7505753  16.4234996  48.8095856
  16.3264751  17.1663809  49.2391157  16.1295974  16.1509776  48.1340456
  77.8470039  54.6600199  44.7551727  77.4328661  55.3783798  45.2333832
  78.4964657  54.3095064  45.3647375  47.8123713  69.5141506  14.8895693
  48.5863304  69.4670868  14.3283200  47.5458574  70.4327917  14.8534977
  72.2353983  71.0316515   8.1530035  73.0599308  71.1530304   8.6237979
  72.2195911  71.7412472   7.5107777  17.5673592  29.4790626   8.4071356
  17.1784365  29.1090798   7.6146179  17.4751091  28.7888622   9.0639043
  12.7612805  16.2356317  66.0526371  12.6589572  15.3116047  65.8247423
  11.8908727  16.5085983  66.3426590  33.0111814  22.8971076  15.8394194
  32.2895122  23.4332681  16.1679912  32.6084471  22.0534539  15.6337833
  51.3566685  74.8280048  48.2069397  52.1808529  74.9279356  47.7305269
  51.0407352  73.9590359  47.9593229  61.3351059  23.7379551  34.6982288
  62.1769476  24.1561031  34.5174289  60.9057999  23.6847901  33.8443565
  16.8532538  28.4295201  14.3013287  17.8003228  28.2985544  14.2550600
  16.6535962  28.4056258  15.2371693  75.8633947  57.9197502  36.4564204
  76.3002634  57.6780033  37.2730827  76.3524055  58.6788416  36.1388040
  44.4750595  22.2082329   8.9483202  44.1487932  21.3224697   8.7895393
  44.9488115  22.4359584   8.1483632  29.7294831  37.7760410  46.4607334
  29.5951796  38.3548880  47.2111511  28.8523769  37.4627471  46.2399054
  58.8888264  50.3349018  61.8647099  58.0392790  49.9293756  61.6913605
  59.3947887  50.1813745  61.0667992   2.9355022  48.6915684  35.1336908
   3.6059701  48.5784435  34.4599652   2.8621045  47.8306007  35.5454969
   4.0181878  31.2574983  62.4686337   4.7813296  31.6988230  62.0956993
   3.5704607  30.8746815  61.7141628   2.0954232   7.7262604  11.5268815
   2.2620513   8.6297548  11.2582493   2.4804729   7.6613408  12.4008119
  63.7685061  70.4692173   5.9726214  63.3766603  69.6511984   5.6667876
  63.1500816  71.1473560   5.7007551   4.6056557  34.8103666  52.9174948
   4.7838554  35.3642988  53.6775208   4.6924296  33.9159966  53.2473469
  55.7300854  68.9098120  63.1818438  55.1185083  68.2365751  62.8835821
  55.8124256  69.5054817  62.4371099  76.7456722  46.3608837  52.5154305
  76.3263035  46.3420820  51.6551971  76.5472269  45.5059147  52.8973722
  76.3922739   6.1333209  28.9886355  76.2283325   6.2349576  29.9261999
  77.3223734   5.9147710  28.9304399  70.4035282  14.5096862   1.9850643
  70.3188992  13.6232555   1.6339087  70.0081444  14.4612694   2.8554440
  46.9738436  63.2299185  55.4831076  46.2414932  62.7037764  55.1620674
  47.7265739  62.9282093  54.9745798  45.7960701  42.1567011  63.0555868
  45.9639263  41.2457705  62.8141975  45.5212498  42.5740767  62.2391891
  71.7158318  46.5790176  42.0538807  72.5485086  46.1363316  41.8898392
  71.9595623  47.3899889  42.5001431  19.8876202  69.6872759  42.8062010
  20.4100060  68.9429045  42.5074387  19.5449197  70.0774908  42.0021343
  58.9884949  69.2094898  46.3406658  59.2779875  69.6618176  45.5483103
  59.6153259  69.4780874  47.0123577  57.0524120  67.8949547  59.3367624
  57.3863220  68.6117935  58.7974262  56.1414957  67.7921677  59.0612698
  15.0096190  36.1728168   5.3557795  15.4131341  36.8844295   4.8587722
  14.8848510  35.4733872   4.7143254   0.8611260  54.8275232  65.2991724
   0.5883142  53.9130640  65.3738213   1.8150049  54.7997522  65.3738403
  21.9053078  72.2976160  54.9825001  22.4823570  73.0302000  55.1982880
  22.4505472  71.5200043  55.1019382  53.3665419  60.0135612  52.2178411
  52.9077864  60.6183624  51.6347599  53.3049297  60.4207850  53.0819035
  18.1402624  11.0016119   2.3003913  17.6924348  11.6635036   2.8272510
  17.5492430  10.2487123   2.3087463   0.5761557  72.8531265   7.4258947
   0.8417155  73.6836767   7.0310539   0.3423758  73.0797577   8.3260161
  36.7541394  77.1432876   5.5751723  36.9280800  76.3291584   6.0475808
  37.1576247  77.8237752   6.1140287  48.0161762  19.0147281  26.3564515
  47.5621557  19.6670282  25.8229709  48.9334822  19.2876363  26.3392091
   5.5350417  65.9670305  62.1071720   5.7716429  66.7552805  62.5959539
   5.2923959  65.3314686  62.7805376  24.3393946   9.5015913   4.9528202
  24.8339272   9.5431006   5.7713223  23.5049558   9.1013026   5.1971847
  56.0120773  52.1829700  38.5782862  55.5514860  52.3799849  37.7626443
  55.3801489  51.6837168  39.0956259  13.4318590  46.7287540  37.1423841
  13.3493006  45.8873653  36.6935253  14.3265629  47.0130920  36.9555974
   2.6959103  67.2733974  29.6604466   2.5307480  67.4670696  30.5831838
   3.6350372  67.0932245  29.6179008   6.9676960  37.2281694   3.2760006
   7.8954625  37.4545288   3.2108548   6.5419918  38.0397177   3.5524029
  82.5573469  22.5771141  51.6338444  82.3488972  23.5060453  51.5345097
  81.7202993  22.1654439  51.8485832  26.5783405  65.4648447  62.4500513
  26.9504714  65.7980633  63.2665777  26.9410086  66.0343790  61.7715693
  63.2480526  75.0331545  60.7731438  63.6310005  74.9185228  59.9034071
  63.4377670  75.9434557  61.0002899  18.3260310  52.7359533  32.1464658
  18.7355685  51.9977999  31.6952014  17.5254214  52.9058170  31.6500735
  75.9495163  63.9421225  50.5901909  76.6957951  64.2133045  51.1247587
  75.9397268  62.9874706  50.6592751  53.2274818  48.9561653  52.3049593
  53.1145477  48.8508463  51.3603020  52.4007559  49.3345070  52.6043081
  38.1308913  48.2718325  10.3693807  38.9320660  48.3798075   9.8568487
  38.3177304  47.5373030  10.9540093  53.2010365  61.3290310  54.7081089
  53.3040047  60.7943439  55.4953432  52.4724579  61.9158363  54.9107361
   4.7669375  21.8690300  47.0617247   4.1305465  21.2587309  47.4342489
   5.4432750  21.9499207  47.7342272  37.7033710  75.6322622  10.9038115
  38.5376358  76.0786295  10.7589293  37.9484868  74.7664690  11.2302351
  10.0634074  45.7249451  12.6129961  10.4244304  44.8999166  12.9373765
  10.6181872  45.9522104  11.8668044  40.4437637  40.8373833   9.0878475
  40.5794239  40.8079958  10.0349295  40.9227133  40.0789976   8.7536430
  15.0448930  43.0607128   3.0792367  15.9594023  43.0115318   3.3575985
  15.0555527  43.6495304   2.3246422  58.1526709  56.6168022  40.9426928
  58.8467503  57.0506001  40.4464054  58.2604170  56.9394922  41.8373966
   0.8856029  31.9048262  48.9823532   1.2811106  32.2602105  49.7782850
   1.6290176  31.6086364  48.4571505  74.3455029  58.5559034  57.8049994
  73.9643764  59.1282701  58.4708643  73.9733553  57.6934290  57.9890537
  70.4849529  36.7105293   3.4388688  70.1441765  35.8173275   3.4867418
  69.7094822  37.2669530   3.5114357   0.8436983  76.1172390   3.4726092
   0.9902075  75.6201172   2.6678506  -0.0688802  76.4005518   3.4163418
  32.3420978  12.0030749  11.3539839  31.6726089  12.5022507  11.8217874
  32.3251581  12.3551035  10.4640281  39.9933290  32.5891352  26.5704107
  39.6570325  33.3665657  26.1246085  39.9036932  31.8863654  25.9267378
   0.4987048  27.3333740   8.1902897   1.2088118  27.8539681   8.5657370
   0.3741942  27.6955009   7.3130256  14.8949611   5.5847073  59.9960136
  15.8477080   5.6656295  60.0402355  14.5715499   6.1993414  60.6546926
  24.7510028  55.0304794  16.6621411  24.1997004  55.3130865  15.9324634
  25.4374480  55.6954622  16.7152500  78.8531780  69.5498085  53.1186056
  78.1703329  69.0473366  53.5629892  79.0711212  70.2519751  53.7315416
   4.9014816   5.3047109  40.4444075   4.4400382   5.0106007  39.6590376
   5.0016618   6.2489885  40.3238392  18.8826346  26.7114925  51.0866547
  18.2047331  27.3669243  50.9220552  19.2809868  26.9815087  51.9140816
  58.8800383  65.9517622  59.3248940  58.4158421  65.1168871  59.3860435
  58.1884003  66.6018915  59.2016029  23.5942841  63.6872387  24.5262671
  23.8898015  62.7836704  24.6379304  22.8501654  63.7712765  25.1224685
  27.5178814  29.9650955  45.6312132  28.1844211  29.9464607  44.9444771
  26.9486094  29.2216229  45.4326963  24.2021632  53.3523035  50.0257206
  24.7692299  53.9934254  49.5972013  24.7885203  52.6331329  50.2606869
  25.4959311   1.4229238   0.3588873  24.7335018   1.0554254   0.8059650
  26.0930266   0.6819951   0.2553087   1.3803309  32.5107193  17.5121784
   1.4070196  33.4000325  17.8652251   0.6055836  32.1169233  17.9133308
  77.6377821  60.1460218  64.2083740  78.5623264  59.9853992  64.0195704
  77.4477291  60.9813499  63.7813568   5.7465506   2.3983923  48.7677622
   4.8530963   2.1738170  49.0276384   5.7027948   3.3263373  48.5370350
  55.9279633  16.1794758  17.6755202  55.1202536  16.1116111  17.1663749
  56.6096878  15.8539605  17.0877051  65.8325338  58.6985254  64.3866730
  65.8693409  57.7420712  64.3949461  65.4265928  58.9153385  63.5473633
  11.9699216  16.0262990   6.4644212  12.7873242  15.9386408   5.9741151
  11.2836385  15.9499848   5.8015311  66.1381721  70.8467340   4.8894754
  66.7980576  70.8367729   5.5827892  65.3584099  70.4681540   5.2955276
  23.3439565  73.4147787   9.5537734  24.0610766  74.0387726   9.6660358
  23.0166411  73.2639980  10.4405427  41.6723871  68.3166409  42.7101946
  42.1999693  68.4940386  41.9314671  40.7691669  68.4513760  42.4233675
  30.9897542   2.7643272  58.1650162  31.6206837   3.3592889  58.5702085
  30.1804161   2.9020676  58.6571884   1.9548221  49.0310574  45.6043530
   2.0395121  49.2656422  46.5284872   2.4036291  49.7352028  45.1363945
  29.6149874  77.4772215  49.1855049  29.1761875  76.8804121  49.7917271
  29.5852470  78.3279228  49.6232843  15.7216442  38.2928228  60.8689117
  16.3077688  37.5690103  60.6480408  14.9668908  38.1743550  60.2922487
  45.6844902  60.6976938  26.2683415  45.1402807  61.4831305  26.2121916
  46.2096786  60.7124949  25.4682231  67.6576614  65.7764530  33.9732623
  67.7513266  66.3266420  33.1956029  67.3123074  64.9480963  33.6404181
  17.7962387  72.6251316  35.6250310  17.1555197  73.2739162  35.3338480
  18.5153544  72.7004242  34.9977875  33.9513826  56.9115400  20.9393644
  33.2393932  56.8264580  20.3052807  33.5101771  57.0366335  21.7795563
  36.4506793  21.4716935  21.5056634  37.0442677  20.7496738  21.2993336
  36.9526982  22.2605014  21.3007498  45.6385660  48.0685568  47.4221373
  46.3854456  48.1155396  48.0189562  45.9494066  48.4815168  46.6164875
  34.2442179   1.0631555  30.1167941  35.1946521   1.1238569  30.2128220
  34.1151690   0.6780449  29.2500353  26.3052034  32.6060224  37.4683809
  25.6769395  32.7071834  36.7533398  27.1605492  32.6155591  37.0388174
  26.3613105  46.7004347   5.8382487  26.7799616  46.6149187   4.9817157
  25.8012033  45.9274769   5.9093148  76.2189436  43.2596588  54.1418934
  75.6937218  42.7696466  53.5092306  75.7444620  43.1691599  54.9682713
  10.6817031  19.3026125  11.0318971   9.7832876  19.3977523  10.7156205
  11.2224424  19.6633577  10.3292620  63.6726379  53.6657906  57.6896095
  63.1099510  53.8690424  56.9424105  64.2010498  52.9234028  57.3965645
  76.8883896  10.3569150  19.5179772  77.1200705   9.4709295  19.2394364
  77.2732544  10.4420900  20.3902483  80.1258278  62.8846931  38.9080787
  79.2053938  62.6269484  38.8570476  80.2826405  63.0294228  39.8411870
  79.8179436  74.4083786  64.6014404  79.9032831  75.2859020  64.9741364
  79.8436928  73.8231134  65.3584337  45.6264782  22.1395135  65.3399658
  45.2898455  22.9876685  65.6290102  46.3016367  21.9185448  65.9814978
  70.6689930  47.6443577  59.3781328  71.5675497  47.8712130  59.6176338
  70.6265926  46.6935921  59.4805193  63.9176273  37.0615888   0.0755297
  63.9611340  36.7245698   0.9703799  64.5705843  36.5520549  -0.4043186
  11.3210263   5.2712619   0.5953222  11.1553778   5.6450546  -0.2701658
  12.0810475   4.7031581   0.4693991  48.5463381  43.7374830   4.1284832
  48.9903212  43.5622644   4.9581873  47.8968430  44.4076443   4.3412459
  11.1516833  22.2897816   1.9996980  11.9501078  21.7706108   2.0956698
  11.0913920  22.4650574   1.0606157  43.5028926  40.1693477   0.5812555
  42.9651037  39.4136014   0.3449016  44.0716460  40.3049928  -0.1766056
  56.1885595  49.1122580  62.4276829  55.3129387  48.9897776  62.0609140
  56.0582161  49.7089815  63.1646776  24.3287253  11.9156146   3.0900395
  24.3616128  11.7753100   2.1437496  23.3960962  11.8888712   3.3038655
   4.1052204  54.1815424  54.4636536   4.1245586  54.7135878  53.6681747
   3.2319465  54.3267155  54.8277283  39.5733047  76.2844801   7.4734497
  39.8376870  76.2730837   8.3933431  38.9202523  75.5881786   7.4032909
  61.4111137  52.7323771  67.0812845  60.7641268  52.1170807  66.7362404
  62.2456264  52.4269724  66.7255592  -0.3007492   0.5856617  47.5805473
   0.5272277   0.9593037  47.8823376  -0.0512172  -0.0107205  46.8746471
  72.1624136   9.0649831   5.6632781  71.7932034   9.1008186   6.5456790
  73.0002260   9.5222545   5.7354456  36.9114828  70.4189730  33.6274958
  36.4953470  69.8065615  33.0208540  36.1837363  70.9100866  34.0088367
   7.3340869  27.0129228  25.0168037   8.2519156  26.8249273  24.8206401
   6.8655688  26.7820024  24.2146826   1.9329970  27.1647930  48.6683702
   1.5117101  26.6539836  47.9771233   1.2794259  27.8193212  48.9146852
  69.1001177  21.0874319  15.4778695  68.6155987  21.6003966  14.8310804
  68.6316490  21.2341189  16.2996066   9.6214241  64.5998430  41.9064522
  10.4223788  65.0552320  42.1659231   9.3497884  65.0347090  41.0981607
  43.3047533  23.4677529   4.0985942  42.9270172  24.3278980   3.9150265
  42.9744196  22.9064465   3.3971319  11.7442715  47.6063728  57.8576374
  11.5193737  47.0316029  57.1260071  10.9378421  47.6693058  58.3694410
  63.3150673  65.5592871  61.2774944  62.9896116  66.1294222  60.5808926
  63.3742905  66.1284828  62.0447922  63.8495827  62.9392433  58.0954504
  64.7456169  62.6566982  58.2785606  63.6002064  62.4512053  57.3106766
  42.6927710  28.4943199  17.3855221  42.2016096  27.6771665  17.3003674
  42.2391129  28.9754367  18.0775893   4.8436216  15.4709458   0.8857869
   4.7797075  14.5668101   1.1934976   5.4657280  15.8842766   1.4844285
  16.2899792  47.5428486  27.3127365  15.5948806  46.9005108  27.1696520
  15.8651614  48.3897686  27.1767545  59.5356035  75.1888561  23.1329584
  60.3750038  74.7944307  23.3697581  59.7325993  76.1179972  23.0141211
  23.5794687   9.6004343  23.0059123  24.4064832   9.6867675  22.5317550
  23.8192892   9.1783088  23.8308525  22.5771642  27.8378677  35.3299975
  23.1425738  27.6808643  34.5737600  23.1536460  28.2377410  35.9811521
   5.5972302  15.6617796  47.4010944   5.3226238  16.0015857  46.5494156
   4.9645424  16.0266018  48.0198383   4.2469430  65.6463671  39.6638131
   3.3964610  65.7771969  40.0830936   4.1504762  66.0424376  38.7977552
  79.3583202  74.9285316  49.6633196  80.1537228  74.9441290  50.1955986
  79.3291426  75.7918358  49.2508984   7.5280631   3.0248326  42.5926924
   7.0077479   2.4972188  41.9867849   8.3437747   3.1956246  42.1218681
  22.3680639   2.1465386  49.7713661  22.6082087   2.0027888  48.8559961
  22.1260047   1.2786937  50.0946045   9.2233264  58.8147736   8.4252715
   9.7994131  59.5243645   8.1409490   9.7891581  58.0431986   8.4524542
   5.5916083  61.8010998  31.3999057   6.3520378  61.5904522  31.9417620
   5.3045177  62.6588249  31.7131424  26.8504310  40.8683634   7.4938208
  27.6055813  41.4547110   7.4471813  27.2268772  39.9892640   7.4525273
  80.5552197  71.3374662   0.8529858  79.6587038  71.0180616   0.9552763
  80.8005810  71.6459227   1.7252743  46.8783092  16.5768278   7.4037105
  47.0915365  17.4621415   7.6986438  46.5571022  16.1336279   8.1889707
  31.7205811  49.1881800  63.7331057  32.0080948  49.6216965  62.9295921
  32.5197315  48.8108110  64.1007805   8.4579694  48.3079433  59.0412378
   7.9941964  48.7565708  58.3342123   8.7578541  49.0123701  59.6157694
  15.1775122  16.7760766  46.1457920  15.7295167  15.9961510  46.0888815
  14.3230486  16.4450765  46.4224911  57.9535866  33.5947680  53.5165024
  57.7221823  33.9886594  52.6753521  57.2107840  33.0295873  53.7287474
  64.1421175  12.4072123  27.3713589  64.2101145  13.2713628  26.9653368
  63.8495970  12.5849319  28.2652688  64.3660701  22.4936712   0.2410274
  64.8086471  22.1411216  -0.5310244  63.9629507  21.7307079   0.6552940
  42.3531914  16.1543775  31.9380689  42.7575588  15.4616320  32.4603891
  42.1031141  15.7232058  31.1208892  64.6289253  20.0927520  59.8590994
  64.4922924  20.0664210  58.9120674  64.4213200  19.2066824  60.1557684
   8.4946746  62.2725105  22.2308660   9.2685610  62.7985954  22.0294666
   8.7878042  61.6657925  22.9107213  40.1268339  49.3900299  63.2979584
  40.5037451  49.8638821  64.0393353  39.4239426  48.8654518  63.6813593
  16.6826940  16.0115242  53.4721041  16.0319269  16.2112331  52.7991629
  16.1687732  15.8645296  54.2661524  58.0000305  31.9194937  17.3576105
  57.5711107  32.5054002  16.7339301  58.8520193  31.7323804  16.9634926
  57.3757505  75.1515913  44.0366888  57.3141623  74.2594433  44.3780279
  57.7863836  75.0516176  43.1778383  60.8069611  36.7105699  62.2098541
  60.2746439  35.9165668  62.1605825  60.2110100  37.4147034  61.9543743
  17.1024072  34.4044471  65.0673962  17.6662564  34.5914364  64.3168402
  17.6830840  34.4703245  65.8254910  44.3737173  17.7007043  13.0433893
  43.8156319  16.9231772  13.0583513  43.9141035  18.3144355  12.4703968
  40.3300858  26.6363883  10.6815100  40.7772207  25.7901096  10.6709039
  39.4873309  26.4672971  10.2603137  26.1917448  72.9396582  59.1308546
  25.7654619  72.8473377  59.9829054  25.5374551  72.6361370  58.5015583
  59.8137999  27.6840377  65.5984926  60.4346943  28.3702040  65.8432436
  58.9555073  28.0509496  65.8104897  75.7838488  53.6270857  63.4489393
  76.0789442  54.2436457  64.1190195  75.4702091  54.1816998  62.7346087
  64.4896173   6.2241811  64.3730307  64.4211531   5.2857476  64.1972828
  65.4301739   6.3861781  64.4461155  70.8099127  27.9238939   7.3317415
  70.0482893  28.2573628   7.8060383  70.4634619  27.6554632   6.4807725
  49.8915100  40.5133533   9.3084258  50.4445887  40.7721996   8.5713142
  50.4649115  40.5774212  10.0721920  25.2336597  29.5519471  57.7070904
  25.6314993  28.9768672  58.3607244  24.3115568  29.5995426  57.9594612
  69.6348763  59.1855621  56.1044502  70.1966333  59.8712206  56.4657402
  70.2170610  58.6666584  55.5494452   6.3918883  20.5227566   1.1380991
   6.6915977  21.1009860   0.4366328   6.7147529  20.9325147   1.9406494
  76.0134411  55.2774286  60.1192284  76.4882326  55.6609201  60.8566141
  76.6978741  55.0194740  59.5017815  34.3360233  67.3237324  22.5581932
  34.6145344  67.1360683  23.4545422  35.1398516  67.5806761  22.1064520
  36.5720224  20.2433252   9.3786657  36.2366271  20.3795862  10.2647662
  35.9537315  20.7077193   8.8144958  11.4625084  73.5093212   3.5397989
  11.5720069  73.9393806   2.6916891  10.5196238  73.5369492   3.7023935
  68.8312483  74.6394300  65.4708433  67.9161024  74.5928955  65.7475615
  68.7948561  74.5990086  64.5151901  80.4886627  74.1133213  27.7318668
  80.2637768  73.4204626  28.3528399  80.6156731  73.6573410  26.8998933
  23.1113100  32.0246911  16.6590631  23.4047675  32.8788304  16.3419461
  22.1601272  32.1080780  16.7263925  44.2550468  58.3312273  31.9205761
  44.8880720  58.6022997  32.5854278  43.5926914  59.0222454  31.9246531
  33.1337476   9.4632465  49.0189409  33.2438087  10.0703061  48.2870960
  33.0096149  10.0278437  49.7818613  10.1262796  31.8341517  64.3959475
  10.7859087  32.5271821  64.3671179  10.4877114  31.1365843  63.8491392
  72.8400040  21.9804549  65.0480890  72.4550200  22.5517249  64.3835068
  73.7323236  21.8220758  64.7400093  69.4399643  33.4086800  37.9175115
  68.6259413  33.6184978  37.4597168  69.8534489  34.2579699  38.0723214
  22.4865246   4.1232413  26.5527225  22.7417827   4.3185654  25.6510997
  22.7458334   3.2110626  26.6828012  70.3900576  10.3232110   7.9459965
  69.4875383  10.2794123   8.2618648  70.3076267  10.5052793   7.0098937
  66.9191885  68.7864494  51.6552401  67.0319462  69.6079254  51.1770201
  67.6665688  68.7523603  52.2523117   8.9937580  51.7540359  57.6339674
   9.8546726  51.4172316  57.3857355   9.0506506  52.6964283  57.4762011
  15.6923497  20.0720024  62.3587894  15.6080735  19.6025610  63.1887054
  16.6152942  19.9779642  62.1230745  80.3188515  32.9709482  63.3895016
  80.6422043  33.5396338  62.6907349  80.8813000  33.1682706  64.1384602
  71.2790108  68.3275843  52.7267361  71.9775248  67.8797007  53.2039261
  71.7269516  69.0193796  52.2399092   9.4384700  68.2519102  17.4097574
   9.3671817  68.9247656  16.7326927   8.6609149  67.7069521  17.2886693
  69.9021244  50.4545164  39.0653563  69.1464949  50.9830093  38.8085532
  70.5959511  50.7192659  38.4614134  53.6489964  13.9068162   2.7045617
  52.9543161  13.4340382   2.2461618  54.0468502  13.2514644   3.2776758
  51.1925030  20.8216619   8.9703912  51.2264109  19.8678327   9.0431231
  50.4059505  21.0710526   9.4555432  75.6084585  32.2939920  59.9026155
  76.3972664  32.6564240  60.3059196  74.8867941  32.6777649  60.4007578
  23.8331437  11.5180218  37.7964067  23.0169606  11.4058900  38.2837510
  23.5545158  11.6562152  36.8911433  11.7228866  68.3793545  61.3429117
  11.1797416  67.8022766  60.8060646  11.8369460  67.9038000  62.1657562
  26.7160678  35.6714773  28.8693547  25.8492923  35.9473562  28.5713243
  27.2309303  36.4782000  28.8879752  28.6957860  17.8471971  35.6547451
  27.8602314  18.3140433  35.6432891  29.0089655  17.9387200  36.5546203
  33.8100743  21.9175076  30.1149464  32.9780650  22.2696280  30.4311776
  33.5676336  21.1277390  29.6315002  10.3760636  64.2724657  50.1973534
  10.4541135  64.7338963  49.3623543  10.7502401  63.4076643  50.0289965
  32.8602338  44.7018576  65.1903248  32.0103312  44.7892332  65.6219101
  33.4490848  44.3966770  65.8805037  52.2121239  28.7049866  48.7163019
  53.1391811  28.5318351  48.5525656  51.7898989  27.8503180  48.6297035
  67.2393370  57.4197292  40.8274889  67.7291775  57.1808958  40.0405693
  67.8530693  57.9443502  41.3416338   8.9548075  73.8027191  23.5069466
   8.7108284  74.7111797  23.6841679   8.2859790  73.4895277  22.8980041
   5.8749050  67.4050426  47.7203274   5.9625661  67.8515577  46.8782043
   6.7053097  66.9426870  47.8338575  29.5647430  68.5587358  40.6966877
  28.9955211  69.2551088  40.3691435  28.9636636  67.9124069  41.0670853
  15.7378888  13.6403215  58.1513739  15.0619543  13.5029149  57.4877024
  16.5523505  13.3797956  57.7212477  52.3483610  25.3400159  53.4292746
  52.3553467  25.5415678  52.4935627  51.4217234  25.2340794  53.6445522
   1.2800571  42.5538111  11.8329990   0.7819720  42.4244404  11.0259008
   1.3613854  43.5040569  11.9145501  54.6200657  42.7202368   7.8734833
  54.0393257  42.6722002   7.1140981  55.1532841  43.4998703   7.7182949
  68.7612534  75.7199240  58.1347179  68.6927176  76.0057735  57.2237730
  68.7482595  74.7639799  58.0874014  54.5215607  40.6643963  11.9909680
  55.1448202  40.1491928  12.5031662  55.0643301  41.1433935  11.3647127
  67.8518486  45.3153324  47.4236917  67.4210835  45.4705429  46.5831089
  68.4607220  44.5970345  47.2517776  52.8598785  15.3976834  17.1934378
  52.1065474  14.8286831  17.3514295  52.4838114  16.2731779  17.1022451
  45.6560135  66.9107437  40.6297016  45.6489658  66.4046383  39.8172736
  45.9325027  67.7875614  40.3632784  56.6061687  14.2395604  52.5849915
  56.9457865  15.0496006  52.9654217  55.7124090  14.4560158  52.3193359
  62.3899126  41.3479805  15.5045557  62.1864367  40.4756403  15.8419681
  63.0616283  41.1969042  14.8395705  14.5442557  68.7104321  15.8996356
  14.2887568  68.9948988  16.7771494  15.3301609  68.1819439  16.0385191
  12.3662710  21.8791986  16.6763937  13.0564272  21.4044356  17.1395540
  12.6663005  21.9120741  15.7680261  60.3091717   0.7820055  47.9052925
  60.1747465   0.9876042  46.9801474  59.9285126   1.5250224  48.3735371
  53.1180000   9.4817835  32.1199751  53.6080217   9.8456389  31.3825989
  53.6907339   9.6120518  32.8757763  75.5613613  62.5002670  35.2258992
  76.2164211  62.8364086  34.6142340  76.0731220  62.0988750  35.9281945
   9.1310728  17.1713233  39.8398352   8.9670753  16.2286103  39.8649025
   9.9964678  17.2533131  39.4390845  51.7323351  72.7395678  20.2074909
  51.5469217  73.6672735  20.3531432  50.8827829  72.3082256  20.2993393
   3.8404679  74.0644979  40.4259157   3.6485752  73.2129240  40.8186293
   4.0567771  73.8649321  39.5150805  25.6995726  25.7796979  10.5254447
  26.4430118  26.2954116  10.8378077  25.6255198  25.0613570  11.1537218
  62.8705931  46.7636824  31.0271549  63.2423019  47.5405645  31.4449048
  62.2634029  46.4096832  31.6769505   2.1223433  65.6134367  16.0632169
   1.7813572  65.5294752  16.9536734   2.1922806  64.7124815  15.7475853
  26.4241600  77.3539925  59.1738987  25.8335614  77.1104956  58.4610653
  26.5726566  78.2917356  59.0521622  49.7912264   1.9024602  64.7940731
  50.6964827   1.6410756  64.9626780  49.8582220   2.7981550  64.4632006
  49.9081993  14.8395479  59.7612000  49.3727112  14.3911099  59.1066885
  50.7457209  14.3764305  59.7435665  44.2282438  10.3984928  49.9259615
  43.5167551  10.3292680  49.2893839  43.9461899  11.0886133  50.5263042
  10.6258118   3.2021084  50.0726414  10.7440090   3.8094035  50.8030176
   9.7608256   2.8186631  50.2175522  38.5324907   8.9832234  36.9939852
  38.0542660   8.7592995  37.7923512  39.2799568   8.3853310  36.9868636
   5.4310650  68.3265257  30.0330615   6.1138755  67.6605844  30.1138353
   5.3497368  68.4730911  29.0906501  26.9748282  50.4032040  41.1515951
  27.4180627  49.8048449  40.5501461  27.6313186  51.0699892  41.3532114
  80.9965515  17.0484352  14.3575752  81.4887142  17.7742779  13.9739633
  81.6535568  16.3704073  14.5152187  54.8912430  47.2209072   3.4131983
  54.1910458  46.5735579   3.4962189  55.5675507  46.7778254   2.9008326
  61.2728739  60.0262499  27.5134659  61.3464117  60.2405310  28.4434700
  60.6192350  59.3277931  27.4795651  29.6456742  15.3499365  49.3790340
  29.4117260  16.2582469  49.1880512  29.1117382  15.1198912  50.1394415
  68.2923031  20.0128698  51.2995863  69.0284348  20.5612469  51.5709209
  67.6426125  20.6318140  50.9663534  47.0070505  30.1501298  66.1657572
  46.9703054  29.9747133  67.1060276  46.1352253  30.4809165  65.9495735
  81.5727139  28.6305118  18.0956960  82.1059895  28.8018966  18.8718915
  81.2500000  27.7378464  18.2191443  73.6203241  32.0205450  23.7835002
  72.9143000  32.1072388  23.1429958  74.3268347  32.5651383  23.4363699
  29.2373610  23.8776231  36.6374683  29.2639494  22.9426861  36.8409896
  28.9332104  23.9168048  35.7307220   0.3827239  26.0294008  46.8818617
  -0.5094161  26.3723469  46.9338989   0.2741158  25.1211429  46.5999031
  63.3142662  19.7302616   1.3167499  62.4473715  20.0456047   1.5722674
  63.8853836  19.9865103   2.0408976  51.0263920  15.6114113  51.0861254
  51.6605425  14.8948860  51.0601854  50.2768660  15.2508593  51.5598869
  15.7480180  45.5581331  55.3066540  16.6212130  45.4125023  54.9425745
  15.6708121  44.9127626  56.0093355  26.2932968  51.3056135  20.7062912
  26.6185379  52.1110868  20.3042150  26.0053825  51.5729523  21.5791416
  42.3795795   2.4488050  65.9795046  42.7776670   3.2973880  65.7854271
  42.0503569   2.5376388  66.8739033  31.2429094  71.0268545  32.0365763
  31.2128997  70.0801325  32.1745801  31.0647678  71.4004755  32.8996563
  74.4750834   5.6022352  63.2440376  74.6726847   4.9876893  63.9508009
  73.7072992   5.2297640  62.8104448  35.7832742   2.4348758  46.5393114
  34.8724508   2.3006774  46.2773466  35.7308292   3.0119601  47.3011875
  77.9332018  41.9772339  10.0669038  78.0043364  42.6185560   9.3598866
  78.7426567  42.0813799  10.5670762  60.1585770  10.3569126  63.1873941
  60.0456476  10.7149875  62.3069048  59.4159365   9.7639501  63.3018827
  14.5811808  10.5544746  38.5656810  15.0843108  11.0146439  37.8938651
  14.6750236  11.0968935  39.3487549  55.1806450   3.7536484  30.0419521
  54.4453812   3.3386201  29.5909882  54.7994566   4.5244217  30.4624748
  73.5842133  38.1247163  16.2196636  73.7735462  39.0338445  15.9875691
  73.8258505  37.6233959  15.4408693  74.5764256  52.4522066   1.6998884
  75.2492428  51.7915106   1.8642764  73.7489080  51.9870949   1.8228425
   6.7182487  60.9605360  51.0161448   6.9272411  61.6682673  51.6258001
   5.7662976  60.9977627  50.9232140  72.0599905  56.6449321   0.0814062
  71.3474527  56.3906909   0.6678158  72.0448175  55.9866883  -0.6133742
  47.7732992  12.9031813  55.8767271  47.3948908  13.6875772  55.4795361
  47.8454065  12.2797263  55.1539993  47.8191376  10.0057888  43.2813454
  47.3455286   9.2261183  43.5712385  47.1323061  10.6284666  43.0430937
  36.3929701  20.5119967  50.6906176  35.7283306  21.1895800  50.5666494
  35.9560680  19.6987891  50.4375505   8.5653907  49.9773073  49.9870253
   8.6571831  49.1186857  49.5740271   8.3499295  50.5683136  49.2655563
  78.4259939  39.9469447  60.8571529  78.7098408  40.3556252  61.6748571
  78.6585426  40.5812359  60.1790428  44.0457153   9.4146013  39.5802903
  43.6250401   8.5647684  39.4497132  43.9653873   9.5797926  40.5197001
  80.7459068  35.2974510  51.7376232  81.0670090  34.4060731  51.6013384
  80.5937386  35.3556156  52.6808596  59.1897154   6.8884540  37.0697451
  58.2500505   6.7471796  36.9544053  59.2483091   7.6151556  37.6899910
  28.3104348  34.5502782  23.5663652  27.5057101  34.4856334  23.0520988
  28.8400221  33.8073421  23.2768559  68.5591078  42.6711559  19.7852015
  67.9513645  42.7600288  19.0510488  68.3393812  41.8259335  20.1770544
  61.3913956   0.1634906  66.5656996  61.6334620   0.8358549  67.2025347
  61.1450234  -0.5929495  67.0979881  81.8348408  45.4694319   6.4677137
  82.2326183  44.7871971   5.9268206  82.4009895  46.2316751   6.3464928
  81.5251827  42.3924637   1.6334870  82.1218109  41.7253208   1.2940924
  80.9850788  42.6356268   0.8815587  14.4108057  25.5589890  66.2499428
  14.3622231  24.6335840  66.0101604  15.3328943  25.7883120  66.1342049
  76.0405159  17.5296581  37.5659513  76.3977861  17.6553917  36.6868734
  75.2287483  18.0368626  37.5693774  33.7820029  54.4327593  39.7132039
  34.5227957  54.2460060  40.2899027  34.1737556  54.8570871  38.9498496
  27.6621985   6.4172322  39.1961145  28.6020780   6.3610798  39.3684649
  27.4095154   7.2799379  39.5249367  30.3753209  15.0308430  37.2563314
  31.0846853  14.4037068  37.3968148  29.6657634  14.5096636  36.8806553
   2.4213645  65.9520674  27.2613931   2.0815226  66.4836550  27.9812193
   3.2390049  65.5863762  27.5989819  80.9207630  21.6497564  37.9189348
  81.3127804  22.3983812  38.3685064  80.2519798  22.0340943  37.3521519
  13.5951662  56.8910170  39.6920514  13.6344159  56.3212872  40.4602337
  13.5858834  56.2892151  38.9477515  18.8364875  45.1178074  12.0298123
  17.9564440  45.4928541  12.0629036  19.0904975  45.1837730  11.1092913
  72.8645992  34.9336386   9.0191239  73.2678223  35.0553393   9.8786771
  72.1341515  35.5521417   9.0074885  49.4094133  10.0618851  54.8525620
  49.8888731  10.5975187  55.4845762  49.7162867   9.1695642  55.0132561
  55.5956793  70.2304506  60.8020926  54.9060345  69.7964478  60.2998352
  56.0245371  70.8080101  60.1706314  11.2621665  57.4452353   1.0219130
  10.4246950  57.8745651   0.8471310  11.0344505  56.6848040   1.5568164
  42.4042749   1.7216407  44.1855669  42.8046560   0.8525398  44.2098570
  41.8515873   1.7526422  44.9664640  44.6019030  27.0452785  51.6191912
  44.6774483  26.1353040  51.9063616  43.6747551  27.2554636  51.7307711
  21.5174317  42.1566200   2.5547880  20.8482599  41.7247581   3.0857620
  21.0403347  42.4953556   1.7972475  42.2396231  51.3158894   8.9785790
  42.5626993  51.4231539   9.8731995  41.8789959  52.1725416   8.7498367
  30.7891226  52.8952599  13.3274150  31.3765359  52.1545982  13.1770945
  30.0896788  52.5389051  13.8751566  51.4148140  16.4385152  54.5835829
  51.2793684  16.2682605  55.5157280  51.5297127  15.5709279  54.1958666
  40.6566000   3.9084494   1.5617485  40.1819372   4.7238114   1.7233397
  41.5551805   4.0967089   1.8325697  36.4284706  37.3092628  48.5487843
  35.8342481  38.0553913  48.4686232  36.2970710  36.9933915  49.4427586
  21.7460179  13.5730159  30.8837342  21.4811540  12.6627326  30.7515812
  21.2652993  13.8515854  31.6631842  62.6936090  27.3092973   0.1306968
  61.8094593  27.3752010   0.4914861  63.0640853  26.5302217   0.5454546
  67.3005819  21.8882370  30.2310371  66.9164228  22.1703386  31.0611415
  67.3018169  22.6762366  29.6876335  51.7463303  61.9083738  57.9699421
  52.1963406  61.5746784  58.7460661  51.6055441  62.8368282  58.1553745
  43.1190634  49.0660620  11.2274981  42.6851749  49.8387480  11.5893435
  44.0336609  49.3299723  11.1270392  16.2940025   0.5869519  63.3371687
  16.9126856   1.0770965  63.8786650  16.3238668  -0.3039076  63.6860371
  54.6541309  20.6165886  56.6586113  55.1254368  20.9108400  55.8791780
  53.9976597  20.0050783  56.3249397  33.9116812  74.3951321  45.1580572
  33.9692998  73.4797096  44.8843527  33.4329319  74.8269749  44.4505644
   1.7500384  30.1875567  16.0305524   1.8475749  30.9909892  16.5416420
   1.1890846  30.4373932  15.2962875  63.2557631  39.2677331  10.8230484
  62.7522373  38.4575343  10.9022379  63.4814072  39.4985461  11.7241836
  19.5014620  62.1689844  58.7284231  19.6454608  61.5064430  59.4040966
  18.7477922  62.6696825  59.0406990  49.7035742  24.0833330  54.2150831
  49.9908638  23.2034206  54.4589138  49.4131327  24.4770384  55.0378084
  46.0677671   8.2271296  48.4570980  45.2657509   8.4964401  48.9048433
  46.0243702   7.2710264  48.4424114  11.4536166  67.7837944  22.3466301
  12.0138860  67.0981264  21.9830513  10.7509792  67.8845358  21.7044592
  16.2606823  59.3176031  17.5835574  16.6777611  58.4673071  17.7223885
  16.9859934  59.9113131  17.3894978  80.9664440  46.2029552  16.7245305
  81.3217735  46.9033766  17.2716916  80.0977612  46.0320568  17.0884204
  40.7006884   7.3745900  63.4344339  41.1640263   7.8314799  62.7324390
  40.4143763   6.5522850  63.0368471  44.6917534  28.0054355  67.2835159
  45.1778555  27.2993612  67.7094269  45.0266838  28.0198956  66.3869429
  19.5929611  70.8979416  40.2959299  19.0784848  71.2503958  39.5697594
  20.0251317  71.6625166  40.6765556  47.9081154  14.2091966  20.9830379
  47.6922178  15.0981593  20.7013178  47.9927826  13.7137127  20.1684451
  48.1717968  39.3578768  49.6244383  48.8533735  39.8639679  49.1822195
  47.4151230  39.4140315  49.0408993   6.4536440  47.9083157  38.3155179
   6.9613147  47.3036623  38.8567185   5.5551392  47.8169346  38.6326480
   3.3973116  60.5046892   8.3520508   3.7279147  60.1606989   7.5222290
   2.5835949  60.9516001   8.1188822  62.2350740  69.5524502   2.8050506
  62.1818447  69.0089321   2.0189300  61.3341427  69.8349476   2.9623693
  60.1340771  18.2466340  18.9594400  60.2882719  18.4824264  19.8742390
  59.2443132  18.5507751  18.7804091  59.3446684   4.4904697  67.0147943
  60.2395248   4.5386010  67.3511600  59.3988466   3.8845408  66.2757730
  71.1489868  48.7107134  10.8024859  70.4385996  48.4207106  11.3747442
  71.5162706  47.9011726  10.4475510  61.4495707  12.5001395  42.1625376
  60.8095455  12.8507948  41.5431499  61.0767794  11.6650236  42.4451017
  72.9922247  10.4370534  32.4060535  73.4974718  11.2207556  32.1897984
  72.1328592  10.5901599  32.0132685  71.9148588  38.7875342   4.3152669
  72.0041800  38.5404658   5.2357078  71.3029718  38.1464863   3.9534917
  39.0000486  24.0750599  66.4427900  39.3588328  23.5464430  65.7300043
  38.0631018  23.8792539  66.4380312  23.7716627   1.5287216  47.3223066
  24.3132806   2.2511940  47.0046329  23.1942081   1.3212606  46.5876389
  66.9541550  36.6976285  13.9538825  67.5578308  37.3781919  14.2516005
  66.5053749  37.0871162  13.2034624  25.9641051  75.1654387  57.3802996
  26.2931633  74.7011518  58.1499672  25.0396037  74.9223280  57.3310328
  60.5927467   6.8662596  61.5849209  61.5193081   7.0290995  61.7615604
  60.3101301   7.6231962  61.0716867  73.0698109  62.1793127  16.7927742
  73.0694914  63.1070805  17.0283175  73.9205122  61.8569231  17.0904410
  71.3823271  57.2655678  22.3620391  70.4431248  57.4456787  22.3209691
  71.5561533  56.7236185  21.5924239  22.3789859  53.9965153  47.8793573
  22.6981926  53.9666176  48.7812662  22.3023438  53.0777979  47.6218319
  69.3333530  22.0629311  38.4123349  69.8449755  21.5412617  39.0306687
  68.4306526  21.7729831  38.5438561  40.1216698  25.2551794  52.7364159
  40.2105951  25.5063272  51.8170404  41.0214329  25.2051973  53.0591536
  17.7920973  74.2135763  54.3185806  17.9184616  73.2766962  54.1685295
  18.0052221  74.3389225  55.2432966  46.4594841  33.4880328  58.0787849
  46.6949701  33.9953375  58.8555861  46.0922003  34.1326737  57.4739933
  81.1576176  70.3767204  41.1010504  81.5711403  70.0084591  40.3202820
  81.3528156  71.3127518  41.0565758  64.8508215   2.6030552  57.9991341
  64.3638659   2.9411474  57.2476006  65.2100754   1.7691287  57.6962519
  28.9758968   7.3743540  55.0684166  28.9150429   7.2382134  56.0139275
  29.3833280   6.5741295  54.7369432  51.4299726  20.1557088  42.9813623
  51.2438297  19.8410082  43.8659811  52.3097944  20.5281663  43.0398369
  18.4834242  67.8975296  24.0189195  18.7320507  67.0019102  24.2475677
  18.7308466  68.4174156  24.7835994  15.2366209  31.4971709  43.8853884
  14.5965779  31.2437773  44.5504951  14.9062884  31.1093044  43.0750370
  10.8971620  14.1129267  49.8096800  10.0832927  13.6953247  49.5277977
  10.6152093  14.9168360  50.2461052   0.5896644  24.1241932  31.3523698
   0.9766723  23.5432506  32.0073223   0.9944871  24.9755573  31.5182805
   5.2233791   3.7483442  16.5206456   4.9783099   2.8518784  16.2914681
   6.1577380   3.6971524  16.7221045  67.4039412  23.4267497  21.2743902
  68.1736708  22.9231310  21.0095978  66.6869020  22.7927732  21.2616134
   3.8848907  56.8620014  46.8352652   3.0283514  57.2889471  46.8523169
   4.1606957  56.9148970  45.9201860  14.1312146   9.5041174  52.4590302
  14.4632542   9.2981565  53.3328485  14.8602831   9.3031448  51.8722582
  26.1031294  64.6593380  38.4177661  26.4809775  64.6283054  37.5388479
  26.8589425  64.6322727  39.0044904   6.9685614  57.0761251  65.6800413
   6.6932505  57.8394222  66.1877966   7.7865988  57.3477316  65.2637720
  11.5148318  56.1029959  52.3861122  11.8067896  55.2202559  52.1585894
  12.0941782  56.6819954  51.8907833   3.8569751  18.8063300  50.8571196
   3.5353154  18.3475292  51.6331768   4.0314841  18.1109381  50.2229214
  65.2636290  22.3040748  40.8143616  64.8544884  21.4422989  40.7357788
  64.5889807  22.9170465  40.5222225  17.4290013   7.1068972  45.7122087
  16.7076969   7.1534580  45.0846863  18.0818903   7.7189147  45.3725004
  19.1727424   7.1753430  56.2976503  18.7216544   7.9684693  56.0083389
  18.5060287   6.4901018  56.2510729  29.4544506   9.3919033  51.9283676
  29.0019345   9.4446242  51.0865355  30.0967717  10.1010168  51.8998432
  56.4956665  47.0348263  12.8107703  56.8451786  47.7360725  13.3606076
  55.5478573  47.1675968  12.8269565  44.2972183  53.6028862  13.3208191
  44.9792957  54.0573168  12.8263533  43.5924911  54.2454243  13.4028780
  52.3473215  58.2259274  36.9841123  53.2012367  58.4969711  37.3211527
  52.4432039  58.2614660  36.0323882  48.6858749  36.6715074  53.9073038
  47.8785181  36.3952613  53.4736061  49.0201378  37.3826504  53.3607006
  65.2526760  11.0315692   1.7673582  64.5267582  11.5886307   2.0483604
  64.8352718  10.3236723   1.2765540  41.0747719  17.7308679  65.4604864
  41.8649769  17.4682307  64.9884415  41.1120462  17.2402382  66.2815380
  24.6307673  12.2841346   0.4415470  24.6157469  12.9573333  -0.2387566
  23.9225926  11.6861760   0.2024656  35.2269411  21.0302663  39.5109868
  36.1559510  20.8595753  39.3559504  34.9058938  20.2368355  39.9395061
  68.7256193  74.5013475  62.8887987  69.4992018  74.6652699  62.3494196
  67.9862499  74.6743250  62.3060131  76.2313652  28.4593320   7.7582741
  76.5493917  27.7365708   7.2172499  75.2873564  28.3140230   7.8212315
  46.5200806   8.6330098  31.1612105  47.2682619   8.7159389  31.7524600
  45.9762669   9.3966448  31.3545036   6.0106039  55.0096607  31.3858414
   6.3190168  55.7821751  30.9121943   5.4652560  55.3618813  32.0892382
  39.4012094  57.8713989  11.8189228  40.2465773  58.1026268  12.2037876
  38.9399552  58.7059259  11.7350042  62.8416634  60.6852913   3.9887768
  62.9377651  61.6338015   3.9031944  62.3739481  60.5655479   4.8152968
  23.0405307  69.9135065  56.8458223  23.6815095  69.3838644  56.3716269
  22.1957636  69.5205402  56.6263247   2.6535708  64.0021706  35.7062030
   2.5301397  63.2248974  35.1613712   2.7139139  63.6618614  36.5988255
   4.8005870  72.6989269  35.5742574   5.1379073  72.3721933  34.7401738
   3.9173871  73.0070972  35.3712201  12.5909543  71.2137175  51.4839649
  12.2927928  70.9535074  50.6124020  13.3318472  71.7970085  51.3194084
  72.4658537  37.5794244  45.1526546  72.1895409  38.1157708  44.4095421
  71.8384266  37.7877998  45.8448601  32.1818852  17.7469087  44.1852283
  32.9003453  18.2107472  43.7552261  31.8834901  18.3477819  44.8679733
  42.7364159  11.9187510  65.3767395  41.8276548  11.6235352  65.3198528
  43.2546520  11.1364579  65.1878452  71.1763859  77.8299952  48.5373163
  71.0851097  78.1973839  47.6581573  70.2767086  77.7072716  48.8402128
  51.3620472  43.4283352   9.0810633  51.4885855  43.6448956   8.1573087
  50.4277277  43.5690880   9.2342603  76.3239908  71.6020060  11.3994277
  76.1654902  71.2908077  12.2906423  77.1776009  71.2368727  11.1664939
  77.5007343  59.2495060  17.8590834  77.9160976  60.0916481  18.0448413
  77.2294378  59.3130732  16.9433379  78.6888647  11.2582064  48.3966684
  78.2810640  10.4237521  48.1651163  78.4970474  11.3682640  49.3279696
  18.4393895   8.0020374  60.3554344  18.8088036   8.6803383  59.7900391
  18.7028515   7.1784210  59.9449778  61.8165255  73.3765888  19.1969407
  61.0061216  72.8792810  19.0866661  61.5806866  74.0905714  19.7892606
  48.0652142  46.0862923  11.9960141  48.6133862  45.9217739  12.7632642
  48.5195017  46.7828226  11.5219867  16.9890928  33.5106373  43.4646940
  17.8521800  33.2400656  43.1514835  16.4799857  32.7005696  43.4935522
  78.8476610  16.7910254  38.1011343  78.8322878  16.1945784  38.8496304
  77.9262352  16.9887817  37.9334998  16.8945479  16.3994408  62.4727535
  17.2608721  17.1223795  61.9634438  16.5470767  16.8145382  63.2621813
  60.1113081  73.7534380   6.3578343  61.0142374  74.0150976   6.5380615
  60.1292372  73.4376526   5.4544026  79.2060947  67.7292538  18.2416093
  79.9282074  68.2862949  18.5322857  78.8879061  67.3123312  19.0423346
  20.9482750  77.7607122  48.4647942  20.9173331  77.9969608  49.3918657
  20.2085909  77.1651941  48.3445644  46.1964560   3.3698928  66.8174219
  46.1813498   3.8625598  67.6379633  46.7827892   2.6334679  66.9909763
  42.5906944   7.9016227  42.7727938  43.1435442   8.2908541  43.4503603
  42.5632763   6.9702297  42.9918528  36.0979128  25.6575274  53.7960243
  36.0994577  26.1209965  52.9585123  35.5141425  26.1720610  54.3534279
  37.9754734   4.1205937  15.2314687  38.0685830   3.3541113  14.6657240
  38.8089871   4.1760001  15.6988192  80.7649422  44.3133736  14.7520840
  80.5631351  44.9690151  15.4196477  81.4500237  44.7170925  14.2192554
  57.5895166   1.9130188  50.8971214  58.4192944   2.1642533  50.4914379
  57.2355652   2.7314585  51.2451267  76.0997772  53.7524796  53.5408068
  76.9753361  53.3771944  53.4470797  75.8021021  53.8933516  52.6420403
  12.3721898  52.7631140  10.8374274  12.3532045  52.1854353  10.0744343
  11.4607084  52.8085804  11.1261594  38.2713604  38.3409190  55.5538750
  38.5775161  38.9083123  56.2613821  38.0864406  38.9392757  54.8299932
  60.0690889  16.4146805   2.2381349  59.8220396  15.4918349   2.2977670
  59.2733526  16.8913901   2.4743190  79.4291067  23.2430148  41.7281389
  78.9312792  22.7728224  42.3969555  80.2199745  22.7180433  41.6049576
  31.6814184  35.6178832  41.2474823  31.3840818  36.3347578  40.6872034
  31.2352276  35.7648301  42.0814800  31.7768455  28.0111265  41.9534874
  32.3231363  27.8555608  42.7239418  31.6636705  28.9612699  41.9280148
  43.3459902  18.3675432  30.1241899  42.4075079  18.1935394  30.0520444
  43.4958744  19.1161180  29.5467782  68.9307737  36.8217802  11.3115001
  68.7524700  36.8272853  12.2519314  69.1954947  35.9213972  11.1231792
  10.5616343  34.3416929  43.1787586  11.1792290  33.9824128  43.8157225
   9.9391705  34.8432469  43.7052679  12.9158378  52.3960114  39.1069484
  12.6207852  51.5677977  39.4854236  13.2809949  52.1538353  38.2559228
  75.5341291  48.0409908   3.7936541  75.6883860  47.0988131   3.8624427
  75.6838989  48.3734560   4.6786776  58.1957722  15.5960345  45.1121712
  57.6435852  16.3738680  45.1915359  59.0809393  15.9109998  45.2952099
  65.6791845   0.6660865  56.0566568  64.8603383   0.2240013  55.8324194
  66.3600484   0.0217317  55.8631182  31.2894917  10.0499403  42.3013163
  30.6809688  10.7885826  42.3197269  31.1036491   9.6070927  41.4733171
  77.7454710  31.5480852  33.4703875  77.4796200  31.1495996  32.6416731
  76.9476843  31.5557718  33.9992642  48.4619093  68.2085466  43.5636902
  49.2769957  67.7488899  43.7651491  47.8204966  67.5109100  43.4290504
   5.3781736  15.7857835  21.6982365   4.7823673  16.1892819  21.0670185
   5.2903074  16.3213301  22.4867177  75.3063917   6.2923306  26.4341831
  76.0397100   6.0150826  25.8849907  75.7173681   6.6293418  27.2302675
  51.5641022  34.5626044  51.8556833  51.4345884  33.6317110  52.0370531
  50.7700729  34.8290658  51.3922739  51.1249924  22.8317380  51.7974091
  51.5483189  21.9848537  51.6566467  50.7300138  22.7605748  52.6664066
   7.8790933  31.2271070  17.5015521   7.0954001  30.7155633  17.3006046
   7.6173902  31.7899871  18.2301867  54.7586060  20.8777738  10.0441575
  54.1384840  21.4947987   9.6556205  55.2932596  21.4128923  10.6306946
  39.4471335  65.2532148  27.8382421  39.6708417  64.8117447  27.0189166
  39.0035510  64.5829678  28.3580828  36.0383654  75.7291889  22.7772522
  35.8803153  74.9404669  23.2960606  35.5321717  76.4114285  23.2183290
  11.9895637  21.9391251  61.1207247  11.4727688  21.9222355  60.3151989
  12.2694051  22.8504586  61.2066889  77.2080517   0.6463102  44.1729116
  78.1200027   0.5007587  44.4246960  77.2341347   1.4264241  43.6188602
  52.6789808  27.5440407  63.4574080  51.9457722  26.9297171  63.4927034
  52.9354334  27.6636839  64.3718195  46.2312174  21.1072540  28.6528230
  45.3376245  20.7766104  28.5611629  46.2545395  21.8901396  28.1025696
  69.4721270  68.5877705  26.2935948  70.2608395  68.8633537  25.8264637
  68.7502384  68.8689899  25.7314324  62.4100915  68.0784453   0.5126625
  61.6846767  68.0000294  -0.1069016  62.8815881  68.8625468   0.2314096
  22.5200224  31.4475369  53.8442373  22.4067783  31.0982656  52.9602575
  21.7343736  31.9726324  53.9967632  26.7725277  69.0426779   5.7939774
  26.0588074  69.3744373   5.2492106  26.3336587  68.6134863   6.5284270
   0.0974421  18.6630476  31.6191387  -0.2098139  17.9974878  32.2346520
   0.2145226  18.1910110  30.7946944  70.5627489  26.9043279  40.3476286
  71.4534903  27.1392202  40.6076956  70.4251003  27.3660302  39.5205164
  78.3387184  26.6431642  47.7165699  77.5049448  26.6422129  47.2463989
  78.7185955  25.7841206  47.5322628  22.6414347  62.8765869  32.8728485
  22.2536659  62.0454359  33.1468010  23.5115051  62.8780127  33.2718563
  25.9056020  58.3295584   4.1304564  25.5413485  57.7405548   3.4696773
  26.6211843  58.7797976   3.6816165  14.1257191  27.0431352  31.8985796
  13.8411689  27.9003644  32.2154713  14.9539983  27.2160697  31.4510536
   9.0379876  30.8122730  36.8175960   8.2789946  30.8627939  36.2365556
   8.7574464  31.2572193  37.6173162  18.1328595  32.9077196   6.6856205
  17.8126371  33.2782030   7.5080752  17.3435807  32.6080132   6.2345695
  77.2953129  45.6079197  60.0762939  77.5279522  46.5355396  60.1166868
  76.4288855  45.5957699  59.6696091  40.9276724   1.0405817  41.3323689
  41.0685968   0.1016525  41.2107801  41.7781973   1.3756594  41.6161919
  76.0375309  51.2934208   4.3849394  75.9440231  51.7554712   5.2180034
  75.1869917  50.8771610   4.2451411  16.6675961  19.8815596  16.5441370
  17.1294188  20.6949329  16.3407242  17.3307359  19.1984189  16.4451528
  52.4551010  57.2300434  54.7953653  53.1005907  56.5353489  54.9256611
  52.8626251  58.0095291  55.1729393  12.3901272   4.2126098  61.6849518
  12.6557338   4.9839139  61.1841774  12.5522280   4.4519961  62.5974512
  50.7645655  55.0154209  65.1531172  51.2373924  55.4676771  64.4544506
  50.6970215  55.6630182  65.8547497  77.2338247  56.8378735  10.9304619
  76.3331032  56.7198896  11.2321377  77.1586800  56.9249678   9.9801987
  38.0200744  17.2595775  14.4086277  38.5480809  17.9086649  13.9437318
  37.1241403  17.5907683  14.3466246   6.4340615  46.8177509  42.5085831
   7.3405504  46.5162706  42.5687504   6.1046410  46.7667770  43.4058666
   1.7816317   3.4574851  51.7643404   0.9425975   3.1314132  52.0898104
   1.6818586   4.4094384  51.7564487  36.5782928  52.2996664   6.7861062
  36.6750073  52.9380989   6.0795057  35.6431913  52.0955324   6.7981285
  10.5728853  47.9746437  37.1789408  11.4765668  47.7166414  37.3606682
  10.0775266  47.6611853  37.9356408  18.5424066  68.0559254   2.5649011
  18.4423196  67.1939754   2.1608476  19.4862247  68.1529760   2.6914784
  36.2216949  11.7036641  29.9202824  35.7149482  12.2732615  30.4990721
  35.7621884  11.7445958  29.0815878  25.6360850  77.7982550  45.1386261
  25.6004366  77.3782756  45.9980297  25.8012137  78.7215009  45.3298855
  20.1397824  18.0331695  28.2289243  19.4399834  17.6389503  27.7082443
  20.6884503  17.2940540  28.4914207   4.9326324  64.1234875  32.5141191
   5.2262217  64.2579556  33.4152055   5.3738642  64.8097467  32.0135236
  54.8642683  49.3031740   5.0735074  54.8761702  48.6068773   4.4167995
  55.3971863  50.0010061   4.6923780  38.9463925  15.2661169  61.6111898
  38.5201430  15.1866603  62.4645519  39.8355055  15.5571246  61.8137360
  28.8251734  72.8924179  64.4113731  29.7017145  73.0880833  64.7424650
  28.9657855  72.2218084  63.7429857  23.8364673  75.0465202  52.9478407
  23.4768176  74.3231821  52.4343538  24.7716045  75.0435495  52.7435303
   6.7570579  75.7148743   0.3987291   5.9613943  75.7176352   0.9308410
   6.4892983  76.1024952  -0.4345106  25.6034440  77.4740493  67.6583039
  25.7282322  77.5122869  66.7100437  25.2582043  76.5958989  67.8192313
  78.2145262  67.9031038   5.1360953  79.0348005  68.3883810   5.0473070
  78.4212494  67.1922588   5.7428855  72.0023870  13.0631876  52.5756598
  71.1747932  12.7527797  52.2082758  71.8851995  12.9929233  53.5230541
  37.4136806  10.1142979  50.7990503  38.1667137   9.7232598  50.3560400
  36.9704056   9.3751663  51.2154913  72.0324230  21.1518979  17.0643914
  71.1845207  21.5345979  16.8389308  72.3476982  20.7690310  16.2457037
  52.3426819  25.7331610  36.4643955  52.1107149  26.3375139  35.7592821
  51.6606474  25.0620413  36.4386892  39.4070697   8.9232969  53.7356186
  38.8469672   9.3946874  53.1189251  39.5188975   8.0571729  53.3437538
  59.0967464  75.3368330  38.4699869  58.6967230  76.1120558  38.0759668
  59.9799347  75.3097534  38.1019187  75.2144337  33.1423044  52.3811913
  76.0614586  33.4747696  52.6782465  74.5894814  33.8237810  52.6286888
  15.4212201  69.4683409  11.6323984  16.0078919  70.1055193  11.2249064
  15.9100902  68.6456394  11.6124189  65.1080942  11.5837705  59.7584629
  65.3821564  10.9019184  59.1451120  64.2309523  11.3185942  60.0351048
  74.6616220   2.6989743  28.4088635  74.4591093   3.5143277  28.8675809
  74.6436501   2.9351091  27.4814224  22.4833083  60.5806065  24.7519732
  22.0533228  60.7631588  23.9164972  21.8609285  60.8838701  25.4129601
  71.3116884   7.1273887  45.0031900  71.1017656   6.3664305  45.5445814
  71.2956285   6.7946559  44.1058254  64.7404909  27.0903230  40.9203005
  64.4175720  26.2031984  40.7622814  65.5038834  27.1726847  40.3487492
  53.7009764  36.7997074  54.9460268  53.8211203  36.8672490  53.9987993
  53.3245373  35.9296298  55.0782728  59.0963697  21.4847636  45.7984924
  58.9986992  21.3004136  44.8643017  58.4364700  20.9352493  46.2213373
  43.3495855  76.6510534  49.8067808  42.5974369  77.1466732  49.4829512
  43.7855530  76.3334370  49.0160322  23.8741875  13.9444840  38.8799644
  24.6596718  14.4910681  38.8577819  24.0902781  13.1921422  38.3290386
  43.5900116  11.5832174  55.9062338  42.9666948  10.9075046  55.6395531
  44.0510559  11.2022567  56.6535902  49.5921707  45.2528238  48.6016703
  49.8976803  44.3503380  48.6933661  49.8875761  45.5183744  47.7307796
  39.0414190   1.7258126  58.2822275  39.6162391   1.0089888  58.0139399
  38.1840205   1.3156444  58.3956432   9.4035083  64.3072701  13.2387304
   8.9422709  64.8079777  12.5658381   8.7527525  63.6840487  13.5617590
  16.0924089  24.3865943  62.6851130  15.8858502  24.1274261  61.7871189
  16.0484755  23.5718799  63.1856537  59.8873997  52.9715109  17.3099720
  59.1601515  52.7297926  16.7364597  60.2850819  52.1366930  17.5572848
  78.3575773  16.2481868  14.8139596  79.2100477  16.6214323  14.5898700
  78.5607004  15.5294871  15.4126620  65.5817032  41.7898130  45.2887917
  65.3309155  42.6386690  44.9243975  64.8871994  41.5830231  45.9141970
  66.2587261  41.4354420   9.8979175  66.5342283  40.9984827  10.7037687
  67.0773029  41.6775036   9.4648236  53.5891294   7.6988292  54.4663906
  53.4626865   6.8823242  54.9496746  53.4241962   8.3867919  55.1111650
  76.2489033  41.6330814   0.9139836  75.6779289  41.1273956   1.4923483
  76.9415283  41.0207224   0.6659575  13.4099627  69.9507427   6.6254580
  14.1104805  70.2130985   6.0282344  13.8388610  69.3770361   7.2603899
  30.3382826  74.3061018  28.4372997  30.9943008  74.7542906  27.9034495
  30.8280897  73.9735365  29.1894436  71.6239977  60.9418344  56.9615746
  72.5032759  60.7854843  56.6171074  71.6048193  61.8795967  57.1525288
  67.7216196  29.7114682  46.5353918  68.4056139  30.0481939  47.1141815
  68.0269861  29.9256063  45.6538391   4.9758577  65.5835152  16.6730154
   5.1173967  64.7649908  16.1973870   4.0482706  65.7796955  16.5413857
  16.1239612  74.3662310  34.6622324  15.1991165  74.3153000  34.4207788
  16.4403903  75.1606655  34.2321491  81.1081791  11.9547915  52.2601891
  81.6377163  12.0529878  51.4688778  80.6636047  11.1145341  52.1481419
  54.3683672  15.6584680  52.4978209  53.9976978  15.9914267  51.6805220
  54.7353792  16.4314616  52.9267931  38.7218332  23.2292080  51.5258980
  38.9602017  23.7888694  52.2649431  39.3299556  22.4918389  51.5779352
  63.7561941  62.1607304  15.2218711  64.2830133  62.1895933  16.0205317
  63.6150312  63.0798054  14.9947131  70.0346804  38.9136100  58.4262609
  69.3151855  39.4606256  58.1110907  70.8221674  39.4279695  58.2486820
  48.3639812  29.1881585  10.5968821  48.5038567  30.0086188  10.1241124
  47.6620102  28.7507653  10.1150572  79.8810911  13.4657633  43.5914326
  80.7978535  13.5530663  43.3303595  79.6086597  12.6220000  43.2307720
  12.0283127  35.1062179  54.0027618  11.1521530  35.0003839  53.6321163
  11.8783247  35.2334762  54.9395323  43.6352921   6.9237226   6.9179535
  44.3778467   7.3439693   7.3518169  44.0341139   6.3351458   6.2770563
  50.4886675  28.4540749   8.1193918  50.9603357  29.0897441   8.6576176
  51.0446262  28.3325744   7.3497295  26.4019322  13.4573293  55.3206491
  27.0352364  13.0337727  55.9000969  26.8163204  14.2851198  55.0771809
   7.8685290  22.7493930  34.6141815   7.1991724  22.1810770  34.2331147
   8.6659056  22.5397038  34.1279173  23.8707590  25.9442282  21.8698478
  23.6245775  26.8618989  21.7536473  24.8031616  25.9717226  22.0845652
  58.5293961  12.5989068  50.7907152  58.8002634  12.8685308  49.9131250
  58.1316805  13.3826208  51.1699820  14.0512788  73.6844587  45.8028364
  14.5982301  72.9596090  46.1056042  14.0003431  73.5661316  44.8543453
  26.3195586  58.6105204   0.9794956  25.4140759  58.3865452   0.7646347
  26.3615584  59.5614243   0.8782770  58.8645458  71.9249105  11.7143452
  58.5190344  71.4466047  12.4680555  58.4050369  71.5512276  10.9623849
  44.0994453   3.8504404   8.7891537  44.8082304   4.4927257   8.8255954
  44.4566011   3.1287238   8.2716632  80.3668690  47.7543163  10.6176710
  80.3135014  46.8196011  10.4184401  81.1247921  48.0622387  10.1207125
  47.0748329  67.0720577  29.3926215  46.2593508  67.5254822  29.1790199
  46.7937708  66.2548447  29.8042083  22.2378635  13.3188653   8.8760519
  22.2803974  14.2059779   8.5190451  21.9624734  12.7762723   8.1371444
  51.7809343  71.9476748   6.4020836  51.4018345  71.4388752   7.1187705
  52.4505615  71.3742161   6.0292900  80.8471775  68.3340216   5.5608773
  81.1145878  67.5153685   5.1431066  81.2065315  68.2795572   6.4463896
  53.0168009  34.1650176  54.6186733  52.5037336  33.8943148  53.8572884
  53.8528681  33.7098980  54.5182037  37.7731943  19.8120856  29.2794752
  37.1580338  19.4375360  28.6489820  37.6868272  20.7585001  29.1651392
  46.1914015  32.5744987  44.3720531  46.9531822  32.0227790  44.5496178
  45.5288887  31.9685030  44.0402746  36.0521436  46.1098051   7.9374766
  36.6224647  46.8009806   7.6009691  36.5908313  45.6455564   8.5781968
  11.5445602  68.1528091  11.1544788  12.1598160  68.7000608  10.6664109
  10.9684396  67.7842999  10.4847634  80.0189114  47.7818871  28.2046771
  79.6520042  47.6108313  29.0720582  80.2985287  48.6966896  28.2390499
  14.6662998   0.8564267  24.7046351  13.7626493   1.1328839  24.8570085
  14.8652315   0.2735353  25.4373670  37.5717783  74.6387291  32.6396370
  37.6807809  74.0428925  33.3807993  38.2096767  75.3350019  32.7962446
  20.5440426  75.4903269  57.1383142  19.7511148  74.9576712  57.0768547
  20.2367258  76.3905430  57.0315409  74.9605179  37.8579569   1.8587923
  74.5695877  37.1243644   2.3333925  75.8462620  37.5623155   1.6483423
  29.0144610   5.9517431  14.4823384  28.1310248   6.2814814  14.3178928
  29.5564103   6.3770103  13.8177550  79.5234537  77.0841408  43.3039570
  78.6039495  76.8189096  43.2839870  79.9763060  76.3476372  43.7147141
   0.7047995  55.9087229   3.7694171   0.3492175  56.0005474   2.8854707
   1.4996377  55.3878021   3.6549267  60.8901596   6.9683087  47.4479103
  61.6626072   7.4599934  47.1689844  60.8526611   6.2217587  46.8500042
  72.2104883   8.7101674  62.4878693  73.0282259   8.8869911  62.0228148
  71.6309357   9.4287896  62.2350168  50.1884222  32.7767205  66.4590931
  51.1064720  32.9991674  66.3043976  49.9135208  32.3255467  65.6609058
  10.7370460  13.5836887  36.6035509  10.4653907  13.4852660  35.6910014
  11.6921949  13.5271776  36.5765405  59.3845510  47.2314024  55.4000664
  58.7628460  47.8732967  55.0570059  58.8364792  46.5170765  55.7250166
  61.8077850   1.0168209  44.5213747  62.1258163   1.6929112  43.9230537
  61.6664982   0.2512789  43.9644051   6.4250827  54.9501276  52.3496771
   6.1928380  54.4385481  53.1246471   7.3735988  54.8483896  52.2709417
  67.7817440  27.8618121  28.6398983  67.4573851  27.7160096  29.5285869
  67.1586943  27.4001026  28.0787683  71.4685726   4.1645071  57.0190382
  71.4741802   4.9966997  56.5461159  70.7729053   3.6565074  56.6016483
  64.6485186  36.9998288  19.6132267  65.5413580  36.7136073  19.4204843
  64.2191124  37.0368719  18.7585521  73.9303398  14.9519098  25.0940323
  74.1823149  15.3490877  25.9276938  73.8767529  15.6880212  24.4845223
  54.0422201  23.0210161  52.7323341  53.2288122  23.3563137  52.3552752
  54.7337770  23.4913087  52.2667122  74.3661451   8.2197034  33.6739707
  73.9482546   9.0070820  33.3252072  74.7344923   8.4957689  34.5132208
  13.8347805  35.3528953  63.4355450  13.2622635  35.1057529  62.7093363
  14.7101986  35.0913739  63.1500912  53.3388901  20.4583383  53.2288361
  53.8857651  21.2368202  53.1233406  53.5923862  19.8874748  52.5035191
  20.7669187  10.1101053  53.8439655  20.3177190  10.6498420  53.1934738
  21.6920447  10.1672781  53.6049938  44.3190050  53.0673742  45.5442953
  44.5853281  53.9813805  45.6437492  43.5789633  52.9670286  46.1430502
  82.3338604  70.8775330   5.5256802  82.0573425  71.2573051   6.3596731
  82.0476341  69.9652672   5.5713028  12.1608341  10.4692662  10.3037214
  12.6724780   9.7454554   9.9424058  11.4092481  10.5479991   9.7162265
  58.3604622   9.0759903  45.2827644  57.5574350   9.2756182  45.7639408
  58.7850380   8.3908945  45.7991076  17.7984130  75.7407236  59.6257782
  17.7827871  76.6766596  59.4257355  18.3284903  75.6743813  60.4200363
  49.3850946  22.4904013  43.6065865  48.4374285  22.6226807  43.5807753
  49.5629740  21.8902969  42.8823853   8.0879050  42.8987360  17.7999938
   8.0144638  42.0124769  17.4459016   7.6493412  43.4520102  17.1536314
  23.9632726  64.4522142  62.3826647  23.8577342  64.1399384  63.2813168
  24.8112822  64.8961878  62.3814154  81.7690754  15.3196132  40.9355450
  82.4850845  15.8933711  41.2082481  82.1496296  14.4413471  40.9435225
  49.4811106  35.3836322  48.5327196  50.2274513  34.8113370  48.3547258
  49.1621923  35.6376696  47.6667023   3.0225056  10.1666796  25.9856749
   3.6994234   9.7100419  26.4851713   3.4026185  11.0243750  25.7956648
  26.0352755  67.5887918  45.2741718  25.2896976  67.1395779  45.6723547
  26.4407396  68.0671978  45.9973288  23.5735083  36.1111403  36.1190176
  23.6822009  36.1026382  37.0699883  23.7014484  37.0268917  35.8715010
   8.2852292  23.7186241  29.4519210   7.4391818  23.5536981  29.8681355
   8.4416389  24.6529198  29.5892501  28.7595534  23.9845991   7.1813411
  28.0629182  23.3456707   7.3320121  28.2987642  24.7923088   6.9543928
  60.8142462  -0.1071335  53.3816862  60.0048915   0.2895521  53.7038851
  60.6865373  -0.1772286  52.4356365   5.5910063  35.3335023  13.3194339
   6.0149992  36.0458827  12.8409207   5.0116652  35.7740808  13.9411151
  41.7769098  18.1845164  49.1898060  42.1513271  19.0361190  48.9643764
  41.0034704  18.3939564  49.7133970  58.5536671  44.8428917   0.8199614
  58.6010885  45.6623936   1.3123019  59.4669104  44.6142626   0.6469040
  74.1326666  10.7538819  19.4171917  75.0101185  10.4293442  19.2147470
  73.9261341  10.3702521  20.2694845  23.9485598  30.0071859  49.1934729
  24.6571016  30.2034354  48.5805464  23.1571269  30.0150299  48.6551380
  50.6956053  70.7744884   8.7631148  50.6544256  69.8237562   8.6599743
  50.6853104  70.9133387   9.7101349  12.1651006  76.7496777  13.9640260
  12.5095963  76.6183662  13.0806744  12.1023679  75.8675289  14.3302321
  69.7626734  59.7546387  15.7819486  69.1710758  59.1917849  16.2813926
  69.3688965  59.8028660  14.9108315  31.8146205  17.1288061  39.8827219
  31.7825770  16.5721846  39.1046643  31.2749553  16.6709125  40.5271816
  44.2610741   2.6585722   1.2951754  44.3288898   3.6033219   1.4333075
  44.0220642   2.5679305   0.3727375  48.2617426  16.6812897  47.7582741
  47.7827644  16.1751306  48.4144878  49.1227531  16.2651849  47.7164078
  76.2666512   9.5474619  53.7044716  76.2319517   9.3037117  54.6294641
  75.3923845   9.8871017  53.5133266  71.2516227  44.0377743   0.0154262
  71.0957065  43.5134004   0.8008915  72.0918051  43.7240670  -0.3191036
  69.4574833  45.6231165   6.5923882  69.2581034  45.3720903   7.4943107
  68.6031342  45.6756401   6.1639494   7.9615515  35.0811529  48.4308672
   8.6373520  34.4220710  48.5894108   7.4552864  35.1052213  49.2428684
  13.5176766  29.5536637  42.3130703  13.4420514  28.6813045  42.6997232
  12.7213120  30.0076461  42.5886345  29.8577476   8.9108717  15.7863855
  30.1017118   9.3156183  16.6187882  28.9378214   8.6707538  15.8973348
  25.2749729  59.8102283  24.9052262  25.2838898  59.5060730  25.8127737
  24.3707108  60.0851059  24.7536182  17.3574162  40.0458145  27.8128743
  17.6450276  40.9587097  27.8245354  18.0816507  39.5717239  27.4042773
  15.5369985  55.4545307  15.7706785  16.3645864  55.8737183  16.0065019
  15.7570302  54.8901653  15.0295258  75.3202152  50.9969234  14.9244690
  75.9216928  51.7050266  14.6941495  75.3379440  50.4117680  14.1671646
  70.3884315   2.6920480  50.3529215  69.6784544   2.1584281  49.9959612
  70.9693766   2.8469673  49.6081114  15.2428997  17.3706722   9.1711146
  14.6986985  18.1122446   9.4359708  15.0734508  16.7006421   9.8333669
   7.3276800  49.7100449  30.9182119   7.4041247  48.8424969  30.5210376
   7.5213999  49.5672369  31.8446636  39.8600960  12.5252151  57.9076195
  40.1588678  12.8210461  57.0477057  39.7807574  11.5753520  57.8198862
  80.2591515   2.6196980  49.7476149  79.3745852   2.6552391  50.1116371
  80.2164650   1.9340633  49.0810442  12.1983743  28.7364149  39.6427393
  12.7008224  28.7534475  40.4572868  11.8670356  27.8402877  39.5844054
  46.4521933  21.8076205  57.6770163  45.9256506  21.0625196  57.9665089
  46.3577986  22.4538946  58.3767653  57.7295780  29.8677874  49.7991371
  58.2799816  29.7399902  49.0265131  57.5844622  30.8132005  49.8361111
  46.5648699  26.2638974  61.5606117  47.0132208  26.6087437  62.3328161
  46.0311222  25.5433059  61.8954182  57.3263741  53.6837482  55.9847355
  58.1984520  53.5543585  56.3575220  56.7602587  53.1022072  56.4922380
  32.9768515  50.9992743  13.1475079  33.4589839  51.5375137  12.5197506
  32.5553536  50.3267908  12.6124036  70.3416204  69.9033499  28.3896589
  69.9296379  69.3775225  27.7040863  70.2485180  69.3770027  29.1837168
  66.7965841  76.1157322   3.7488973  66.4331722  76.6660500   4.4426629
  66.0428762  75.8872032   3.2049030  74.2047548  14.8644030  42.7658463
  74.2305088  15.7394195  43.1530333  75.0979519  14.7128093  42.4569082
  26.5031171  14.7731543  28.9927006  26.4262414  15.5156267  28.3934855
  25.6208277  14.4039249  29.0309906  68.1343889  55.7506466   7.9860812
  68.1734514  55.3427458   8.8511366  67.1995401  55.7995462   7.7863288
  56.9211531  72.6953697  42.2561455  57.3164320  72.7608728  43.1254530
  57.6624584  72.5624990  41.6653538  13.6621761  58.4872913   9.5350873
  14.3465686  57.8186512   9.5625591  14.1375434  59.3177462   9.5597315
  21.7920399  68.9217043   9.1611671  21.6653776  68.6130381   8.2639980
  21.6111875  69.8607254   9.1191709   8.4895980  26.9288969  65.7749224
   9.0410846  27.2373080  66.4939356   7.7128404  27.4869919  65.8124590
   1.5250473  21.7693901  40.9147263   1.4165768  20.8609176  40.6334019
   1.6691795  21.7120457  41.8592739   8.2562363   2.4415770   8.0718803
   7.4514365   2.9587474   8.1044948   8.9592969   3.0904192   8.1025636
  82.7303291  10.5534673   1.3425905  82.0461022  10.7791924   0.7124207
  82.5162815   9.6626127   1.6197065  28.3752561  13.2278275  45.1283264
  27.6685667  13.8677585  45.0428343  28.9459920  13.5903621  45.8058643
   1.5313941  71.5350437   3.2943133   0.6711055  71.1156845   3.2778540
   1.4507630  72.2211361   3.9568886  17.3522675  19.1354942  58.3765793
  17.5094259  18.8587189  59.2793131  17.4736989  18.3403587  57.8576899
  61.7222023  41.2069416  61.1335182  61.9056845  42.1366119  60.9983301
  62.3562670  40.7543230  60.5773449  72.2003889  55.4920769  37.1621990
  72.3944187  56.3490057  36.7823863  72.6566362  54.8700523  36.5954924
   2.0700797  63.1824017  50.7004786   1.4283416  62.6040936  50.2882099
   1.6754812  64.0529966  50.6495857   6.9883716  75.4003191  26.0851121
   7.5110489  74.6072388  26.2037277   6.1342728  75.1823092  26.4582324
  70.9213591  52.8898430  14.8769927  71.1117935  53.6713123  14.3580770
  71.7547178  52.6698685  15.2933586  62.3787785  13.2518935  31.0129690
  61.9819593  13.7458062  30.2954650  61.6940784  13.2071280  31.6803598
  62.1685553  31.4226770  53.3071852  62.9406261  31.9807243  53.2137966
  62.4942780  30.5356503  53.1544685  44.5199442  43.2313681  54.8076534
  45.1409721  43.9312553  54.6058846  43.7864017  43.6768818  55.2315187
  57.3414803  19.4027960  35.8033180  56.6532326  19.8224902  35.2871776
  58.0512810  20.0446916  35.8229637  82.2052956  59.5633030  46.1331892
  81.4436245  59.4996786  45.5569696  82.2029972  60.4720879  46.4337587
  56.1554098   6.7744255  19.3683863  55.5292320   6.2041885  18.9223301
  55.6132412   7.3490942  19.9087977  48.5819912  73.6785221  27.1639371
  49.3922663  74.1796923  27.0716858  48.0067158  74.2456675  27.6773930
  24.1099429  41.2270355  55.4414558  24.5095444  42.0732689  55.2403450
  24.3155885  40.6790161  54.6840858  18.7520361  41.9447803  35.3615761
  19.1114330  42.5327539  34.6972346  18.8765848  42.4120712  36.1876249
  77.7317524  49.3390417  42.7312279  76.8647766  48.9667463  42.5700331
  77.5707102  50.2735996  42.8611946  60.4911995  74.8504686   3.0013952
  60.4473877  74.0731287   2.4445704  61.4035368  74.8883152   3.2885057
  32.4302909   0.3351186   8.4928089  31.7042998   0.5458044   9.0799898
  32.7534428  -0.5100132   8.8051468   4.7693023  53.9469719   1.2174394
   5.7002264  54.0278387   1.0098965   4.6109682  53.0033398   1.2442209
  23.9283323   1.3764809   7.0076466  24.7648644   1.8242100   6.8812186
  23.6133432   1.6921191   7.8546327  57.3926973  27.5585103   6.2036854
  57.0388412  27.3955631   7.0780212  57.4514246  26.6909409   5.8035547
  12.7938402   8.6603594  17.9323649  12.6120710   7.8790760  17.4100733
  13.6528718   8.4943849  18.3206308  60.3815460  48.0086994  67.3798656
  60.3273153  47.1106148  67.0531702  61.2361574  48.3206320  67.0822620
  44.0480804   3.9238957  44.7057199  43.2336473   3.4210393  44.7138548
  44.2546940   4.0301606  43.7771463  74.2587137  46.2631941  41.3767767
  74.5616627  46.0242987  40.5007696  74.7959185  45.7359123  41.9680595
   3.1742799  41.2423897  41.9509840   3.3642453  42.1002340  42.3307800
   2.5073400  41.4168358  41.2869120   8.9902550  72.7804136  63.5869598
   8.7514842  72.4399757  64.4491243   9.3210268  72.0182180  63.1116915
  31.2170458   9.0773743  39.4687963  30.5137062   8.4718084  39.2346287
  32.0011783   8.6990464  39.0710044  64.9967051  17.3067772  58.7907314
  64.3645334  17.0910203  58.1051350  65.7576370  17.6434004  58.3175564
  79.1688013  43.1241894  36.8948150  79.6087313  42.4150133  36.4260292
  79.6219254  43.1721115  37.7366066  48.9872408  23.2816672  46.7878246
  49.5421314  23.5904408  46.0715961  49.3342447  23.7190652  47.5653219
  58.6035633  38.1818342  61.3614607  58.2048321  38.1708622  60.4913330
  57.8613520  38.1566048  61.9653749  66.6670322  48.4650898  43.7996817
  67.3872375  49.0043116  44.1264391  66.0814571  49.0852785  43.3652782
  82.2776699  21.1515856  55.8806849  83.0963898  21.4850426  55.5136108
  81.5934753  21.6399670  55.4228735   8.2454056  11.5068209  63.7608147
   8.9277059  12.1495426  63.9547396   8.0736291  11.6147232  62.8253555
  57.0277548  51.2704086  65.9644747  56.9844770  52.2222853  66.0555363
  56.2937069  51.0510826  65.3906298  61.3076973  37.4282551  51.8936157
  62.1057081  36.9926786  51.5941429  61.2531471  37.2142935  52.8250027
  70.9403324  20.6093979  40.1270676  71.7563391  20.1150846  40.2046061
  71.1359596  21.4583445  40.5236149  22.3785162  48.6313248   2.6214692
  23.1084013  48.7332392   3.2322997  21.7436910  49.2937899   2.8941745
   2.5231522   2.9110432   0.7419401   2.0459987   3.2500303   1.4993331
   1.8715823   2.8830320   0.0412947  63.9787960  49.7392464  39.6058416
  63.1778240  50.1470041  39.2765880  64.6287012  49.9015188  38.9220858
  57.5297546  54.1220140  39.3437815  57.0980978  54.7123718  39.9613452
  56.8928337  53.4230232  39.1955543  65.8201694   0.5635027  27.1949458
  66.0268402  -0.3554630  27.0245886  65.7146025   0.6131171  28.1450129
  48.4990025  31.8509746  64.6731901  47.8412294  31.9414306  63.9837074
  48.1500673  31.1709023  65.2493668  60.0278425  73.2085752  56.1299849
  60.4554939  73.4216642  55.3005695  59.2875147  72.6546478  55.8823681
  25.9758520  58.8055706  10.1628828  25.9354734  59.5895100   9.6151263
  25.0616384  58.6086941  10.3670549  52.0717859  67.0015717  41.2521744
  51.2611437  67.2352123  40.7999468  51.9068289  67.2222853  42.1688557
  -0.0705592  27.7495098  23.0441618  -0.1020019  27.2785091  23.8768697
   0.2443440  27.1013474  22.4141169   5.5717534  45.7305384  49.0363932
   4.9740386  45.0171661  49.2601490   6.3580000  45.5553246  49.5534468
  12.8583467   2.0573895   0.8346535  13.6380601   2.5426000   0.5647467
  12.3305190   1.9904631   0.0389457  28.5008740  28.0505466  57.5516939
  28.5621786  28.9576983  57.8509378  28.3954883  27.5401020  58.3545446
  22.1721745  71.8318653   3.3306652  21.3384247  71.4897442   3.0081081
  22.5465775  72.2956848   2.5817138  70.4734802  44.4747066  45.0578976
  70.5544853  43.7591553  44.4272947  70.0120306  45.1639223  44.5801210
  77.6583624  33.0575228  64.1614771  77.6861620  33.0565333  65.1182699
  78.5777617  33.0544209  63.8951492  38.3214569  17.1763527  26.5033317
  39.1653776  17.2318637  26.0550618  38.5278034  16.7929113  27.3557544
  59.6150875  56.5247822  50.8141565  59.5602846  55.5692005  50.8044863
  58.9576483  56.7959166  51.4548540  75.4964304  23.2645726  42.1655321
  75.2300358  24.0077448  41.6242743  75.9511471  22.6784849  41.5605831
  52.2491407  19.0271735  29.1356325  51.3408422  18.7554765  29.0036678
  52.4524689  18.7563980  30.0309348  82.2237110   2.0422113  32.6956558
  81.6173077   2.7705038  32.8301740  81.8520069   1.3234758  33.2070160
   8.3418196  35.7943630  24.4977570   8.1403995  34.9476433  24.8961568
   9.1118985  36.1057472  24.9734139  16.2086320  68.1632090  20.3418207
  16.4681673  67.2696686  20.1171947  15.4133964  68.3170271  19.8317504
   8.0932337  17.4665713  47.1230698   7.7862829  17.2858226  46.2346220
   7.4323577  17.0693564  47.6902533  69.5056248  37.5383544  45.1933098
  68.9340782  37.2944713  44.4652367  69.1847324  37.0223951  45.9329367
  80.1501274  44.3283558  52.1047592  79.8504496  44.3896341  53.0117702
  80.5897808  45.1626730  51.9408846  63.4171629  17.3987627  56.0831547
  62.5319958  17.3328698  55.7248592  63.9657211  16.9303596  55.4539394
   4.6464065  24.3450332  52.4188089   3.9681989  24.0567470  51.8079424
   4.2612073  25.0984907  52.8662014  47.6687622  54.9293661  64.8011446
  47.4454546  55.0151682  63.8743210  48.6258125  54.9248981  64.8175001
  26.0454822  57.4094868  23.6097002  25.4662943  56.8394375  24.1154838
  25.7446098  58.2956696  23.8106632  72.3073244  55.0165033  43.4996557
  73.0196333  54.3770933  43.5009003  71.5154648  54.4926786  43.3779955
  75.2652931  38.3516121  42.6651239  74.4307947  38.8049841  42.5455475
  75.5103588  38.0649734  41.7853451  20.9089470  62.6826334  30.8324456
  21.5235567  62.7894402  31.5584445  20.0718832  62.4879456  31.2539339
  78.5089384  55.1211763  67.7889228  79.1180978  55.7343161  67.3775662
  77.8348671  54.9721146  67.1258680  71.4744473  38.7406802  53.3909845
  72.0751143  38.1800199  52.8999758  72.0250607  39.1609001  54.0516472
  76.3846064  26.1566877  54.6154785  75.4419279  26.0201931  54.5208693
  76.5356541  27.0350790  54.2664194  41.2144232  13.9498997  51.2852144
  40.6086349  13.2243609  51.4363480  40.7116938  14.5774782  50.7659435
  70.6340837  41.8856573  66.2432909  70.0000048  42.5585890  65.9956408
  70.2332211  41.0634613  65.9612703   8.8723075  73.6444187   3.5353133
   8.5042977  74.5043945   3.7383932   8.5530871  73.0757570   4.2359975
  44.2675877   1.1410981  55.3112698  43.4436750   0.7567157  55.0118589
  44.1193104   2.0859294  55.2720308  43.5111332  20.2115345  28.2150698
  43.3848906  20.1002955  27.2727728  43.1051970  21.0554671  28.4131265
  15.1749551  70.8310795   1.2996159  14.7652960  71.6946173   1.3517328
  14.4504225  70.2329159   1.1166230  56.6204643  48.2805252  52.9410315
  56.5957451  47.8844929  53.8121128  55.7113171  48.2591581  52.6423264
  75.9273720  73.0012083  28.1177449  75.1912212  73.3004475  28.6513877
  75.6516695  72.1462297  27.7872372   1.0845006  66.5139341  53.7117767
   0.6701870  65.9394073  54.3555927   0.5175973  66.4596558  52.9424238
   8.1632662  37.5169516  39.4127798   7.9219651  38.4288406  39.5754528
   9.0209597  37.4187422  39.8262382  53.6310244  64.2624664  41.1330271
  54.4730806  64.5903206  40.8173084  53.0640364  65.0335312  41.1476660
  47.8362608  70.7048845  54.5333147  48.2914686  71.5440989  54.6021461
  48.2764769  70.2519083  53.8141108   0.2006181  37.3446083  30.4227114
   0.0044663  37.8584838  29.6393275   0.3352578  37.9973054  31.1098027
   0.3469022  45.7043791  54.4107103   0.3796132  45.5277109  55.3508949
  -0.5807368  45.8524990  54.2269659  61.7214108  28.4684587  46.5522194
  61.7688417  27.5124383  46.5493584  61.1602163  28.6826515  45.8069611
  59.4814682  42.5187588  53.6996365  59.6834326  41.6842556  53.2764864
  59.9213171  43.1743765  53.1584024   9.3424761  18.5701573  42.7851963
   8.9839089  18.6551178  41.9017696  10.2883470  18.5034585  42.6543856
  55.9093714  25.6468177  30.5631328  55.0343704  25.2880764  30.4150963
  55.9229898  25.8684444  31.4942241  70.6252098  21.9414520  61.0292530
  69.8429728  21.8173218  61.5667677  70.9431553  21.0544896  60.8606052
  72.8479099  44.8079586  53.2926941  72.6444960  45.0430441  54.1980076
  72.7047062  45.6146812  52.7977991   0.5724072  70.4279852  56.5707541
   1.2628090  70.7584047  57.1455574   0.1427791  71.2149382  56.2355566
  25.7807302  71.4280415   2.6789451  25.5937409  72.1279097   3.3046049
  26.6359568  71.0907125   2.9454565  16.5144992  57.9134130  37.5282216
  16.4199126  57.1653986  38.1179357  16.7684615  57.5270367  36.6900992
  55.3163958  19.0521073  41.3498068  55.6532335  18.3121526  41.8550158
  55.8444643  19.0572441  40.5514622  49.4903421  70.8702898  19.9031460
  48.8468218  70.5934429  19.2508650  49.8201370  70.0528049  20.2762198
  21.9897032  17.6144242  25.7675099  21.5032172  18.0896926  25.0939512
  21.6927671  17.9977369  26.5928173  56.9817972  21.8793416  51.9287539
  56.9467020  21.0010505  51.5498018  57.8907776  22.1550512  51.8105459
  72.5622368  64.3570518  38.9165044  71.7664719  64.0050697  39.3153787
  72.4169683  65.3026867  38.8863826  40.6325150   2.1293533  17.5351882
  39.8764038   1.8487242  18.0507207  40.4561234   3.0479091  17.3317850
   1.3069703  52.8293037  55.2527666   1.2950085  52.9625130  56.2005758
   0.6883287  52.1142817  55.1035643   8.1433821  42.5586128  28.5496616
   8.1928593  41.8876076  27.8688264   8.3283246  42.0887995  29.3628669
  71.3979101  58.2161236  54.5461893  71.3456202  57.5976467  53.8175058
  72.3052263  58.1574726  54.8454857  21.9672823   1.9765711  16.5965712
  22.9173708   2.0156194  16.7062974  21.8049264   2.4100177  15.7587183
  77.1093082  34.0263247  40.4366875  77.7777338  34.5453048  39.9893594
  77.1896601  34.2748356  41.3575697  15.9671867  18.4493613   0.2898933
  16.0430717  19.1592634  -0.3476896  16.4690268  18.7523711   1.0465796
  67.7315426  72.1726799  18.8525343  67.3907518  71.6238737  19.5588648
  66.9511747  72.5341272  18.4322810  21.1410832  49.3463612  67.2021580
  20.8067179  50.0169992  66.6066122  21.8310404  48.9070177  66.7050028
  71.3718128  14.3566823  49.8324394  70.4309559  14.4428015  49.6788216
  71.7757368  14.6517181  49.0163374  65.1610565   5.2403295  16.1003876
  64.6498013   4.4728434  15.8438492  64.5086813   5.9263778  16.2417293
  80.8597660  63.9576721  41.4845657  81.5051651  64.3483543  42.0736837
  80.2118206  64.6486712  41.3470173  62.1587181   3.3595520  17.2960746
  61.2328529   3.5538316  17.4418902  62.3763132   2.7127150  17.9672575
  11.3741159  42.0473957  12.3745430  11.9770432  42.1380377  11.6366434
  10.7853508  41.3379812  12.1170259   9.6967124  46.9072343   0.2052933
  10.0652598  46.2224622  -0.3528256  10.3624486  47.5949759   0.2118641
  45.0686884  66.7576122   8.7499434  45.8111858  66.1673164   8.8783187
  44.4754744  66.5572786   9.4739586  20.8499503  58.9356804  10.7692695
  21.0769701  59.8066664  11.0949624  19.9866521  58.7578917  11.1425555
  28.5717607  10.5025613  10.3972983  28.5029840  11.2502396  10.9909976
  27.6856732  10.1422012  10.3623164  81.1514187  30.6808138  39.9245334
  80.4359913  30.1535296  39.5690608  80.7281494  31.4820862  40.2328157
   0.9170759   9.2772865  39.4085169   0.7533721   9.6415716  38.5386157
   0.4922174   9.8901206  40.0086546  66.3445044  18.9130449  16.6760254
  65.4231453  18.9365816  16.4176321  66.3706779  19.3779850  17.5123143
  58.3437967  27.3292470  63.2641459  57.9275322  26.4672971  63.2642460
  59.0446806  27.2568202  63.9120245  68.6241341  25.3918147  45.0926685
  68.3801031  26.0305333  44.4228029  69.5056200  25.1114583  44.8464775
  77.7784777  42.6959372  32.0651507  78.2973003  42.1393061  32.6458549
  76.9274330  42.7657938  32.4976683  56.1683893  69.9872875  45.9581232
  56.9042444  69.3800402  46.0355902  55.9675074  70.2364779  46.8602180
  75.0249052  24.4821835  33.9205122  74.8578310  25.2660942  34.4437718
  75.7328033  24.0325665  34.3819880  74.4123602  37.7279425  63.8278913
  74.5409536  37.2738791  62.9951143  74.6512985  38.6365509  63.6446762
   7.0025998  58.2662439  50.3859186   7.2284132  59.1948509  50.3318262
   6.8325579  58.1148624  51.3156509  71.8383074  64.4176722  53.3938599
  72.2631645  64.8616886  52.6599836  71.6514301  65.1164055  54.0208244
  54.3624878  14.1093516  55.6826210  54.8012066  14.7727036  55.1499605
  54.1986370  14.5441091  56.5195036  68.0222940  19.9034107  59.1722107
  67.4557114  19.6397388  59.8972559  67.4235725  20.0408959  58.4381390
  72.2029638  58.9545059   4.4842032  72.1114254  59.2621326   3.5824171
  71.3088751  58.9448071   4.8258811  81.0343266  52.3515558  52.8241777
  81.4586735  53.1441498  53.1527472  81.2060452  52.3607159  51.8825531
  59.4353724  26.8197227  26.0531688  58.9917612  27.6610708  26.1607742
  60.0385952  26.7704439  26.7947364  18.8197446  65.8331442  15.3424060
  19.6137655  65.5044508  15.7639790  18.9095092  65.5719995  14.4259036
  53.7018299  76.2112141  57.7638245  54.3950033  76.7193127  58.1852245
  53.4740019  75.5385590  58.4055853  43.6671019  59.7541475   8.2536101
  42.8701782  60.1148224   7.8649503  44.1380453  59.3650007   7.5167173
  50.8000565  45.8154202  46.2093163  51.6865349  46.1355209  46.0422134
  50.3543568  45.8931732  45.3657866  47.2260666  48.6443090  62.2226810
  47.8054142  48.9392948  62.9252291  46.3564539  48.6236429  62.6221466
  45.8658028  50.3563452  52.0529842  46.5483761  49.9185514  51.5443897
  45.5231237  51.0291767  51.4646816  71.8844843  30.0947523  41.8337870
  71.4683867  30.9193897  42.0849180  72.5402212  30.3457355  41.1832142
  70.6037903  21.4491463   8.9574683  71.3999891  21.5342212   9.4819289
  70.5225134  20.5091357   8.7962049  22.9371500  51.5331697  64.9926186
  23.0418658  50.5817699  64.9823761  23.5283899  51.8465900  64.3081951
  59.0211630  57.2227192  47.2165728  59.2781639  57.6228428  48.0472851
  59.7677517  56.6753292  46.9732666  21.0808158  75.7267666  16.6135252
  21.2171769  74.8346615  16.2944853  21.9549966  76.1166859  16.6154552
  21.6728854  26.2527919  60.5591536  20.7765698  26.5408349  60.7320118
  21.9446659  25.8176327  61.3672400  79.2939520  35.8638716  40.6015015
  79.5514917  35.2303600  41.2712526  79.1017437  36.6642022  41.0901308
  16.0870993  65.9471846  52.4263000  16.1509526  65.9762716  53.3809233
  15.5813837  66.7266369  52.1962214  10.9576035  47.7710724   3.4864464
  10.5678225  48.6387968   3.5929888  10.2863824  47.1664906   3.8029528
  55.9026003  76.0723829  29.4707584  55.3469992  76.7852545  29.7859597
  56.7751884  76.4602184  29.4043756  59.5789385  40.4784870  45.2205181
  60.2948618  39.8957586  44.9673033  59.3440962  40.1989031  46.1053419
  38.7438440  73.3447123   4.4821665  37.8081346  73.1467390   4.5207289
  38.8530731  73.8268328   3.6624965   9.3795037  48.5693026  52.2418928
   9.0330893  49.1688585  51.5810108  10.3223503  48.5507965  52.0777893
  66.0007381  24.6920276  49.3342543  66.0566759  23.9694762  48.7089348
  66.9103622  24.8786902  49.5665693  62.7339363   3.9732459  51.3672733
  62.3835468   3.1177318  51.1191750  62.1451950   4.6029899  50.9512997
  64.4547987  42.2742891  56.4758825  64.7881842  42.3375082  55.5808496
  65.1583338  41.8463230  56.9638538  75.4459190  40.2369881  34.3945384
  75.0989962  39.6804237  33.6973214  74.8469639  40.1022720  35.1289320
  80.5623245   3.8722885  33.7962389  80.6963348   3.5164237  34.6746659
  79.6284866   3.7474418  33.6271310  64.1515875   6.2862432  42.0809412
  63.2990217   5.9181720  41.8488026  63.9687395   6.8666488  42.8198099
  20.8122635  62.7269030  17.6681888  20.6364989  63.4588146  17.0768821
  21.6054368  62.9839611  18.1383240  72.1064520  66.0053062  65.4424524
  72.0094824  66.4956951  64.6261501  72.6240778  66.5795898  66.0068083
  19.5079410  38.5951495  55.3601313  18.6287701  38.2986450  55.1248121
  19.7685099  39.1680908  54.6389675  54.4873524  63.4256220  17.3712122
  54.0232658  64.2616224  17.3270094  55.3448439  63.6466169  17.7346683
  34.9965262  10.8647680  54.5225573  35.9402227  10.9943962  54.6167183
  34.6070027  11.4821601  55.1416922  36.0732985  14.2925251  66.0369825
  35.8944392  15.1617193  66.3957882  35.3446102  14.1255963  65.4391670
  28.6135173  41.5576220  55.5381012  28.1255460  40.8615732  55.0980711
  29.3722963  41.1148119  55.9181118  71.1950350  68.4353495  41.4488316
  71.6827869  68.1023741  40.6955385  71.4594698  69.3526268  41.5189409
  79.7465992  13.4492767   8.9135683  79.6086693  12.9524934   8.1070858
  79.3375921  14.2981029   8.7449229  17.0089579  61.7475033   6.3254231
  16.4611757  62.3885155   6.7784894  16.4962411  60.9393883   6.3428450
   2.5353330  39.4250202   2.6158750   3.2385680  40.0743008   2.6271260
   2.9457581  38.6334205   2.2678003  45.2646494  10.1327491  46.5253592
  45.6132507  10.9097910  46.9622946  45.8069229   9.4129884  46.8480253
  54.5165396  68.9526892  43.7577963  55.1616478  69.1638374  44.4326878
  54.4317150  69.7579098  43.2472515  56.6576242   9.8395431  31.1734104
  57.2358322   9.6539932  30.4334927  57.0004845   9.3006313  31.8863273
  20.8298373  21.8819284  13.2067382  20.9040570  22.7978754  13.4746325
  21.7177606  21.5347314  13.2920384  58.4438038  45.9245300  60.4589510
  57.9641485  45.1497364  60.1659298  57.7718735  46.4955902  60.8312845
  62.8175735  58.3300161  56.8300486  62.7632141  57.6625538  56.1461115
  62.1367836  58.0862856  57.4572277  54.3460226  28.8501287  46.8376350
  53.7809563  29.6212173  46.7890739  55.2339172  29.1983485  46.7563152
  69.7511435  69.4017029   4.8963162  69.3863249  70.2062988   4.5278478
  70.3421593  69.7011232   5.5871725  32.8659248   0.7817909   2.7315360
  32.2975492   1.3206226   3.2818475  33.4848976   1.4022712   2.3466867
  66.8044424  48.1912565  54.3218374  66.1686754  47.5952387  54.7178078
  66.5518475  48.2325888  53.3994913  58.2701874  21.7423010  65.2082062
  59.0288258  21.4428282  65.7092237  58.0745888  22.6088238  65.5647326
  12.5559950  53.0518532   6.9690669  12.7209723  53.8339472   7.4956965
  13.2704651  53.0368090   6.3322479  64.5288563  46.7187881  59.3751383
  65.4105234  47.0898771  59.3405676  64.5924997  45.9034395  58.8777542
  58.6514330  15.7823277  38.9581370  59.1824579  16.5431869  38.7228966
  58.0892134  15.6380689  38.1969976  16.1510134   4.1191345  43.5123825
  16.0898495   3.9545912  44.4533491  16.7400420   4.8699957  43.4383249
   9.8093605  13.4184444  52.7581406  10.2655518  14.0454900  52.1969461
   9.4593906  12.7652192  52.1522951  69.2498398  50.5638742  58.0613041
  68.9382029  51.2202692  58.6844158  69.6916533  49.9100447  58.6030960
  55.7594967  42.8796387  46.5456963  54.8157310  43.0334091  46.5891838
  56.0410881  42.8582954  47.4602890  65.9652805  63.8708639  50.3500795
  66.6742706  63.2288313  50.3133011  66.3253593  64.5963621  50.8602095
  29.9574780  16.2139404  61.7225075  29.9791837  16.8052590  62.4749088
  29.5356989  16.7227530  61.0300922  79.6719074  60.1511335   2.4773687
  79.5835304  59.6189356   1.6866815  79.7459030  59.5140123   3.1878847
  74.3242645  75.6130981   1.4848706  74.6731186  74.7279644   1.3796474
  73.4872484  75.5973911   1.0207717  66.3774061  54.4510746  38.5689592
  65.4934931  54.5677567  38.9172649  66.8499804  55.2356005  38.8472128
  78.0877399  52.1200848  30.1295185  78.7380552  52.8206348  30.1800156
  78.1671333  51.6589403  30.9645462  15.1920164  48.8534784  61.7127895
  14.6490896  48.2528448  62.2233772  14.6089125  49.1795254  61.0272884
   2.9381263  19.3467021  64.3158484   2.9169708  19.7477198  63.4469557
   3.8541147  19.4096708  64.5864630  48.7737322  61.6598177  12.8242314
  48.1612825  61.1474705  12.2963715  48.6215067  61.3644123  13.7218940
  66.6958475  63.5045147  56.0046911  66.9634533  62.6315260  55.7174492
  66.1387634  63.8291407  55.2972269  15.9098065  66.2747002  55.1760054
  15.9460437  66.8505764  55.9397364  15.9991944  65.3925848  55.5367136
  73.2590389  58.8089657  64.5744753  74.0773821  58.7392664  64.0828562
  72.5788832  58.8529634  63.9024019  32.9574823   9.4071418  57.2211027
  32.7070475   8.7433100  57.8636312  32.7818012   8.9984363  56.3735580
  53.2665491  54.3959904  21.6872597  52.3339510  54.3266344  21.4830947
  53.5875893  53.4950113  21.6497898  80.3427505  66.3052607  25.9644961
  79.9572039  66.0195875  26.7927337  80.7823372  65.5262756  25.6236339
  60.4469299  59.3271065  54.1530418  60.8337688  58.4524870  54.1933441
  61.1819649  59.9048758  53.9477682  68.2278156  41.2598228  44.7001696
  68.7665606  41.2370586  45.4910374  67.3458338  41.4551163  45.0167179
   8.5724139  43.7294626  54.0055990   7.9389840  44.0442848  54.6504879
   9.1745967  44.4633913  53.8832903   9.4822907  60.8879805  53.2138968
   8.8430583  60.6605530  53.8890934  10.2429128  60.3410435  53.4102345
  44.3991756  66.8687963  13.5750067  44.0474653  67.5992489  14.0839028
  45.0601530  67.2675180  13.0090034  28.3548117  46.6374111  66.1329985
  28.0778551  46.8849802  65.2508211  28.8956976  47.3697376  66.4285851
  37.2428918  55.9079170  65.8221483  36.7948818  56.2746382  65.0598907
  36.6704607  55.2005148  66.1190224  79.5306683  53.3156490  27.2002435
  79.9299908  53.7985516  26.4766574  78.6063290  53.5626650  27.1718216
  72.4634218  60.7479143  38.2113695  71.8128157  61.4339161  38.0618930
  72.7487087  60.4930925  37.3339248  48.2719231  12.6977623  18.5915720
  49.2076015  12.5230467  18.6926365  48.0747938  12.4342883  17.6927102
   4.9837682   3.4056503  55.5004072   5.7418007   3.1885865  56.0430861
   5.3394800   3.4931454  54.6160746  68.4618711  29.8654747  57.9205132
  68.1414890  30.3916478  58.6531305  67.9515028  29.0569162  57.9651022
   1.6288093  57.4656773  39.8286486   1.9441372  57.1822214  40.6868172
   2.2598797  57.0999193  39.2088056   2.9442164  44.5060778  59.3447495
   3.3727539  44.0232801  58.6380005   2.8858027  43.8767624  60.0636196
  68.9956284  49.0034151  55.7941294  68.1503439  48.6253738  55.5516291
  68.8225985  49.4735289  56.6097832   4.7146705  70.7457066  47.3233509
   5.6715882  70.7647848  47.3366117   4.4714510  70.3472900  48.1590176
   1.0131058  45.2691984   9.7784132   0.1131765  45.2484512   9.4529462
   1.1099710  46.1419725  10.1593471  13.0263603  34.9616265  48.0570316
  12.8939724  35.8934569  47.8826857  13.9748061  34.8667383  48.1446648
  23.6686444  35.0258112  48.1148958  24.4907403  34.6488905  48.4284544
  23.7410688  35.9589410  48.3155346  44.0297127   0.1136030   2.6152205
  44.0558767   0.2722817   3.5588139  43.9325047   0.9838399   2.2286075
  40.3833771  37.6681852  60.5666208  40.5580473  36.7474461  60.7614613
  40.4759455  37.7336144  59.6161604  20.0249863   3.4404007  38.3041263
  20.4510498   3.3559382  39.1571045  19.8997629   2.5386152  38.0086040
  72.1387148  48.3438492  23.5632277  71.8072224  47.8083515  24.2840505
  72.8692055  48.8316917  23.9435291  31.7853498   8.2280022   2.5275117
  32.1982145   8.9301139   3.0303183  31.7812538   8.5495287   1.6259375
  70.8481264  48.8098097  35.7992411  70.5817556  47.9202700  35.5668736
  70.0246954  49.2792130  35.9328485  47.2564077  14.8961496  14.5584166
  47.1399260  14.0321743  14.1631830  47.7731037  14.7310579  15.3470898
  46.4948988  25.5979395   5.8352238  47.1711969  25.5026793   5.1645660
  46.7302465  26.4007354   6.3003677  14.8761702  32.8290653  66.2789249
  15.1660883  32.7946830  67.1905136  15.6445861  33.1307745  65.7944250
   1.9868930  52.0542765  58.9803553   2.9081410  51.8407297  58.8322639
   1.5385367  51.2088633  58.9584064  67.4204588   3.2391679  58.9088631
  66.4713907   3.3254686  58.9986324  67.6902151   4.0317839  58.4449387
  46.2360334  54.0127134  60.3073025  45.3004122  54.2102098  60.3501511
  46.6414785  54.6435595  60.9021807  18.0102754  59.6987581  29.8691535
  18.0847979  60.1090097  30.7307625  18.0447662  58.7589645  30.0475669
  40.4710960  53.6735630  49.6819162  40.3054523  54.4363689  49.1279125
  39.6293521  53.2196283  49.7223949  19.4827521  73.3063602  31.0937071
  19.2852795  72.3890924  30.9043431  20.3866816  73.4221458  30.8009028
  78.0278301  33.0925012  16.8402100  78.3370495  33.7139034  17.4993575
  77.3012161  32.6356578  17.2639489  24.0000081   5.0185704  32.8170586
  24.1122198   5.9216779  33.1137681  23.0515766   4.8969907  32.7731276
  72.9673910  45.5586195  64.5507050  73.2587528  45.7814503  65.4348373
  72.4616337  44.7534657  64.6609926  80.1394272  11.5492857  39.7138023
  81.0267258  11.4567971  40.0607586  80.2611065  11.6565549  38.7704468
   2.7927342  45.3982306  52.9638147   2.6803580  46.0025072  52.2300243
   1.9063437  45.2587080  53.2971001  64.1816998  50.3785801  46.0658693
  63.7500095  50.7110453  45.2788877  65.0867748  50.6803131  45.9881830
  21.9571638   0.5863831   5.3753370  21.5186214  -0.2349646   5.5973738
  22.7513099   0.5859536   5.9097195  81.5130997  69.0929413  46.6134501
  81.0333920  69.9070454  46.4606571  81.1500359  68.7507057  47.4303246
  51.0193110  26.2906718  48.5707617  51.2930059  25.8887267  47.7462816
  50.4744911  25.6259036  48.9920521  53.6247301  27.9779291  65.8934164
  53.0687284  28.5367799  66.4363527  53.8446617  27.2373867  66.4586210
  11.3237357  68.3041811  52.7286005  11.8954515  68.6389351  52.0377254
  11.8905246  67.7425671  53.2573509  67.2481060  68.6399889  62.3685837
  66.4023590  68.9779902  62.6630306  67.2752047  67.7419281  62.6987123
  80.0434685  37.3652077  45.8391714  79.1797304  37.7644086  45.9432459
  80.3482056  37.2168922  46.7343616  79.1829681  62.4928617   3.7896293
  79.5117331  61.6563082   3.4605026  79.6172380  63.1510592   3.2470283
  51.2311411  43.1092548  48.5007334  50.8589172  42.5260639  49.1622257
  52.0891380  43.3506298  48.8497496  27.5172877  10.6022584  17.3377919
  27.4376655  10.7837272  18.2742548  28.1692648  11.2302625  17.0267153
  58.4517119  23.4004390   0.5881553  59.1193515  23.1193435   1.2138372
  57.6532024  22.9570949   0.8746200  22.7347326  19.7679591  23.1789136
  23.0263734  18.8849103  22.9521942  23.4375095  20.1193213  23.7256169
  72.4517155  25.7284713  48.4059429  72.1773434  26.5778732  48.7515879
  72.1961403  25.7512617  47.4837780  12.1751440  50.1178789  64.2455101
  12.8065550  49.6505547  64.7924662  12.6003921  50.9525061  64.0485573
  47.3863745   3.0273709  10.3688300  46.7197275   3.7140268  10.3865767
  47.7915239   3.1091478   9.5054650  49.3831253  76.5734243  30.9233356
  48.6396885  76.4674234  30.3297877  49.4597864  75.7274914  31.3646436
  81.6914940  66.6501379  52.1036720  81.4062119  66.9460678  52.9681206
  81.3404369  65.7630014  52.0263052  71.2033224  35.8159781  53.0642509
  70.6698179  36.4096284  52.5358772  71.8785000  35.5014610  52.4630451
  52.0697260  46.8661070  11.2558544  51.1543655  47.1025562  11.1060643
  52.5643492  47.6392984  10.9842920  34.0186167  10.8675385  45.3902388
  34.4764233  11.6974008  45.5242968  33.1093812  11.1190486  45.2281761
  50.0934124  42.1397734  64.3799543  49.5736456  42.4827719  63.6530256
  50.7291794  41.5564489  63.9655113  70.0528908  52.4083042  60.9200907
  69.1415405  52.1940804  61.1195230  70.5138588  51.5714121  60.9780502
  76.5232468  75.9129333  12.6469243  76.3236618  75.4443932  11.8364513
  77.2018337  75.3851128  13.0678260  27.2643089  77.2560453  23.0542827
  27.2230721  77.8581142  23.7972784  28.1979847  77.0772409  22.9424310
  53.5725451  43.6702871  13.7797046  53.6767912  44.6087217  13.9368904
  53.5122681  43.5921574  12.8276050  44.3380070  51.2765408  31.3447809
  43.4702826  51.3335419  30.9447312  44.9461842  51.4087629  30.6175470
  10.7218242  25.1879144  67.7142906  10.8089924  26.1375284  67.6314306
   9.9822676  24.9650455  67.1489429  67.9643631  75.6768179  16.1561751
  67.3751068  76.3836861  15.8928382  67.3816109  74.9716520  16.4379072
  20.8600450  16.3698828  12.1807659  21.3412547  16.6911161  12.9433119
  20.5946326  15.4822874  12.4215162  53.1328964  56.9149208   3.8079688
  53.5915470  56.2630606   3.2779238  52.4466276  56.4199114   4.2554426
  66.1358404  58.2461214  54.7607136  66.1647701  58.2962942  55.7161617
  65.6727839  57.4286079  54.5777178  68.9455271  27.8113103  16.0663223
  69.8221874  27.8866529  15.6894708  69.0976429  27.5743771  16.9811749
   5.2138782  20.6738400  64.9595022   5.3451669  21.3667440  64.3122911
   6.0405517  20.6356382  65.4405260  62.2563219  64.7902155  52.5279570
  62.4777699  64.7898674  51.5967226  61.7438126  63.9914417  52.6525688
  67.1609449  52.8149652  65.9467840  66.7738628  52.7090311  66.8157959
  67.7927160  53.5264492  66.0511112  13.8906157  59.4248915  39.2457366
  13.8274896  59.2104721  38.3149981  13.6697042  58.6090517  39.6949935
  57.4882889   3.1943050  47.7472448  57.7499008   2.8663591  46.8868732
  56.5751600   2.9224935  47.8396654  78.1464529  42.2842789  51.5706158
  77.3254013  42.3106384  52.0619488  78.6798429  42.9782391  51.9581032
  52.8672838  43.4652328  18.7460303  52.6835060  43.0865240  19.6057034
  53.8208723  43.5432911  18.7175882  50.7510567  63.5074234  52.4933195
  51.5145922  63.3271027  51.9449377  50.0706434  63.7756634  51.8758154
  43.4607601   9.1374552  31.3968182  43.2441330   9.9245483  31.8966055
  42.6326704   8.6624134  31.3272953  55.9072304  28.7039447  63.3831644
  56.7342424  28.2410502  63.2489443  55.2609444  28.1826472  62.9069328
  13.5731447  62.6006699  56.4214897  13.5536611  63.5165548  56.6989946
  13.4819663  62.6369047  55.4693317  28.7786627  14.7196102  16.2033832
  28.9844012  13.7865686  16.1456227  29.5869637  15.1240456  16.5185261
  11.1744487  58.3983612  35.6557918  11.5354562  59.2274094  35.9697723
  11.8864894  58.0019093  35.1537395  70.9477949  52.8523159  51.8618059
  71.4968681  52.1058559  52.1017027  70.7741928  53.2981873  52.6908398
  32.7886605  14.6796167  18.9213359  33.0244875  14.0296805  18.2593691
  33.2244921  14.3784952  19.7185862  30.8909750  55.2999592  37.2558308
  31.3905406  54.7062969  36.6952705  30.2078056  55.6507540  36.6844726
  38.7898135  53.2893658  27.7173758  38.6285019  53.0077505  26.8168759
  39.6206880  52.8762341  27.9523277  57.1665525   1.2216400  40.2586699
  56.6080284   1.9738254  40.4548740  56.6744375   0.7212119  39.6078014
  78.2471704  68.3698463  57.3490334  78.3805561  69.3015957  57.5230455
  77.7626896  68.3472681  56.5238047   8.7477529  26.5683174  34.0497518
   8.6714160  27.2057438  33.3397555   9.6141458  26.1793208  33.9302659
  71.1287022  59.6713972  33.6670423  71.8991947  59.8041391  33.1148148
  70.6457901  60.4956341  33.6065435  80.6533051  59.9073601  40.5917120
  80.8603382  60.0628281  41.5132332  79.7378969  59.6276379  40.5957747
  45.1952553  45.3185606  66.7869616  44.6885729  44.5669651  67.0945454
  45.9463072  44.9327517  66.3360643  81.3054848  69.4592142  43.6749744
  81.1203766  70.2873659  44.1178417  81.4163876  69.6991444  42.7549934
  19.3217826  75.7830286  13.6983168  19.1663170  76.7264652  13.6536455
  19.0726936  75.5412149  14.5903432   7.7883899   6.6037375  22.4727154
   6.9816613   6.3818938  22.0077348   8.2927191   7.1204007  21.8442678
  48.0136490  17.6332653  14.9941552  47.6697159  16.9638920  14.4026482
  47.6918936  17.3772562  15.8585417  23.9301157  39.4764519  53.1728840
  23.2948518  39.1016102  53.7829351  24.0585208  38.7955952  52.5124454
  13.3614886  21.6677928  14.0548885  14.3153811  21.5918183  14.0314829
  13.1224132  21.9551754  13.1737041  79.1998529  38.8993740  48.4608030
  79.6475887  38.5611081  49.2362642  79.7941446  39.5636225  48.1117773
  59.8285294  63.4634399  52.9840183  59.3225765  63.5735893  53.7890720
  59.5248604  62.6308680  52.6223040  75.4256487  66.1807108   0.6527828
  76.0259104  66.2506485   1.3950926  75.5991268  65.3140545   0.2853047
  46.1104631  55.9425449  54.7402668  45.6426430  55.3138351  54.1906261
  45.5449581  56.0607815  55.5034542  63.4349871  39.3564105  60.1532173
  62.8066969  38.8128138  59.6778393  63.3600664  39.0689945  61.0631704
  30.7374907  77.5543356  19.3568707  31.4854741  76.9759321  19.5058918
  29.9939728  77.0874405  19.7382140   1.9754300  16.9065559  10.1542222
   2.2621402  16.2683725  10.8074844   1.0491763  17.0491123  10.3490651
   3.5967693  20.3226709  61.0877514   2.9434615  20.4428291  60.3985596
   3.2976428  20.8852887  61.8020439  27.9457951  55.8949995   8.0736268
  28.4402084  56.3044119   8.7836719  28.5559034  55.8770227   7.3362827
  26.1600065   1.9778955  62.4285555  26.4813113   2.3818402  63.2346725
  26.9524813   1.7244737  61.9552755  40.3225327   5.3240848  50.0127792
  40.0790691   5.4623020  50.9281206  40.1588440   4.3935597  49.8592854
  44.9473047   1.4615752   7.7525240  44.4927216   0.6272595   7.6363271
  45.7481766   1.2342129   8.2249075  76.7789125  62.9815388  63.6928129
  76.1096859  63.6575556  63.7994051  77.5266027  63.3031511  64.1965532
  34.1753483  67.7526045  12.4778223  33.4210134  68.3120394  12.2927737
  34.9125409  68.1990528  12.0613348  31.2721729  35.5953288  34.7491717
  32.1356630  35.9768605  34.9074507  30.8143520  35.6837893  35.5851150
  49.6467066  58.9628553  66.9138098  50.4291964  59.5139933  66.8999767
  49.2594910  59.0748405  66.0456181  48.5944986  24.8397493  23.7259698
  48.2563257  24.5709085  22.8718066  49.2647505  25.4924607  23.5235763
  50.7801676  15.5840468  48.3287096  51.6976690  15.3350103  48.2173347
  50.7254028  15.8994424  49.2307949  12.8313947  71.1859560  26.9959545
  12.5408876  70.6128120  26.2864900  12.6792157  70.6772518  27.7923775
   3.9970037  66.8054390  56.4076948   3.7396872  66.2171316  55.6978273
   4.6754768  66.3254118  56.8825436  23.4436369   2.8468537  19.2422867
  23.2899833   3.7655556  19.0218103  22.7507067   2.6312006  19.8664439
  48.8838720  21.3791347  66.7938280  49.6249533  21.9253874  66.5318298
  49.2591810  20.5063891  66.9108343  57.8205585  60.8072615  13.7417173
  58.6285114  60.3060102  13.8521338  57.1230698  60.1873159  13.9548099
  45.4430437   0.5222547  51.8044996  44.6293068   1.0237702  51.7539978
  45.1592016  -0.3817615  51.9402218  20.1014781  70.7266808   2.1134906
  20.0048208  70.8928394   1.1757909  19.2098069  70.7741594   2.4583091
  71.6044903  75.0891876   7.7736980  72.5219822  74.9282265   7.5533915
  71.6165113  75.9114075   8.2636440  63.2118082  35.0707436  45.2176714
  63.4433699  34.2168641  45.5830479  62.2616911  35.0343442  45.1072884
   4.3067792  43.3520794  50.3802443   5.0506455  43.1269121  50.9389925
   3.5577527  42.9235458  50.7944345  31.9653416  63.2774591  25.2222395
  32.6748872  62.7031469  24.9342465  32.0309567  64.0435839  24.6521664
  26.6591859  27.2333741   2.0555469  26.0499692  26.5027404   1.9494119
  27.1456480  27.2612190   1.2316467  78.4140539  46.2328482  41.8230104
  78.4868145  46.0613918  40.8841038  78.4937000  47.1836376  41.8997383
   7.9023898  57.1190548  45.2107716   7.4302220  57.4451017  45.9769154
   8.3409721  56.3261414  45.5192661  41.8065405  66.3835859  15.5587554
  41.9948292  65.4533672  15.4343474  41.4270544  66.6645861  14.7261333
  19.7938609   4.0664729  50.7650185  19.2674005   4.5437363  51.4063358
  19.8036790   3.1649315  51.0865116  48.8348246  64.9776840  49.9656010
  48.9192820  65.6876564  49.3291759  48.8449287  64.1797352  49.4370127
   9.7238880  28.2038546  54.2394733   9.7170830  29.0637302  53.8189983
  10.5970097  27.8557229  54.0586519  34.4905090  36.3773346  26.6483760
  34.8187304  36.0221243  25.8223438  34.2989182  37.2950435  26.4551568
   6.6515565  31.1898184  57.6844120   7.5936812  31.0786867  57.5568056
   6.3343179  31.5258789  56.8461657  76.8312216  46.7719173  57.0965481
  76.2727261  47.3719120  56.6022635  77.2383595  47.3208761  57.7667093
  81.2999821  28.5449433  33.5461402  81.8768120  27.7972603  33.3896995
  81.2267685  28.9735126  32.6933789  77.5685120  42.3626041  56.9253063
  78.2224512  41.7068195  56.6833591  76.7579079  42.0529652  56.5212250
  82.4287796  37.5229049  62.6686907  81.6142368  37.1645331  63.0212641
  82.1491528  38.0955768  61.9544888  72.7154684  71.3234711   5.3283292
  73.2263851  71.4165211   4.5242551  71.9267988  71.8430233   5.1724499
  65.1763248  50.1017714  42.1238852  64.8686266  49.6109104  41.3619089
  64.6610832  50.9083939  42.1131992  12.6564574  10.6095457  55.3204870
  12.3621297  10.3418612  54.4498873  13.3511877  11.2463951  55.1531410
   9.4358593  57.8717518  31.6622376   8.6964667  57.6528120  32.2293305
   9.1510975  57.6115084  30.7862139  16.0213077  72.4082232  11.2707877
  15.4170275  72.6852226  11.9595182  16.7984021  72.9516983  11.4011455
  80.8367634   3.0655888  46.4320898  80.8211613   2.1085235  46.4282846
  81.0173798   3.3058053  45.5233002  65.2492762  51.9361210  56.5391397
  65.8741665  51.5224552  55.9436369  64.6845436  51.2197399  56.8291521
   1.5100995  22.0186615  53.9778757   1.9366601  22.8117371  54.3023920
   1.0807931  22.2921896  53.1672478  75.2770567  27.3894429  51.4919996
  75.8370352  26.6157866  51.4278555  75.7642698  27.9918218  52.0541286
  72.1522093   1.7275628  43.9946127  71.6124535   1.5760465  43.2187605
  72.9534912   1.2305855  43.8297129   5.4217035  21.6502571   7.9677927
   6.1325181  21.1526990   7.5635523   5.7504839  21.8731761   8.8386780
  33.2597613  31.6363978   0.6957344  33.7369990  30.8285069   0.8849081
  33.1104732  31.6106772  -0.2494024  25.2272630  16.2892222  62.3666191
  24.6824384  17.0007229  62.7030182  24.6019673  15.6223905  62.0827723
  51.3451672  15.3116679  14.5007730  50.9344721  14.7360349  13.8556314
  51.2012005  16.1945152  14.1600597  43.5603046  30.5094409   4.9881372
  43.3842087  31.4479113   5.0551981  43.0203342  30.2162790   4.2541590
  15.1188719  66.4919519  37.2351623  15.7140315  65.7805347  37.4715996
  14.2936134  66.0543489  37.0261526  55.4009438  55.0123310  50.0389194
  54.5941973  54.5975065  49.7334528  55.8448744  54.3304205  50.5430555
  60.7870388  54.6413565  54.3551683  60.7985401  53.6869907  54.4278955
  59.9145937  54.8453999  54.0183640  68.4300470  46.2812710  49.9735546
  67.7299166  46.5509224  50.5679750  68.0179310  46.2651730  49.1097641
  60.2104235  35.7458067   2.7259094  59.6871042  35.7200933   1.9248414
  60.1890612  36.6636872   2.9965937  67.2172213  70.8875656  59.8166323
  67.4645519  70.6846857  60.7187986  67.0687056  70.0333214  59.4111204
  25.1083302  10.3793347  39.7802567  25.1164627  11.0938716  40.4171276
  24.8029232  10.7851219  38.9689040  27.0870471  62.0196438  23.8813949
  26.1958456  61.6776800  23.9524579  27.6481271  61.2565231  24.0194702
  69.8588753  61.5885592  66.5883732  69.9100542  62.4826717  66.2504721
  68.9522266  61.3247395  66.4314556  46.3804770  61.5745544  18.7910593
  46.3105774  60.6214762  18.7364650  46.8768692  61.7326975  19.5940673
  79.0072584  21.7633438   0.8359377  79.0101480  22.4173045   1.5349072
  78.1717253  21.3075662   0.9378247  -0.1424180   9.7454065  17.4102986
   0.1258985   8.8498944  17.2046375   0.0986786   9.8626256  18.3291912
  64.3716383  44.1208076   2.8222638  65.2481365  44.1515255   2.4388053
  63.8356161  44.6569014   2.2378664  79.7227144  49.7296476  63.3129120
  79.4449854  50.3700304  63.9678955  79.1677141  49.9075603  62.5536013
  70.8130646  76.9579458  60.9737492  71.3805771  77.6804876  61.2422514
  70.0019073  77.3818970  60.6935215  81.6601753  53.2924557  50.2841854
  82.3780918  53.4789562  49.6791744  81.4798355  54.1316462  50.7078218
  14.4352567   4.6949098   0.9149915  15.3579140   4.8903173   1.0785469
  14.1481209   5.3813928   0.3128903  32.4181962  40.8532619  13.1755185
  32.1561718  41.1073875  12.2906494  31.7935467  41.2990808  13.7476134
  65.9612656  21.4136481  49.6566105  65.4175520  20.7625556  50.1001072
  65.3461027  21.9147468  49.1211605   7.6481724  51.0505199  65.2943897
   7.1194208  51.6579914  65.8117247   8.4430659  50.9238577  65.8123970
  42.5422764  11.9743073   4.5518255  41.9741774  12.7313352   4.6946621
  42.0442390  11.2328053   4.8958677  79.5061588  27.3443675  51.4326715
  79.5093012  28.0376244  50.7726574  79.6607399  27.8005075  52.2598791
   0.0551923  77.0067930  48.3499241   0.1328976  76.1704111  48.8088989
   0.6167538  76.9109631  47.5807095   2.7195957   7.9849100  58.5213280
   2.2545373   7.3006082  59.0026617   2.0412892   8.6207283  58.2935858
  58.9141130  58.5856342  42.8000069  59.7958136  58.9581299  42.7908373
  58.3493185  59.2997742  42.5046396  45.9166050  54.9143171  25.2268624
  46.5948057  54.6233130  24.6172786  46.2564087  55.7318592  25.5907249
  34.9741697  77.6485968  18.6077118  34.6101928  77.4439621  17.7463889
  34.9542427  76.8162870  19.0800464  49.5067835   3.5352123  41.3979530
  49.0167952   3.9795408  40.7060623  49.3240452   4.0458691  42.1866655
  34.1344142  20.4584837  20.2695417  34.9023008  21.0029840  20.4430413
  34.4316316  19.8270202  19.6144497   6.8024099  44.7636032  12.3495173
   7.2346705  44.7188807  11.4966512   5.9810001  44.2876816  12.2269690
  43.5441542  22.8354502  12.6129973  44.0120983  22.6015496  13.4145916
  42.8917503  22.1432614  12.5058651  79.0061045  10.8761263   7.6280868
  79.4944572  10.1885748   8.0808699  78.1379843  10.8582556   8.0309331
  52.2099686  26.1778688  42.5528193  52.5591993  25.2922487  42.4530888
  52.9841328  26.7406797  42.5647545  44.1356993   6.4129686  37.2114658
  43.4692097   6.5081614  37.8918767  44.3873167   7.3108685  36.9953728
  14.4567299  59.0139961  29.5911241  14.6355689  59.3740177  28.7224269
  15.2930033  58.6439180  29.8738241  57.0784569  29.4355226  53.2368565
  57.3278475  30.2792954  52.8599167  56.2272358  29.2403460  52.8449917
  58.8073111   5.7994217  40.4275608  58.5186434   5.9153128  41.3328075
  58.0873585   6.1458087  39.9003792  79.4572735  16.2465870  35.3576088
  79.9327612  15.4159641  35.3432798  79.4253731  16.4883697  36.2832189
  12.9586148  37.0440149   7.1163672  12.5842369  36.1738706   7.2539145
  13.6855268  36.8990016   6.5107274   7.1020442  64.0580368  10.0552988
   7.4431306  64.6617889   9.3954706   6.5650511  63.4398890   9.5595515
  71.3504410  25.4943609  29.4106913  71.3951206  26.3322258  28.9500213
  72.1609402  25.0453901  29.1703773  33.0833435  21.3873625  34.3085575
  33.4758234  21.3985682  35.1815200  33.0629039  22.3068523  34.0433192
  12.2490156  76.7307043  52.4094534  11.4615405  76.6712570  51.8685436
  12.9451418  76.3715458  51.8593216  58.8434649   1.4320244  54.7328329
  58.5264397   2.2152124  54.2830038  58.2332325   1.3100143  55.4601336
   3.8015240  40.1492310  17.5887692   4.1481683  40.9470367  17.1893084
   3.3080259  39.7248697  16.8869066  63.7021542  34.4379902  54.7537565
  64.5875120  34.7508216  54.5679903  63.2074213  34.6326327  53.9577770
  40.5272818  37.4927235  58.0315685  39.8450851  36.9300365  57.6652050
  40.6364107  38.1893373  57.3842239  64.3001986  57.6926088  42.3059511
  64.7487831  57.9672050  43.1056976  64.8059893  58.0922556  41.5983582
  74.0821791  60.5705118  50.3659630  73.3256435  60.6631660  49.7869158
  74.5334053  61.4126301  50.3071070  50.0112581  56.6846895   0.8524008
  49.7248077  57.0735598   0.0259870  50.6444311  57.3101759   1.2046665
  31.7131448  16.9868946  47.2700167  31.8949318  17.9020596  47.0563364
  32.4864817  16.6955459  47.7530289  13.7779820  55.0811148  32.0515323
  13.0305886  55.4414272  31.5742373  13.4358358  54.2922735  32.4721265
  68.8317871  70.4547501  13.2456124  69.1592979  69.8744869  12.5583982
  69.6047354  70.9355307  13.5416365  54.7532892  57.3073435  16.1149478
  55.2875471  58.0805779  16.2963569  54.0719509  57.3239326  16.7870581
  40.9730387  67.1613407   5.7971114  40.6919575  68.0759907   5.7717490
  41.8703222  67.1956253   6.1286753   6.9197851  21.8660998  19.7080231
   6.8059963  21.2556362  18.9795887   7.7010775  22.3694086  19.4789100
  60.2564240  10.1007605  13.7629056  60.2178049  10.5848098  12.9380202
  60.3277636   9.1833806  13.4991717  72.1358538  32.7957010  27.5120878
  71.6060877  32.4093771  28.2094622  72.8698587  32.1905947  27.4057221
  56.8213558  20.7570672  17.6390684  56.8719196  20.3603649  18.5087240
  57.5258112  21.4050603  17.6300740  43.6439800  54.2733717  60.5009222
  43.2075739  54.2428780  59.6495390  42.9295349  54.3458080  61.1338186
  68.5346127  14.0260601  49.7553968  67.6151228  14.1272795  50.0014114
  68.5078621  13.5983324  48.8994932  42.2461891  77.5577068  54.7463274
  42.3591805  78.2953978  54.1469288  42.7008247  76.8310785  54.3202305
  81.0204411   1.1166230  18.4850645  81.8797207   0.9561352  18.0950439
  81.1946964   1.1997314  19.4225931  27.8081751   5.0150573  27.4652529
  28.0053616   5.1659697  28.3896852  28.5933757   4.5910430  27.1189833
  40.0896597  52.9895210  32.8315806  39.2030025  52.7217340  33.0731702
  40.0847101  52.9985380  31.8744349  14.3331325  74.4964075  66.0563469
  15.0598049  75.1190519  66.0785007  13.7163842  74.8247147  66.7106199
  12.4653697  15.2384412  54.6605253  11.7752838  15.0659108  54.0200233
  12.2939670  16.1303091  54.9628973  57.4239826  11.2459576  27.4751520
  57.4819613  11.7559803  28.2830787  57.0018625  11.8350255  26.8498158
  13.9029789  46.4426231  60.1963329  14.0537381  45.9036684  60.9728813
  13.2175791  47.0564842  60.4602098   3.0884597  34.2874718  55.8693981
   3.8242513  34.8407888  56.1314726   2.9386678  33.7157130  56.6223192
  76.9475269  39.5295954  44.5734262  76.2235975  39.2024636  44.0394402
  77.0854664  38.8493013  45.2325201  15.4542172  74.7248554   9.5451581
  14.8550069  74.3156815  10.1694632  16.2418532  74.1819191   9.5780641
  68.7591267  14.4442606  61.7362165  68.5448837  14.8154330  62.5921154
  69.7042084  14.2960465  61.7691994   4.0494400  37.6917696  29.3590260
   3.4372953  37.7566147  28.6260152   4.1239262  36.7522788  29.5264769
  82.6624680   5.4238778  34.1878676  81.7479134   5.1745105  34.0550637
  82.7145576   5.6588179  35.1143241  63.6026096  75.6471777  64.5030499
  64.2510366  75.6722784  63.7993813  62.8450823  76.1118031  64.1473722
  73.9855719  36.1066389  14.0442133  74.7287416  35.5186534  13.9093077
  73.2665443  35.5289984  14.3002653  53.9629745  71.9447660  29.0916109
  54.7633553  72.0002365  29.6136713  53.8074064  72.8416777  28.7956643
  82.2911644  64.1784286   9.3024522  82.1842957  63.2514572   9.5158327
  81.7249680  64.6343708   9.9251646  63.6273670   4.9492502  37.9009008
  62.9030848   4.5892909  38.4128332  63.4815216   5.8952111  37.9118681
  51.5106010  11.8938124  30.7161069  52.4238014  11.8200815  30.9933448
  51.3137627  11.0483837  30.3127027  74.4032001  55.7838011  10.6275415
  75.0588226  55.4785967  10.0004542  73.5667706  55.5070496  10.2533364
  68.6886597  18.1966329  49.4160700  68.5762072  18.8426256  50.1134109
  67.8014851  17.8904736  49.2278576  79.6708202  73.2421350  62.0034981
  78.9289474  73.6077356  61.5216398  79.6377325  73.6733675  62.8574181
  13.5033178   1.9099414  37.3008037  13.5723913   2.5418752  36.5851760
  13.2517314   2.4350227  38.0605555  37.3183441  36.4423490   4.8965651
  37.7852130  37.1913433   5.2670705  37.9456925  36.0434866   4.2935944
  63.4773827   5.0030488  26.2489891  62.7074575   4.8659122  26.8009353
  64.1307068   4.3943080  26.5937138  37.7555108   3.1700903   1.0468139
  38.2048106   2.3432469   0.8716232  38.2258224   3.5451707   1.7913637
  47.6034260  12.1022868  46.2144756  48.2604837  12.7867281  46.3411522
  48.0574751  11.2899697  46.4385557  41.3748693  24.3051028  11.4784718
  40.8982992  24.3982673  12.3033547  42.2079897  23.9046860  11.7270923
  70.1505184   8.3169830  15.0133610  69.2994022   8.5062897  14.6183896
  70.6441593   7.8788865  14.3200946  66.8751049  23.0679059  34.6615791
  66.4133787  22.2606111  34.4350529  67.6426220  22.7750540  35.1528883
  81.3508606  24.7289515  49.3727303  80.5271530  24.3547916  49.0600967
  81.1171818  25.6086946  49.6688414  33.0193043   4.2190740  55.0183344
  32.1201706   4.1519213  54.6969604  33.5572267   3.9014065  54.2931080
  53.5612202  64.1334438   3.8103399  53.8379860  64.9741316   4.1748562
  52.6060152  64.1878605   3.7811470  66.7647171  37.5055718  50.0459003
  67.5267696  37.5134134  50.6250763  66.4921045  36.5883446  50.0211716
  19.9100542  19.7898757   9.3685848  19.2579973  19.0984344   9.2547262
  19.5327246  20.3681159  10.0315285  26.5737200  19.4680631  57.1805763
  27.3902583  19.4902825  57.6795816  25.9751129  18.9550996  57.7235031
  64.2614603  75.4431295  54.7796392  64.5250273  75.9959507  55.5152750
  64.5504332  74.5641899  55.0249624  70.9856129  16.0996580  44.4515467
  71.4956808  16.0713446  45.2610302  70.3866768  15.3561127  44.5197201
   5.7273740  18.5374689  60.1228714   5.0377321  19.1967416  60.2002382
   5.7461923  18.1089818  60.9786034  47.7012396  71.0166645   8.0596703
  47.4641323  70.1189327   7.8270948  48.6416340  70.9784698   8.2341200
  67.3970175  36.2487173  30.0308704  67.4513865  36.7466211  30.8465719
  66.7781925  35.5437398  30.2213740  79.8321056  11.5817225  28.5648489
  79.1410208  12.0027506  29.0760875  79.6041870  10.6520987  28.5738921
   0.4441006  47.8518534  32.4822021   1.0818322  47.4384260  33.0640960
   0.8794244  48.6476326  32.1764946  40.7413626   7.7430683  31.5455723
  39.9874282   8.2696450  31.8111563  40.6481695   6.9266516  32.0365000
  11.1838305  47.2523689  67.3532391  10.4398847  47.5866079  66.8521786
  11.9386387  47.3877001  66.7803717  73.5091209  24.0374947  29.2456746
  74.2073727  23.6283088  28.7345529  73.5875845  23.6453676  30.1153350
  59.6619987  21.8061280  42.9217005  60.5627155  21.4870048  42.8659868
  59.1649914  21.2216711  42.3493195  13.0330646  61.2347078  31.1233401
  12.8508246  60.4398441  31.6245556  13.4775746  60.9238958  30.3346467
  37.0424724  68.5536146  21.0323596  37.3363376  68.0160284  21.7678022
  36.7302084  67.9224348  20.3840280  80.2865696  70.8611822  59.9812078
  80.2331066  70.0018597  60.3994656  80.6390476  71.4365149  60.6601667
  48.4885025  70.9094191  62.5409651  49.1773891  70.2586937  62.6759386
  47.8679752  70.4823256  61.9504023  45.8593082  21.4648724  49.3088722
  44.9802542  21.1307025  49.4872761  46.4131641  20.6843901  49.2909098
  57.1000338  58.7878704  16.8175316  57.3495102  58.3774614  17.6455164
  57.6345539  59.5806456  16.7725432   3.2446042   8.1623238  38.4485340
   3.3640540   8.7734276  37.7215433   2.6158714   8.5962111  39.0253091
   3.3700046  32.0654106  24.7606611   2.7844784  32.8146100  24.8706293
   4.1417488  32.4265647  24.3245316  68.5762167   8.5206789  21.5958858
  69.4737816   8.4827054  21.2654781  68.6679935   8.4561467  22.5464869
  33.6485720  66.3508511  38.8861251  33.2644749  67.2151089  38.7385893
  34.1518545  66.1735964  38.0914450  69.3246889  10.2602232  16.6676080
  69.5156574   9.6058738  15.9956038  70.1829624  10.5079234  17.0114768
  11.6225445  15.1033568  61.1949873  11.4668894  15.3320909  62.1113300
  12.5046396  14.7317624  61.1873913  55.7844162   4.7158068  59.4427633
  56.2674284   4.0873724  59.9794197  56.4635515   5.2386349  59.0165520
  81.5610313  23.5817337  23.0674362  81.8263245  22.8065920  22.5724530
  80.9457684  24.0349984  22.4910402  22.2470546   9.1596401  38.7858391
  21.9116902   9.6449119  38.0320001  21.7909002   9.5389128  39.5370436
  14.2045093  29.4353104  45.9908724  14.9268913  29.5508623  46.6081572
  14.5792973  28.9185762  45.2776003  55.7449150  19.5444119  23.6378336
  55.0101995  18.9804578  23.8794518  55.5214262  20.3995371  24.0053153
  39.4808006  28.2769918  40.7617378  40.3531933  28.2563686  40.3683710
  38.9019132  28.5416722  40.0468445  42.6876163  19.7812736  62.7156162
  43.5077143  19.5885611  62.2611570  42.9361486  19.8557794  63.6369801
  20.9860921  34.4953966  49.3710995  20.7961988  35.0734329  48.6321497
  21.5708971  35.0063181  49.9307346  56.4575052  43.1022978   1.7670360
  57.0350695  43.7518787   1.3661754  56.6688681  42.2840548   1.3175526
  67.6423216  15.2103102  53.4373093  67.4118328  14.6895647  54.2066813
  68.5991383  15.1945436  53.4152985  60.7032251  15.7006991  46.3133860
  61.1289597  15.9168887  45.4837847  61.0756540  14.8541903  46.5602636
  68.9823818  42.4847269   8.8614947  69.6222878  42.6263762   9.5591247
  69.5051146  42.2039795   8.1103885  26.2410426  69.5152235  57.2427750
  26.2228680  69.2224979  58.1539345  25.7009602  68.8778067  56.7756081
   3.5051262  32.2552896  13.0056226   4.0198591  32.9284501  12.5604963
   3.9709437  32.1021128  13.8276827  27.7905869  16.7151451  46.6026974
  28.4083247  17.4247134  46.7791748  27.2843909  16.6317463  47.4108076
  26.6323686  69.6051931  40.2868843  26.4598227  69.6007109  41.2283945
  26.2811327  68.7711573  39.9750400  40.5968571  69.0600204  45.0136518
  41.2974834  68.9385939  44.3728638  40.8432722  69.8524427  45.4906988
  72.4800539   6.9072646  31.6289353  71.6576815   7.1984029  31.2350178
  73.0455732   7.6790297  31.6007113  31.5711117  72.1000671  29.5655584
  31.5668392  71.8011665  30.4748845  32.4876070  72.3107386  29.3869925
  51.8596315  63.2580376  31.3748717  51.1474514  62.6670504  31.6193438
  52.5788975  62.6768923  31.1275578  18.3150816  23.5660148  34.2895603
  18.5772049  23.3543372  35.1855040  17.9230845  24.4368792  34.3541098
  54.0189362  75.4041815  18.1971347  53.9355707  75.2555180  17.2552323
  54.9560499  75.3165865  18.3714187  72.6468229   8.3599210  48.6713886
  72.8960323   8.0565757  49.5443773  73.4644985   8.6720282  48.2838058
  65.6931925  18.0992186  32.7106619  65.4372597  17.7397656  33.5600877
  65.8877277  17.3307347  32.1741748   0.1248830  59.2664671  32.5336742
   0.8246427  59.8118925  32.8929520  -0.5767399  59.3187761  33.1826901
  17.7779031  16.5123618  57.0320845  18.5594678  16.3541830  57.5615835
  17.5872433  15.6659901  56.6276884  79.1734219  72.2415113  37.0078778
  78.6055613  71.8748283  36.3301539  79.9471426  71.6779900  37.0027590
  47.9168558  55.3974485  32.2076678  48.8022804  55.5210972  31.8656707
  47.6454496  54.5450258  31.8671584  68.8624287   5.3690934  20.5149794
  68.6467218   4.5002466  20.1761436  69.6695375   5.6099284  20.0602245
  27.3510981  11.1317062  38.3145618  26.9293499  11.0313618  37.4611616
  26.8169594  10.6049800  38.9091086  68.6226130  64.0445662  26.2126184
  68.9113569  64.4028044  25.3732562  68.4617472  64.8140049  26.7588067
  67.0201159  18.2574618   8.6316085  67.7775383  18.5232568   9.1530472
  67.2088718  18.5833907   7.7516234  40.9424210  70.8724499  53.0425262
  41.8671179  70.8041286  53.2802296  40.7607937  71.8121815  53.0547047
  29.0304971  57.1195030  23.6878133  29.2823553  56.8993044  24.5846486
  28.0862403  56.9651937  23.6594701  74.6093130   6.2262815  56.1401892
  74.2034197   6.8562233  55.5446577  75.0265217   5.5861324  55.5636644
  57.9476976   2.5120172  35.3385854  57.7989483   2.4778311  36.2835407
  57.5375414   1.7150843  35.0025749  45.1946402  67.0540857  49.6753597
  45.6471205  67.7650690  50.1292229  44.3879080  66.9264317  50.1744747
   7.8911096  36.4915895  67.7733421   8.6255914  37.0339775  67.4859667
   7.3823076  36.3362837  66.9775820  10.4969645  75.7755423  44.4345617
   9.6918952  75.6617785  43.9294338  10.8395958  76.6232824  44.1514158
  58.2407808   7.8103119  48.1893492  58.3572197   7.7358186  49.1365194
  59.0913963   7.5675470  47.8236389  76.7554855  12.3679495  53.9399338
  76.5011168  11.4963233  53.6369562  76.2699842  12.4890137  54.7559404
  68.5788584   2.9500842  19.2519820  68.1185484   3.2442173  18.4659612
  68.0777073   2.1923921  19.5536101  82.8052139  36.5158081  46.7786312
  82.2760773  36.0492420  47.4255943  82.8091621  35.9411907  46.0131025
  18.1397915  71.6875315  44.2013025  17.7068853  72.0475864  43.4272337
  18.8135803  71.1054897  43.8499212   5.3201854  20.3673911  34.2450857
   4.5700216  19.8023343  34.4300127   5.9225363  20.2115011  34.9724817
  19.2349029  49.3759441  35.2424550  18.7916589  48.9359045  34.5171046
  19.9965775  49.7931767  34.8399639   9.4867551  45.8096552  59.1441107
   9.0999860  46.6667604  58.9652061   9.7097951  45.8370304  60.0745583
  34.6918392  62.3443985   6.5392983  33.9180946  62.6488686   7.0134801
  35.3877854  62.9451895   6.8056506  75.5106926  11.1544895  32.0298100
  75.4785728  10.6797409  31.1992598  76.0529900  10.6071329  32.5977421
  25.6040812   1.4731722  12.8880525  24.6651220   1.3102017  12.7984583
  25.8616281   0.9710222  13.6611938  15.4646969  49.4028044  11.4761841
  15.5868101  49.3462086  12.4238753  15.9880948  48.6829853  11.1238396
  44.6859121  76.5084410  47.3534632  45.1773024  76.0541248  46.6690922
  45.1490068  77.3379755  47.4702835  51.2240839  67.3697376  34.7793627
  51.0542917  67.4838972  35.7144403  50.5660200  66.7368174  34.4919610
  71.4990950   4.3268314  45.2216434  72.1406841   5.0108808  45.0301456
  71.9183016   3.5170174  44.9306202  61.9475555  13.8863659  38.9131045
  61.7167234  13.8168120  37.9867601  61.1210918  13.7511551  39.3766880
  63.1726694  36.7302942  42.7380133  63.2112932  35.9610939  42.1696186
  63.4715223  36.4134932  43.5903931  47.3466969  56.6058969  40.1302624
  48.1496811  56.0956192  40.0250912  46.6816378  55.9596968  40.3676558
   7.8250617  22.2628617   2.8752333   8.0753779  22.9333258   2.2395816
   7.7556854  22.7340245   3.7055495  73.6870193  46.6087866   1.3531865
  73.6330509  47.3344326   0.7312860  72.7873468  46.4852571   1.6557680
  64.5525980   9.8166251  29.4535184  64.7813225   9.5726669  28.5566330
  63.6764956   9.4539189  29.5843720  78.3793259  61.6694975  53.9108658
  78.3079433  62.2181416  54.6919727  78.5856199  60.7978725  54.2484379
  39.7219467  26.8395615   0.3763059  39.9520493  27.5096536  -0.2673257
  39.0928984  27.2697592   0.9554969  78.8517475   9.7616702  45.5873585
  78.0250025  10.2423608  45.6281519  79.4339371  10.3289390  45.0818920
  53.6773872  18.4739566  55.0267601  52.9659748  17.8507996  54.8791075
  53.6363316  19.0665674  54.2761850  68.0402088  40.0876379  20.6892586
  68.5562563  39.8460460  21.4583874  67.1876574  39.6773338  20.8343148
  64.5558596  53.7850189   2.7223876  65.1956749  53.0733156   2.7039069
  64.2725611  53.8760900   1.8126178  56.3527489   6.9859087  39.5987320
  55.4963779   6.6072994  39.7975206  56.1994743   7.5340492  38.8291335
  75.9363890   2.1070722  47.5624847  76.4965677   1.4304215  47.9427195
  76.5263176   2.8432709  47.4005413  55.3417683  63.2976532  14.7190797
  55.1094532  63.3323050  15.6470132  55.4958105  62.3690605  14.5452559
  41.5522814  34.6674275  54.6179342  41.1322880  35.4603076  54.2845011
  42.2839975  34.9877048  55.1454258  15.3880978  35.0737143  37.5244904
  15.1028955  34.1676998  37.4060416  15.5333698  35.1578259  38.4668565
  14.1975284  75.6138706  23.2612300  14.5336938  74.9779892  23.8928008
  13.2837844  75.7435608  23.5151672  31.4825559  76.2384605  30.8816504
  32.1845341  76.8535995  31.0939288  31.7247176  75.4322052  31.3372207
  51.7448187  36.8566537  12.1964765  52.1547318  36.9375730  13.0576694
  51.0481167  37.5130272  12.2002065  18.3921027  37.2093153  34.2342997
  17.8483784  37.6600623  34.8803830  17.8118837  36.5524745  33.8494110
  72.1068335   7.9150879  54.8684883  72.5571871   8.2251471  55.6541586
  71.6885042   7.0977509  55.1390314  49.9259377  13.3414996  25.8854961
  49.1606474  13.2043290  25.3271484  49.5989037  13.2131064  26.7758870
  27.6264048  21.9853020  29.0130520  26.7081833  21.7361689  28.9080071
  27.5949097  22.8878379  29.3303394  54.0318775  27.1355796  61.1290121
  53.7160349  27.0116949  62.0240688  53.2520247  27.0331883  60.5835056
  81.2701416  47.5887156   3.8115364  81.8841076  48.0477190   4.3847683
  81.7696762  46.8467379   3.4706929  16.2900388  70.2562046  40.0545073
  16.7210114  69.4787264  39.6995115  15.5845523  70.4428434  39.4350815
  61.5167284  76.1038828  67.1241856  61.1746979  76.6153336  66.3909292
  60.7476091  75.6687927  67.4921274   8.2901204  68.7976408  61.8485260
   8.9928496  69.4313335  61.9928789   8.1197351  68.4275055  62.7146673
  41.3833714   4.9307570  38.7015629  40.6451702   5.4734915  38.4245682
  41.4627743   4.2667928  38.0166698  72.6901436   9.5167047  23.3602953
  72.3393583   8.8646793  22.7536273  73.5990047   9.2503113  23.4989882
  80.5962563  41.5605640  15.4014349  80.5116844  42.4799681  15.1488924
  80.3504753  41.5426540  16.3263690  74.9726391  11.7478120  51.1362505
  74.5829391  12.6204038  51.0819197  74.3839598  11.2579262  51.7104483
  55.5059385  72.5298357  62.5570536  55.4264259  71.7215204  62.0505619
  55.3359699  73.2270765  61.9236469  50.3718519  10.8180845  44.3099070
  50.2871943  10.0532377  44.8791838  49.5801258  10.8051825  43.7721062
  77.8783941  20.8583379  47.3138475  77.3441172  20.0670195  47.3816490
  77.2844124  21.5184903  46.9566154   4.7216147  35.5514669  31.1241651
   3.8173100  35.2376795  31.1257267   5.2387631  34.7904062  30.8603930
   7.3195386  52.9486084   2.5927800   6.5341944  52.4044657   2.6508635
   7.5238442  52.9752874   1.6580182  56.8452883  71.4640570  17.8816438
  56.8915606  70.5936766  18.2772887  56.0632420  71.8604612  18.2656920
  25.1610780   2.2166960  38.4811735  25.3417873   3.0773169  38.8592052
  26.0147691   1.9013600  38.1845164  64.3692082  13.9355647   0.5083328
  64.0028924  14.4614303  -0.2026552  64.9113149  13.2812917   0.0675636
  25.8255267  65.3301001  65.4463387  25.4335713  64.4568253  65.4463434
  25.0935221  65.9211779  65.2702045  12.3152232   1.2127060  47.2409439
  11.8971968   0.4668947  47.6713514  12.6017869   1.7748712  47.9607248
  63.1313372  23.0780387  45.2837515  62.4886703  23.0446506  44.5751667
  63.6159325  23.8889813  45.1295710  28.8617492  35.0578308  59.2747545
  28.5538816  34.1573811  59.1716003  29.4102359  35.0350785  60.0588942
  26.2337875  28.5200286  15.6563437  25.3653479  28.1202435  15.6092501
  26.1653614  29.1585088  16.3661969   4.9036887  32.2253776  15.2436185
   5.0191903  31.3393736  15.5869615   5.7928896  32.5297546  15.0622094
  11.2346447  27.3093390  49.5398808  11.5934598  26.4868093  49.2068195
  10.3587615  27.0801640  49.8505878  70.3870357   3.3348452  67.6640832
  70.3864945   4.1448437  67.1540492  71.1796583   2.8765427  67.3849037
  23.8114786  60.8369541  36.6049623  23.8298655  61.7828321  36.7505956
  23.6608148  60.4637861  37.4734545  78.8205194  55.7059336  23.5143447
  77.9866123  55.5706739  23.9643908  78.6355162  55.4958534  22.5989914
  68.1279659  28.6375380  66.4039278  67.4584770  28.3190465  65.7984686
  68.5975742  27.8496790  66.6777515  29.2051530  71.9223452   1.4818974
  29.6020651  72.7283812   1.8120389  29.2275882  71.3217354   2.2268787
  81.9767284  40.5698633  65.1901102  81.3018894  41.2432861  65.1045036
  81.4909172  39.7660756  65.3748846  81.6687965  32.1567202  55.3833628
  81.9286346  32.4018407  54.4953156  82.4474335  31.7421126  55.7549143
  49.5795631  73.6196184  43.3963585  49.1340971  74.4164467  43.1085062
  49.0680504  73.3169937  44.1466951  11.8139458  75.8231735  24.5984721
  11.0724854  76.3925028  24.3927217  11.5482473  75.3619671  25.3940392
  41.1082697  76.1456633   1.7129001  40.4172468  75.4844856   1.6732822
  41.5662527  76.0638762   0.8763618   6.5546107  22.1899748  49.1464567
   6.3421905  22.0508814  50.0693655   7.0886111  21.4325809  48.9068031
   9.4808191  21.5054274  30.5202770   9.1956085  22.2800899  30.0357294
   8.7271285  20.9159160  30.4945827  62.3959637  56.9829226  47.0925665
  62.4045038  57.9319906  46.9683504  62.6719809  56.8577099  48.0005169
   6.0495317  51.1580467  26.6603541   5.1349282  50.8854485  26.7340016
   6.1414856  51.4451075  25.7518554  77.5080299  33.6800456  35.2810597
  77.4416018  34.0321279  34.3934464  78.1132936  32.9427695  35.2015996
  65.7568884  38.6696744  53.2909203  66.4819193  38.9622831  52.7387047
  66.1346626  37.9799151  53.8365889  68.4981441   7.3697263  45.6415081
  69.4265318   7.3718071  45.4084206  68.2901430   8.2896680  45.8048296
  31.0306072   2.8724462   3.8733634  30.3186131   3.4707925   4.0998149
  31.0988474   2.2854953   4.6263996  64.0808249  48.3646011  33.2197857
  64.9167061  48.8256359  33.2903695  63.6119604  48.5945845  34.0219736
  46.6144753  75.2676535  45.3115225  46.5208721  75.3506279  44.3625307
  47.4619198  75.6686449  45.5045795  25.5284977   3.4517691   4.4661158
  24.6530104   3.0658573   4.4373527  25.8233905   3.3098027   5.3656244
  58.0442238  43.3282089  41.8684721  57.7585411  42.4340200  41.6812801
  58.3303738  43.3020353  42.7815247  42.9105616  42.3658371  61.9129515
  43.5447884  42.4134827  61.1976051  42.2381306  41.7622805  61.5970659
  73.8606024  73.5401583  48.4002352  74.0022421  74.2662811  47.7928543
  73.7345982  72.7771616  47.8361559   6.0957247  21.8744779  10.7583559
   6.7820722  21.9850945  11.4163244   5.2926248  21.7611599  11.2667072
  67.7107048  20.1624417  26.4645910  67.7726269  19.4366908  25.8435559
  68.3162880  19.9281859  27.1678853   7.4194300  28.5775781  10.7533240
   7.0796424  28.1116080   9.9893558   7.8037798  27.8925157  11.3003135
  41.4352226  73.2621527  67.4256897  41.2797022  72.3601055  67.1457720
  42.3417377  73.4381962  67.1737576   7.4289358   7.6411343  51.0199165
   6.6253495   7.9425883  51.4437151   7.6565325   8.3435971  50.4108381
  20.0760865  37.6227760   2.0650075  19.2425871  37.4637437   1.6220403
  19.8442125  38.1498504   2.8296375  31.5386581   8.6217129  63.4168339
  31.2850356   9.5264912  63.2343960  30.7184339   8.1845343  63.6456108
   9.7561151  38.8739157  62.2941828   9.6175218  39.8133826  62.4142885
   8.9558780  38.4690571  62.6287556  23.0290461  70.7063389  63.2402945
  22.6152706  71.5133810  62.9341745  23.8207293  70.6263542  62.7082491
  48.1085491  20.8132839  41.5436935  47.5363255  21.4328241  41.9964170
  48.2266665  21.1896443  40.6715488  65.3210306  35.1600885  48.3387661
  65.8257437  35.0107718  49.1382647  64.4092894  35.0430799  48.6057281
   1.7267001  42.7812099  49.0126753   1.4434910  42.4067831  49.8468399
   2.0402914  42.0310307  48.5075760  43.9068842  24.2564750  58.0559349
  44.3640518  24.3748260  58.8885355  44.1434526  25.0279260  57.5410271
  80.3753567  59.2945004  63.5316706  81.0671139  59.0985775  64.1635847
  80.7349873  59.9999809  62.9939079  57.6699448  57.5951433  55.8179283
  57.1638298  57.1825790  56.5178347  58.5108662  57.8068304  56.2232351
   3.8724244  50.1121140  48.9350080   4.2285961  51.0004044  48.9175034
   4.3380785  49.6535301  48.2356501  67.6480675  11.7955506  42.0424414
  68.2326794  11.0453522  42.1504498  67.4169731  11.7873406  41.1135960
  55.3623295   4.3151370  54.2590284  55.3689337   3.3700395  54.4106197
  54.4896650   4.5958093  54.5345545  38.4079909  39.5408583  60.4540539
  38.9140821  38.7705374  60.7123327  37.5850606  39.4594526  60.9361172
  22.8602147  22.0816541  17.2870028  21.9898272  21.7728400  17.0354259
  22.9013038  21.9380093  18.2324708  59.8657322  23.8710046  16.5405333
  59.3763638  24.6930528  16.5090919  59.3814564  23.2817030  15.9622324
  73.9450598   9.6122879  56.1175728  73.2728004   9.5517623  56.7962790
  74.7622108   9.7367799  56.6002750  68.5983229  25.9652662  61.0895014
  69.3055820  25.5275393  60.6157827  68.8929224  26.8719316  61.1755228
   9.0672225  44.5939779  36.3817143   9.0513527  45.1287508  37.1754360
   8.4797537  43.8630247  36.5736103  31.7661572  36.1540055  30.7536411
  32.1031117  37.0422220  30.6363153  31.9881487  35.7040048  29.9385023
  75.0233793  42.6800060  44.6859264  74.3473339  42.9676247  44.0723515
  74.5411968  42.2314692  45.3805828  72.1184540   3.9617053  25.6187582
  71.6496897   3.4688455  26.2922430  73.0199003   3.6445007  25.6736469
  72.8277206  27.4143934  18.6770296  72.3464775  26.7657685  19.1907632
  73.7482691  27.2402453  18.8732219  24.9825191  65.5101252  48.8386297
  25.1341081  65.0295639  48.0248022  24.1719604  65.9949255  48.6830807
  38.9222026  59.7943068  60.2016258  39.0190911  60.7461262  60.2314234
  38.4674621  59.5742750  61.0146618  67.2062731  21.4977050  55.0343847
  67.4382353  21.1021376  54.1941786  68.0113220  21.9235134  55.3290367
   7.8677118  57.6851749  18.4921050   8.1635797  57.1392155  19.2205441
   7.8133172  58.5670090  18.8603950  68.7134838  28.6781383  53.8994980
  69.5463324  28.8740659  53.4703016  68.3525324  27.9462910  53.3991480
  15.6556463  25.7091117  51.1277008  15.5170631  25.2475619  50.3006554
  15.1044023  26.4888930  51.0621023  74.3663883  75.7661629  46.6328716
  73.8393259  76.2956953  46.0345125  75.2119684  76.2134457  46.6670275
  28.6879468  61.2361956  32.7522707  28.1556273  61.2433577  31.9567728
  29.5908570  61.2727594  32.4365997  19.3368590  37.0137310  27.2800207
  19.5963359  36.4231062  26.5728664  18.9362454  36.4419079  27.9348183
  60.6505775  43.5135078  15.0983322  60.9816408  42.6238823  15.2215850
  60.5611944  43.8609028  15.9857786  76.5099907  55.2618265   6.2835252
  75.8122396  55.5851555   5.7135814  77.0716763  54.7456694   5.7053220
  22.5102925  42.8968811  13.4170175  21.8190789  42.2347260  13.4190142
  22.0682740  43.7037373  13.1527483  20.6413889  58.7725496   1.2829813
  20.8074164  59.3695450   0.5534168  19.9974525  59.2291832   1.8243375
  65.2607679  12.4161196  53.2639360  65.1691008  12.2056913  52.3346663
  65.5163527  13.3384800  53.2765722  56.7726517  19.2012894  38.9277148
  56.8500280  19.6333253  38.0770755  57.5738287  18.6835706  39.0071630
  41.9188118  15.6143939  53.6859035  41.6625214  16.5337098  53.6123800
  41.5786362  15.2064872  52.8895855  26.8457365   8.3215928  40.7907724
  26.0519981   8.8076484  40.5672550  26.9732237   8.4876323  41.7248011
  78.3563328  22.3114395  39.0852475  78.8853407  22.7573752  39.7467017
  77.5680447  22.0372677  39.5539308  12.3376416  -0.1880814  38.8921905
  11.4795064   0.1669334  39.1241384  12.5633286   0.2483724  38.0707240
  20.5074310  39.9149418  35.1515532  19.9553072  40.6967020  35.1359701
  20.8072448  39.8154163  34.2479825  81.7634010  72.8809595  12.9333532
  80.9914589  72.3203611  12.8553927  82.2762871  72.4856520  13.6382711
  55.8483601  16.8914056  54.6928406  55.2888775  17.6679265  54.7079277
  56.2037325  16.8349779  55.5798340  22.5168848  50.0241518  17.3188567
  22.8630114  50.8898115  17.5357974  21.6642189  50.1999521  16.9210029
  19.4786954  75.5958796  36.1809754  20.1796770  74.9895668  36.4202237
  19.2159319  75.9970903  37.0093584  18.5190678  55.9297705  48.2230043
  18.6513317  56.8205643  47.8986216  17.7748287  55.5996227  47.7196741
  21.0393643  41.9346952  39.1991711  21.6581178  42.3355722  38.5887003
  21.0085225  41.0140705  38.9389157  70.9812641   0.1611347  42.1249199
  70.1401281   0.5642663  41.9099569  71.1422205  -0.4534925  41.4089918
  81.3816547  25.4814506  52.2788191  80.6861782  26.0329032  51.9204283
  82.1912003  25.8754683  51.9538260  17.0504642  20.9087777   9.0764785
  17.7306187  21.3246298   9.6062797  16.6563642  21.6290164   8.5843647
  58.2189421  77.4146573  36.8326163  58.8413601  78.0671048  36.5114617
  57.7291937  77.1475955  36.0547638  20.9176350   7.3323244  12.8532815
  21.7405200   7.2295994  13.3313394  21.1847115   7.5640500  11.9637847
  70.2592039  49.0354633  21.6916656  69.3709469  48.8317823  21.9844913
  70.8185720  48.7722969  22.4224734  10.9953284  60.1390743   3.8723427
  11.6018832  59.4545698   4.1547918  11.4530683  60.9579897   4.0622824
   7.1467566   3.1410721  57.1399832   7.1970707   3.9594704  57.6338673
   7.7457911   3.2680914  56.4042807  73.8891888  64.6041679  34.7310662
  74.1542578  65.4481268  35.0967288  74.3583059  63.9570045  35.2576995
  40.4233360  32.0109558  59.6049738  40.7246256  32.6488805  60.2518988
  40.8097887  32.3054171  58.7802458  10.4854786  23.6835432  36.7457843
  10.5968022  24.4401383  36.1701083   9.5729333  23.7315917  37.0307112
  71.0638428  46.0799503  30.2389717  70.2416515  46.5206575  30.0244808
  71.6658878  46.3443804  29.5433807   6.4634675  70.9563160   0.5118038
   7.0132792  71.7226028   0.6753534   6.6423386  70.7232285  -0.3991876
  73.1582117  13.2195401  16.1378002  73.2596874  12.6130819  15.4042172
  72.6600409  12.7260673  16.7893696   9.1867220  43.7845230  61.0053921
   9.3245882  44.0726233  60.1030493   8.2972765  44.0697241  61.2146282
  53.8224888  45.8892250  47.3307180  53.5730553  45.1016426  46.8472672
  53.2513189  45.8897114  48.0988312  -0.0944949   8.6677295  52.8704500
   0.2303132   7.8602344  52.4720955   0.6746326   9.2351049  52.9229832
  11.3103235  45.0954056  50.6021595  11.8189573  45.5006695  49.8998165
  10.8540332  44.3683338  50.1786041  14.0209901  47.2715044  50.3334713
  14.2165732  46.7738819  49.5395279  14.5293653  46.8381929  51.0190582
  66.8441200  24.5491815  32.1659756  66.8513107  24.0770984  32.9986334
  67.5584984  25.1816058  32.2430301  32.6098522  77.9272907  37.3214316
  31.6528067  77.9141863  37.3102140  32.8581986  78.0672365  36.4076638
   3.7253442  10.6790447  40.5514383   3.4202477  11.4647520  40.0977755
   2.9351744  10.1540744  40.6789875  10.8459818  51.1822081  12.9797852
  10.9402907  50.3274632  12.5593698  10.0994349  51.5858173  12.5370657
   4.6396005  64.2789078  63.9424372   3.8693020  64.4988251  64.4663715
   5.2619970  63.9156103  64.5724154  72.7694368  23.2567501  53.5352373
  72.0697069  23.2406306  54.1881943  72.3831224  22.8491759  52.7600765
  55.5891418  62.5620270   5.1561797  54.7917223  63.0814266   5.0533128
  56.2227440  62.9775476   4.5712674  81.6606617   1.4080809  39.4678211
  81.0814571   2.1524890  39.3046904  82.4955940   1.6638301  39.0757680
  19.7051752  14.1196525  54.6287918  20.2126098  14.9238515  54.7383690
  19.6048141  14.0269864  53.6813879  14.1789508  15.2598858   5.2898848
  14.2745829  15.8375704   4.5326751  14.9639320  15.4197800   5.8137816
  10.4078352  20.5190945  22.9148149  10.1376712  19.6314681  23.1501126
   9.6069825  21.0390139  22.9822707  16.7631805   9.1252667  17.8607285
  17.1057165   8.5146338  17.2080207  16.1864460   9.7067720  17.3652887
  61.2603378  24.1209173  50.3224516  61.7163181  24.9619150  50.2902126
  61.6114187  23.6294889  49.5798445  81.4052963  17.6266277  39.2201018
  80.4580784  17.6526284  39.0847135  81.5434456  16.8805456  39.8036337
  33.5505819  71.2509394  34.1797471  33.6140633  71.8558168  34.9188852
  33.7705946  71.7831278  33.4151554  43.7436962  52.8011322  26.3486004
  43.9103699  53.6277008  25.8955717  43.9844465  52.1269560  25.7131791
  60.4085255  33.2121563  22.0789480  59.7822714  32.4905896  22.0207882
  61.2484312  32.8201842  21.8399024  58.3191156  77.3406363  12.6004088
  58.9998102  76.6718006  12.5259554  58.7964487  78.1702709  12.5908244
  13.1938934  27.3621774  47.1194410  13.6184239  28.0721116  46.6377831
  13.3103991  27.5945830  48.0406618  72.2905540  34.6721077  58.6559343
  71.6716480  35.2900648  58.2669401  71.9068146  34.4509387  59.5044994
  81.5677452  30.6132722  35.4101801  81.3463116  29.9716306  34.7352767
  81.9475842  31.3473320  34.9273658   9.7880048   7.9757637  33.0999804
  10.0083697   7.0652699  33.2966328   9.3363142   7.9361647  32.2569847
   3.3356020  49.4243288  60.9671640   3.4109157  48.9084864  60.1643753
   3.1023374  48.7858772  61.6411066  77.7322292  52.1562481  43.1983805
  77.4524450  52.8567266  43.7876892  78.6089420  52.4167347  42.9159689
  18.1096721  64.5286322   3.6701456  18.0363572  65.1586485   4.3870422
  18.2885730  65.0646830   2.8975654  73.8492012  29.2979527  23.9144707
  73.9357519  30.2443171  23.7998605  73.8282871  28.9496636  23.0231285
   1.3913034  50.6753731  62.0709085   1.5783392  51.6126776  62.1230173
   2.0959553  50.3202915  61.5290451  81.7117214  48.2802200  51.7885303
  81.8000793  47.4244452  51.3689184  82.5771046  48.4564543  52.1576977
  66.9724083  23.0054998  52.1798372  67.6013088  23.2635283  51.5059423
  67.4242067  23.1748915  53.0065298  20.7102585  22.8890634   2.2492580
  20.1660824  22.5686407   1.5299289  20.2954650  22.5390053   3.0376980
  81.7309380  42.0314217  51.8846989  81.2805080  42.8656864  52.0163918
  81.3318729  41.4403677  52.5231600  17.1752810  38.1988311  36.7352962
  16.3054204  38.4717464  36.4435935  17.6213217  39.0164614  36.9561124
  42.6622629  77.9771328  18.3751893  42.2639847  78.2959461  19.1851056
  42.0829105  77.2728109  18.0844736  74.7233534  17.5768721  30.6885958
  74.0910816  18.0780447  30.1735306  75.5589771  18.0187440  30.5378842
  32.0586181  33.2696223  45.0385666  32.1810150  33.8070464  45.8211422
  31.4151144  33.7492085  44.5169020   2.5675812  23.5738826  50.8705473
   1.8177435  23.0487657  51.1502361   2.4380368  23.6944199  49.9298477
  25.7751799  37.5745940  18.7928772  25.8848763  36.8245268  19.3773401
  24.8302174  37.6318526  18.6514556  50.4902267  18.8355660  40.7026196
  49.5671082  19.0554428  40.8280516  50.9587860  19.4202340  41.2983084
  82.4938774  10.9647548  37.3975134  82.9420280  11.7853010  37.6026964
  81.8743896  11.1966956  36.7056537   4.0846148  67.2102356  37.4191165
   4.0348327  66.7972851  36.5570116   3.6227882  68.0419540  37.3133206
  54.1397667  77.0008564  52.1942139  53.3777809  77.5245571  52.4419022
  54.2674017  76.4011526  52.9292583  12.1183944  62.7392435   3.9527765
  11.9867504  62.8891850   3.0166036  12.0518661  63.6092424   4.3463653
  56.8587828   5.4176766  26.8828797  57.1900606   4.6676007  27.3767138
  57.5154877   6.1011815  27.0162559  11.2086535  30.5659866  35.4965186
  11.4451241  31.3662791  35.0276423  10.3889620  30.7821608  35.9410477
  63.9244890  16.5950882  46.5414858  63.6644983  17.2915983  47.1444035
  63.7789345  16.9652522  45.6708431  73.7831736  38.3656883  52.0725775
  74.7342825  38.4596467  52.1253920  73.4538937  39.2644143  52.0626688
   5.1244396  30.3827047  49.8134136   4.4469762  29.7112584  49.8936129
   5.8422434  29.9452281  49.3555880  71.3869333  19.1046643  45.7769442
  71.2466431  19.5922077  44.9652433  70.5053997  18.9008069  46.0893059
  67.0363188   6.1881542  64.3366194  67.2090387   5.3648633  64.7933340
  67.8560925   6.3878560  63.8846016  55.0569725  27.4041343  35.4840493
  55.8021498  27.5043035  34.8916769  55.3245449  26.7140055  36.0909724
   9.4077349  41.2386084  54.0241718   9.6244991  41.5093470  54.9163294
   8.8826144  41.9592476  53.6760950   4.5400438  15.4440892  26.5588760
   4.6830136  15.5362940  27.5008368   5.3856587  15.1556933  26.2153721
  43.4693861  16.1290967  48.2584333  42.7463150  16.6591001  48.5938358
  43.9974642  16.7412710  47.7459764   7.5663531  19.6929610  44.3685246
   7.9128307  20.5808163  44.4573879   8.1440365  19.2731011  43.7311602
  65.0253057  20.6255126  45.9883118  65.9434080  20.7754230  45.7628298
  64.5907784  21.4542484  45.7867765  78.2469034  41.0950470  29.7197294
  77.7767611  41.6570616  30.3356338  77.6747370  41.0478449  28.9538121
  60.2438593  39.8972869  57.7787352  60.8570433  39.2055225  58.0271387
  60.7995605  40.6009293  57.4435949  62.8848410  33.6146426  35.6542087
  63.2191610  34.5115447  35.6487274  63.2697773  33.2203293  36.4368796
  54.4734478  51.2004757  11.4940345  53.6661482  51.6968727  11.3595247
  54.2392588  50.2985001  11.2753439  68.8864851   2.7773148  39.3820882
  69.8021889   2.9614016  39.1727185  68.4790182   2.5956193  38.5352206
  33.6750531  58.6095190  39.6366620  33.0069470  58.7245369  38.9609122
  33.3594060  57.8749466  40.1629734  60.1863050  43.3352089  45.0955677
  60.7522297  42.5674963  45.1766825  59.2998123  42.9762459  45.0566959
  23.9692998  17.7516019  29.4078088  23.1611586  17.2644711  29.2470360
  24.5658660  17.4600959  28.7183404  55.0539398   9.9692732  44.4298792
  54.8124456   9.2011893  43.9122295  55.2195644   9.6243590  45.3072834
  36.7029619  22.2632074  53.0443478  36.6877842  21.3804054  52.6746655
  37.3484135  22.7329731  52.5161934  50.0201130  50.9554434   9.2223763
  50.7063198  50.8996916   9.8873901  49.6669292  51.8401384   9.3162382
  72.7186108  58.0743599  36.3721156  72.4170113  58.9157295  36.0295296
  73.6527252  58.2035875  36.5363383  22.2711563  45.6654024  56.0214233
  21.7253733  45.9576988  56.7514324  22.0640683  44.7358894  55.9247208
   3.5562524  51.0152292  21.7933226   3.6285615  50.8482647  22.7330709
   2.6349059  51.2377644  21.6597939  72.5694895  22.2540498  47.3028946
  71.9290781  21.6790724  47.7218294  73.3153868  22.2590709  47.9027653
  61.5678787  47.6137733  46.7273712  61.7234087  48.0074549  47.5858927
  61.0403919  48.2608938  46.2591553   1.5316099  15.5936158  31.0650182
   2.2193849  15.7756853  30.4246688   1.9583602  15.0491583  31.7265940
  70.7232571  46.4045906  54.6084356  70.5263805  47.2436619  54.1919851
  71.0838699  46.6402245  55.4632235   0.6799245  60.4779434  26.0153031
   0.4274858  61.3879919  26.1712480   1.2941667  60.5219793  25.2825022
  18.2045734  32.3141289  53.4541702  17.9900610  32.7896380  52.6516056
  18.9744639  32.7648401  53.8010931  35.4351068   0.9022219   9.3284011
  36.0520005   1.5496621   8.9870846  34.6940660   1.4200345   9.6429789
  52.8406858  67.2155142  24.6196723  52.3521328  66.9818020  25.4089284
  52.6403761  68.1409264  24.4792318  64.2316437  32.5342679  46.0690117
  64.8478889  32.2954369  46.7614222  63.8550854  31.7011094  45.7856655
  59.7246218  52.2005701  44.4600105  59.7144270  52.9435587  43.8566065
  58.9394236  52.3158503  44.9951744  81.3126945  28.0342555  47.0038080
  80.7844353  27.9819036  46.2072945  80.6720448  28.0765247  47.7137470
  44.5662308  67.2649717   1.8058617  43.6648417  67.1601915   1.5013173
  44.9943590  67.7729368   1.1167240  64.6673012  20.6616569  28.6660361
  64.5008945  20.3664684  29.5612478  65.0128126  21.5486360  28.7666368
  11.5818489  60.6698942   8.5040522  11.8344748  60.8541965   9.4087315
  12.2354043  60.0420141   8.1960464   8.8897973  23.1776476  66.4482212
   8.8392508  22.2347045  66.2915897   8.4018672  23.5674334  65.7228136
  69.4909763  53.8987780  27.4728751  69.3758678  53.3771324  26.6786051
  68.7896585  54.5491838  27.4359918  81.2321949   3.6557201  25.7879663
  81.7468357   3.5180131  26.5832114  81.1345482   4.6059996  25.7274222
  22.6976228  52.0992851  21.9022632  23.3153224  52.6592541  22.3724890
  23.1301785  51.2463331  21.8622351  66.4646721  29.1604400  36.6243958
  66.5013075  30.1093912  36.5044761  66.9303989  28.8051987  35.8673382
   5.4656661  68.7098312  26.7927408   5.6286407  69.6411180  26.6431594
   6.3122022  68.2906723  26.6380954  60.4170847  61.2217331  58.0217314
  61.0893488  61.5361261  57.4172020  60.7959557  61.3535166  58.8908243
   4.2651352  29.4075394  25.7675099   4.0180343  30.2957797  25.5102110
   5.0803703  29.5179653  26.2568235  46.9558716   5.2802938  24.4976354
  46.8848944   5.8517742  23.7330437  46.6636133   4.4241917  24.1847372
  69.3215132  14.4779491  26.8484664  70.0614214  14.2275548  26.2952328
  69.3182802  13.8291240  27.5522041  35.3683734  48.3420801  12.0551229
  36.1732483  48.2357597  11.5480673  34.6971035  48.5363388  11.4009905
  34.2377615  73.8281012  51.8375969  35.0830483  74.2739964  51.7837572
  34.4435906  72.9055405  51.6867924  34.6688509  17.4490583  11.9359028
  35.2687573  16.7520487  12.2014582  34.4126177  17.2173393  11.0432196
  59.8289156  22.6281476  38.0433083  60.1979876  22.1062016  37.3308516
  59.0166903  22.1775079  38.2744837  11.5732682  53.7825060  64.4543552
  10.8744967  53.4872723  63.8705826  11.3955867  53.3392572  65.2839279
  19.8166846   0.4228948   1.8866122  20.7651614   0.5112337   1.9805425
  19.6878575  -0.4799057   1.5957789  44.8118734  75.3880167  32.5863147
  45.6844950  75.4649734  32.9721117  44.8712206  74.6262360  32.0097733
   7.7992302   9.2003685  44.7797298   6.8846083   9.3568546  44.5447588
   8.1684148   8.7512863  44.0192938  10.7332027  41.6883421   4.9190253
  10.4465687  42.2812223   4.2243582  11.3947356  41.1349821   4.5038146
  57.3687172  52.7861738  12.9196489  57.9440737  53.5094547  12.6705277
  56.7719555  52.6883459  12.1776652  13.0843437   3.3897182  39.5420051
  13.4001327   4.2530933  39.2753720  13.4635913   3.2536057  40.4102659
  79.5844364  54.7762012  48.1302404  79.6913671  53.8957930  48.4903526
  79.4768381  55.3375864  48.8980293  57.3703814  17.8281093  60.1775885
  58.0270290  18.3414698  60.6482315  56.7242098  18.4726310  59.8889971
  77.9921675   3.2694352  33.9906144  77.8246069   3.2903120  34.9328041
  77.5185585   2.4977198  33.6801600  58.3675861   6.4600766  21.0541320
  58.8912678   5.8982229  20.4828978  57.4828291   6.4115822  20.6920671
   3.0262503  20.3263712  48.5874414   3.1481370  19.7627151  49.3514204
   2.1051857  20.5842376  48.6245537  35.7470226  72.2575617   8.6266106
  35.2283549  73.0546093   8.5173678  35.1227570  71.6080236   8.9500690
  10.3288376  32.4457765  16.8110192  10.1078951  33.1993556  16.2637222
   9.7112858  31.7654991  16.5425372  31.8259406  61.4384890  37.4569249
  31.4256120  62.2717237  37.7052975  31.2939358  60.7762337  37.8980875
  47.0537424  63.4921598  46.6267586  46.2800980  63.9973450  46.8767500
  47.3424435  63.8875008  45.8042097  28.9559841  71.4742231  10.9111416
  29.7315335  71.5020084  11.4714849  28.9686894  72.3090506  10.4430223
   0.4941797  73.4254646  58.1825686   0.4988156  72.8086758  58.9145422
   1.2878503  73.9466953  58.3035421  18.3831978  35.0287604  22.9415822
  19.0652478  34.3602252  23.0056095  18.4483504  35.3521037  22.0430088
  63.9663982  60.5532408  33.6214828  64.6354866  60.6420803  34.3002009
  64.4583511  60.3549576  32.8246784  58.1363964   4.3423072   1.4261289
  57.6638937   5.1602840   1.2715703  57.5365353   3.6589980   1.1269847
  71.1401749  13.6581421  59.0297985  71.1015987  13.5602808  59.9811983
  72.0702362  13.7799513  58.8390636  37.6030111  20.9604406  61.1941814
  37.9576683  20.0912428  61.0072327  38.1937647  21.5625548  60.7417440
  66.2905359   7.9617459  50.4042292  65.6097841   8.2993847  49.8221588
  66.2143326   7.0100844  50.3352022  79.3661642  44.9223804  31.9053507
  78.8882542  45.7459068  32.0035172  78.6968136  44.2853165  31.6556478
  34.5708156  27.4011636  12.8657770  35.4478669  27.4643373  13.2439590
  34.0971112  26.8151355  13.4560359  66.1983109   9.5318526  38.1380415
  65.5278111   9.4985080  37.4557304  65.9465361   8.8447225  38.7550449
  56.5425062   2.7442276  32.0003676  55.9052801   3.0604455  32.6408195
  56.3333511   3.2226107  31.1980987  13.8060391  34.3512988  31.1577511
  14.4217253  34.6969104  30.5114436  14.2836046  34.3870592  31.9865370
  17.9271400  70.7929134  27.2103333  16.9968569  70.5799866  27.2842789
  18.3596754  69.9449539  27.1097827  41.3528919  28.8853574  56.2114143
  41.3570690  28.3538508  55.4153538  42.2533417  29.1992140  56.2945795
  43.3671618  66.0047245  59.3004847  43.5048342  66.9357204  59.1257715
  42.4335909  65.8665133  59.1405582  60.5663252  28.6433005  22.3839450
  61.3131905  28.0449772  22.3631859  60.6583595  29.1125822  23.2131243
  31.2327361  18.7602496  64.8253107  30.6779027  17.9832923  64.8940802
  32.0960498  18.4182596  64.5930052  72.8295374  46.5088320  45.4556942
  72.1710443  45.8142805  45.4409790  72.3850298  47.2516966  45.8641052
   0.9723441  35.2041578  22.9012561   1.2979153  36.0998273  22.8117609
   1.2798804  34.9224925  23.7628341   0.2004647  17.4968934  18.0857170
  -0.6791017  17.1368837  18.1996810   0.7058962  17.1281850  18.8101649
  62.7941275   1.4290681  49.1531467  62.3913002   0.7704443  48.5873079
  62.7258205   2.2449565  48.6572742  59.3929672  27.0037198  29.3365121
  59.2054796  27.4745297  30.1485586  60.2819681  26.6687751  29.4536376
  69.3143559  47.5088835  28.6430049  70.2383518  47.6494503  28.4363484
  68.9528608  48.3903456  28.7356329  76.1388016  28.5419536  37.1154976
  75.7697868  28.5808492  37.9978514  76.4793062  29.4227910  36.9592452
  38.7303734  18.5374629  60.9109879  37.9807472  18.0380225  61.2347937
  39.4942236  18.0566180  61.2296581  11.6506517  16.2204278  26.7192292
  11.2946188  17.0331228  27.0783949  12.0847452  15.8003497  27.4617434
  64.5650053  21.8673396  17.8431547  65.3680468  21.4495039  18.1542361
  64.5989752  21.7726159  16.8912590  67.6748705   0.7666510  20.7041025
  67.7090740   1.0463460  21.6188884  67.0353699   0.0544768  20.6951427
  59.3965006  52.0582056  34.7651339  58.7859154  52.7731276  34.9448752
  60.0304699  52.0989656  35.4811311  19.5194328  25.6729627  64.4633818
  19.7281539  24.8727417  63.9813948  20.2858806  25.8266377  65.0158072
  47.0369768   5.3342140  33.5777950  46.5486622   4.5710784  33.2689190
  47.6938438   5.4890639  32.8989863  51.9236565  52.2938633  65.2803230
  51.2645912  52.9869080  65.3196955  52.0484591  52.1348953  64.3447018
  32.5731063   6.3504392  29.0025115  32.3149800   7.0340943  29.6207500
  32.1076560   5.5691963  29.3012571  60.4660463  52.0937538   9.2746645
  59.9500465  51.7353201   9.9968135  59.9675751  51.8684292   8.4891802
  67.8871298  50.9740400  42.2938251  66.9892073  50.8786917  41.9762182
  68.2980680  50.1299095  42.1072912  39.1172075  70.9754896  26.3646102
  39.5397878  71.3212299  25.5784035  39.7937751  70.4464340  26.7872071
  30.0375938   1.3423136  23.7116385  30.6742072   1.7196795  23.1045532
  30.0390601   1.9378574  24.4610095  -0.0586184  37.4618483  53.9427471
   0.4875161  37.1450663  54.6622038   0.3835227  37.1523714  53.1521940
   7.6858133  65.3168821  36.7101216   7.6961464  66.2521935  36.5068507
   8.4387326  65.1888514  37.2871423  53.7685776  69.6620655   5.9547031
  53.6181545  69.2370605   6.7990834  54.7196770  69.6515036   5.8473092
  43.4684753  46.7298746  49.0302134  43.8315773  47.0186710  49.8674631
  44.1568851  46.9189978  48.3925962  10.5726540  69.4802952   7.3053926
  10.0077820  69.9976206   6.7313492  11.4535916  69.8167324   7.1411031
  66.7285442  36.1423588  39.1475749  66.6941643  37.0735073  39.3666935
  67.4390793  35.7954359  39.6870375  21.8031287  37.7793241  65.3041363
  22.5398993  37.1770930  65.2006054  21.9081879  38.4108686  64.5925570
  57.5044584  18.3713400  30.6498766  56.7586565  17.8588140  30.9618497
  57.1182489  19.0276241  30.0699067  60.3130293  17.3151052  29.5949960
  60.7364988  18.0929255  29.2318106  59.4224787  17.6005268  29.7991562
  10.0632286  53.9334059  61.3894320  10.1944709  54.7737646  60.9503412
   9.2645925  53.5804033  60.9972572  55.2825928   9.0155721  23.6009884
  55.7138443   8.1992739  23.8537884  55.9569550   9.6862090  23.7091994
  53.6074591  68.9075661   8.5956860  53.4427404  69.6127367   9.2216527
  53.2265854  68.1304502   9.0046543  32.5914288  56.1806011  62.5098181
  33.0207705  57.0088291  62.2954845  33.0096793  55.5385351  61.9361925
  75.9933329  33.5682654  22.7786779  76.3362026  33.0893803  22.0241284
  76.4181805  33.1613994  23.5337901  62.7450991   9.9635500  15.9190083
  62.9729843  10.4880023  16.6866326  62.9730654  10.5187523  15.1733458
  16.6094208  38.9629698  63.2636452  16.1174107  38.8455892  62.4510098
  17.5264072  38.8766146  63.0030537  42.8340721   9.8980433  12.6937401
  42.4921417   9.9643648  13.5853231  43.7711477   9.7395521  12.8077638
  43.3766842  66.7915964  17.5993705  42.7893114  66.9279671  16.8559802
  44.0818644  66.2463522  17.2505689   8.7744051  35.4628325  63.9405060
   9.3699855  35.1738238  64.6318769   9.3312025  35.5537057  63.1672335
  17.8697538  27.1239805   9.5324308  17.9259968  26.2149930   9.8270643
  18.5233307  27.1910024   8.8363147  74.7016573  71.6389751  17.0586348
  74.2916536  70.8274031  16.7595077  74.9991798  71.4436531  17.9472065
  63.0957603  28.5590959  63.0079222  63.0616617  27.6049352  62.9397535
  63.6634588  28.7253165  63.7604666  63.6903000  11.1527503  38.4059644
  63.1169844  11.8462992  38.7323499  64.0021229  10.7088256  39.1945887
  36.1633190  23.6350714  67.1601594  36.2439665  24.4884859  67.5860763
  35.6007513  23.1276261  67.7451798   3.3553758  13.0350995  25.7140851
   3.4316498  13.8564384  26.1996961   3.8170314  13.1992674  24.8917985
  79.8457575  18.2862270  32.7695751  79.8045301  19.2390919  32.6884508
  79.6194983  18.1136453  33.6834979  12.1340621   9.8463893  46.2293148
  12.5159466   9.2245430  45.6098795  11.2512481   9.5130515  46.3898039
  66.6620255  28.6855793  17.9868519  67.1689415  28.1275725  17.3970282
  65.9370613  29.0054417  17.4498737  46.1114597  11.9915688  28.6300063
  45.4350424  11.5864074  29.1727161  45.7096767  12.0690966  27.7646780
  44.4629765  41.2680387   8.6115909  45.3103638  41.1527205   9.0415543
  44.3089342  40.4385185   8.1594890   9.9915534   8.8147324   5.6552118
   9.1962725   9.2911875   5.4169869  10.6410813   9.0954012   5.0105649
  14.1591918  19.0349424  16.9080210  14.9357593  19.4720781  16.5586102
  14.3724906  18.1025183  16.8716931  46.0442591  21.4721251   4.4790408
  46.9714594  21.2955546   4.6382785  45.7187080  21.8125153   5.3123373
  62.8082085  32.8880715  61.1706257  63.2556868  32.0748448  60.9368372
  62.7213573  33.3602595  60.3425407   2.7467209  16.4134800   3.5111448
   2.1378982  15.9419298   2.9426324   3.4726402  16.6556573   2.9361460
  64.8166800  27.2144651   9.8994577  65.2974606  27.5857520  10.6392086
  64.8824596  26.2674379  10.0221109  13.6401200  23.7938857   2.3689820
  13.5610056  23.5559940   1.4451966  13.4527707  22.9830909   2.8419980
  27.1212220  28.2630992  31.6969681  27.0744991  29.2160511  31.7739701
  26.8033433  28.0783439  30.8131981   0.7358288  35.3866982  65.6287622
   0.6183203  36.0619831  66.2969065   0.1148964  35.6214619  64.9391556
  44.4756174  52.6276731  19.1859484  44.8380995  51.7551231  19.0326571
  43.5901308  52.5860023  18.8248265  65.6646872  28.5611367   2.8879288
  65.1398945  29.0414381   2.2475091  65.0516272  28.3547091   3.5934648
  22.0310163  22.5459242  60.0156927  21.8476152  22.6821113  60.9452343
  22.8701329  22.9830241  59.8705721  23.2058001  14.4842720  61.6880608
  22.9607940  13.8770545  62.3862648  22.7649045  14.1443849  60.9093952
  10.6351244  34.6210027  56.2367439  10.1567626  33.9276314  56.6913223
  10.0720131  35.3911257  56.3145113  39.0741324  48.7457848  13.5926127
  39.9431109  48.4766817  13.2948053  38.5677242  48.8534403  12.7875078
  80.5552864   2.6569775  36.4043570  79.9842310   1.9077474  36.5739942
  81.3959694   2.2677034  36.1636329  71.7161798  18.7182188   8.0262166
  71.8678856  18.1349576   7.2825611  72.5017643  18.6279058   8.5655969
  38.0081987  64.4156265  21.0796857  37.5237918  64.3043280  20.2616429
  38.4138775  65.2791405  21.0022306   1.2341800  31.0413814  56.7556620
   1.8871735  30.7307124  56.1285114   1.7193049  31.6284418  57.3355246
  27.4985743  11.3967383  19.7997749  28.3826637  11.7027736  20.0021601
  27.1775746  11.0300851  20.6236410  25.8991122  56.2469625  50.2991772
  25.6879544  56.0751009  49.3815136  25.0940895  56.6127491  50.6657410
  61.1438036  21.1495495   9.8058701  61.4026976  20.2710009   9.5277297
  60.5516768  21.4537668   9.1180706   0.9497234  46.6549301   1.9745532
   0.6108432  47.3590326   1.4217117   1.8627694  46.5567207   1.7044906
   9.0762001  58.5104895  43.1816769   8.7530160  58.0055285  43.9278698
   8.3378989  58.5376740  42.5730705   5.0852829  10.1690280   6.7220056
   5.3451133  10.8576810   7.3339516   4.3711832  10.5557823   6.2153357
  66.7393494   6.3517457  35.7939744  67.2402430   7.1557939  35.9312510
  66.2170315   6.5256870  35.0109291  72.9554892  31.5009546  12.8365374
  72.7432775  31.2090659  13.7231028  72.3165560  31.0570955  12.2788727
  41.1503839  52.1073961  55.2460480  41.7178249  52.8537798  55.0532866
  41.3472080  51.8856478  56.1561632  67.0507288  23.1017780  45.7664442
  67.2639370  22.4060917  45.1445198  67.7110147  23.7761974  45.6070280
  80.9392548  38.8936496  51.8195629  81.1284733  39.3189073  52.6559734
  81.2170315  37.9861355  51.9440269  51.5602064  27.1110797  18.0017674
  52.3165703  27.5625181  18.3763909  51.0448122  27.8062391  17.5926769
  42.3727226  17.3832858   2.5926888  43.0833626  17.7613378   2.0747131
  42.4537325  16.4391685   2.4573603   5.9476948  13.8069415   4.3049377
   6.3775289  14.5082366   4.7944885   5.2106571  13.5462296   4.8572385
   8.8159031  54.4139576   4.2767134   9.3018985  54.9163961   3.6228049
   8.4393889  53.6833525   3.7861156  78.7473679  37.6498461  55.3023672
  78.6115122  37.3384929  56.1972618  77.9488707  37.3992753  54.8377800
  58.5722303  48.6241817  38.4617686  59.1876698  48.9660978  39.1102719
  58.4393072  47.7109528  38.7158847  41.5584326  72.4522877   5.5322403
  42.4405003  72.6249743   5.8614331  41.4800358  73.0060148   4.7554040
  15.3792119  48.2088804  56.1163235  15.2809703  47.3051739  55.8165073
  16.1485529  48.5340548  55.6487703  13.8918412  32.7681899   7.0367604
  13.6233926  33.1813574   7.8574061  13.3948004  33.2306314   6.3619792
  25.8811831  52.9019547  64.5706224  25.8887315  53.6347198  63.9548063
  25.6222010  52.1473122  64.0417862  38.3117580   4.7407195   9.9303186
  38.4182262   5.4687023   9.3179971  39.1646004   4.3061432   9.9363565
  80.0105667  49.2534733   5.7650101  79.2719269  48.6899328   5.9953630
  80.4779625  48.7693977   5.0842446   2.9091159  47.3055696  62.8770399
   2.6685417  46.5346766  62.3631477   2.1793601  47.4256134  63.4847212
  64.9874067  66.5945196  49.4010305  65.1666784  65.8181381  49.9314308
  64.6247721  67.2286510  50.0195837  58.9837360  68.0267191   9.3182653
  58.1516790  68.0573177   8.8460606  58.9276600  67.2335720   9.8511893
  52.4606466  58.5563469  31.6757703  51.5052605  58.4977484  31.6820717
  52.7009869  58.4512520  30.7552147   9.0072000  44.9136543  22.0382333
   9.8161799  44.7585249  21.5506697   8.3811498  45.2071571  21.3763022
  71.0892105  14.1352987  19.7522664  70.1346254  14.2041636  19.7362566
  71.2638998  13.2011223  19.6381140  15.9982204   0.1699480  38.3044219
  16.0965085   0.8348262  37.6228738  15.0557435   0.0082587  38.3471537
  60.9901190  32.0044541  31.9442844  60.9303141  31.9618821  32.8986645
  61.0099649  31.0892773  31.6644835  52.7805710  11.8835306  43.7163496
  51.9225550  11.5565312  43.9867449  53.3741140  11.6033554  44.4130850
  47.2213793  19.1997349   8.1693965  47.8649569  19.2638457   7.4637544
  47.5933552  19.7209144   8.8809013  23.8302994  75.6500053  44.3201828
  24.3981862  76.4158392  44.4052601  23.0609918  75.8623934  44.8486567
  45.0243139   3.2259274  61.3191271  45.5699921   2.8672281  62.0189857
  44.4357252   3.8362706  61.7632866  78.4543324   9.0966111  38.0598855
  78.8296986   8.3550155  38.5346198  78.7733412   9.8675561  38.5290432
  44.5544624  40.1392460  57.6196241  43.9718533  39.4466710  57.9312849
  44.2681456  40.3071022  56.7218018  15.8728945  61.1235857  40.1741266
  15.4500461  61.9791842  40.1007462  15.1592660  60.4940796  40.0707436
  12.2263873  64.2207623  13.3693278  12.7612579  64.9915028  13.1793153
  11.3279915  64.5054770  13.2018316   7.3541397   2.2775383  17.6286769
   7.5055915   1.7749736  16.8282247   6.6814882   1.7838609  18.0977762
  48.7316227  65.8873606  19.0346694  48.1033945  65.4029799  19.5703351
  49.4782543  65.2948999  18.9465809  19.3335271  26.7339945  27.7853966
  18.4867930  26.4229751  28.1056142  19.1759908  26.9549274  26.8674636
  67.2163725  22.7746487  42.7803707  66.4464474  22.7953935  42.2120237
  67.6879549  23.5817480  42.5743675  61.3270378  69.5180893  13.1776214
  61.4827251  69.2880630  12.2616088  60.3756571  69.5982409  13.2460749
  10.9756541  75.5439568  28.7684107  11.8946409  75.5527115  29.0360260
  10.7593060  74.6152592  28.6850524  48.3867311  72.9933929  24.5960712
  48.6022329  73.1995058  25.5056381  48.4331465  72.0384598  24.5494103
   7.5938505  29.4019008   4.2611539   7.3359120  29.2779517   3.3477336
   8.4995049  29.0942430   4.2981482  15.3057861  53.2244539  51.4708185
  16.2443650  53.3700180  51.3520288  14.9600184  53.1528711  50.5811262
  81.3670158  11.4799225  10.6473756  81.5250683  10.9259057   9.8829687
  80.7166672  12.1167803  10.3512537  74.3400383  41.0103321  66.5578270
  74.7502613  41.5658140  67.2206926  74.4262362  40.1217890  66.9032145
  41.2686729  71.7551613  58.2823467  42.1674347  72.0322084  58.4603977
  40.8530235  71.7223024  59.1439676  22.7901483  62.6076365  48.4673834
  22.5471568  63.3282661  47.8861094  22.7503443  62.9849339  49.3461847
  45.8712769  73.3989668  17.9856038  46.1830616  72.9215527  18.7544358
  45.5720568  74.2400312  18.3310175  67.4664450  39.3288183  48.0637503
  67.0140123  39.0102434  47.2826958  67.2102308  38.7180567  48.7548065
  41.6087818  59.6017361  15.2090931  40.9724998  59.0295267  15.6379926
  42.4505854  59.3519592  15.5901527  20.0302434  67.0877552  47.0032549
  19.0993297  67.2947168  47.0857191  20.4614019  67.6701689  47.6286554
   4.7884956  29.3111062  42.6631880   5.5215949  28.8489723  43.0696726
   5.1825869  29.7925162  41.9357491  50.8914614   8.3548343  66.0484171
  50.1511621   8.5123926  65.4624462  50.5897522   8.6618292  66.9033766
  54.1301823  35.7763982  11.1246872  54.3764544  35.0028896  11.6318989
  53.3092165  36.0702920  11.5194964  54.2302132  72.4647999   8.0732518
  53.5690689  72.3535872   7.3900551  54.5810127  73.3432055   7.9263568
  53.8441181  32.9922509  11.3048446  52.9380989  33.2301760  11.5017116
  53.9114428  32.0725894  11.5616000  38.1500959  64.5939445  14.5990312
  37.9505920  64.8819351  13.7082493  37.4022484  64.0509987  14.8483586
   8.7199652  69.8021364  49.1450262   9.0273929  68.8991928  49.2250967
   9.2355388  70.2886200  49.7882557  16.3324201  52.2719383  64.9248219
  16.3591576  53.0128956  64.3194294  15.7632601  52.5646162  65.6366014
   5.3336829  12.8294897   1.6809946   5.4600430  13.0344784   2.6074094
   4.4724497  12.4134731   1.6430460  51.5188694  69.9192905  34.3157053
  51.9383955  70.1289606  33.4812784  51.7340231  68.9990044  34.4673896
  24.1241527   8.7558532  25.5329132  23.2987142   8.6924261  26.0133934
  24.7732711   8.9783269  26.2002826  77.9553413  76.3380909  20.6851864
  77.0755863  76.7147684  20.7045484  78.5358858  77.0910406  20.5744314
  46.1124611  47.2198534  58.5124779  45.3996325  47.2044420  59.1511202
  45.8173561  47.8325701  57.8388882  40.2210331  19.1809964   7.0847708
  41.0611773  19.5279980   6.7848021  39.6212459  19.9249494   7.0297903
  17.7671194   9.0868050  13.4685838  17.0005119   8.5836357  13.1940556
  18.1027102   9.4726264  12.6594162   7.5996774  38.1232882  63.5762691
   7.0975798  38.6588073  64.1905546   7.7982640  37.3232508  64.0628242
  72.0804501   2.1021110   4.3493748  72.0693779   1.1985864   4.0335387
  71.2232065   2.2236855   4.7575215  76.4846373  71.1186790  32.2267747
  75.5863953  70.7941198  32.1631002  76.4007664  71.9748211  32.6465583
  73.7323952  20.4262090  34.7292852  72.9024696  20.5559015  34.2703319
  74.3909311  20.4146361  34.0347147  78.8021708  49.2739487   0.5444194
  79.5841980  48.8192320   0.8573098  79.0005207  49.4927359  -0.3660866
  73.8430834  11.9546676   7.0438933  72.9734564  12.3532844   7.0109814
  73.9431381  11.5275633   6.1931264  58.8678694  15.8110797   7.4101937
  59.5567513  16.4209628   7.1461558  59.3384552  15.0611472   7.7740365
  59.4572258   8.2668298  24.9104691  60.2544212   8.7903184  24.8287868
  58.7543726   8.9116895  24.9903607  58.7514257  56.5161085  63.8888264
  59.3150043  56.6430616  63.1256104  59.2356157  55.9060669  64.4452810
  20.9892988  18.9981174  66.1996937  21.3978863  19.5258832  65.5135775
  20.2730536  18.5428035  65.7570744  36.5764022  31.0301566  18.5587931
  35.6296825  31.0551620  18.4197533  36.9129324  31.7669296  18.0487502
  70.6044245  59.9024916  63.8796091  70.9351063  60.5926275  64.4545794
  69.8298597  59.5660067  64.3302298  45.8331585   2.1260175  45.9300518
  46.7453098   2.3081370  46.1559916  45.4114580   2.9853040  45.9252024
   2.2382440  62.7866125  53.7421703   2.2643718  62.7234745  52.7874136
   1.6048485  62.1204042  54.0090227  35.3938890  38.1805897  18.2744551
  35.5293489  39.0080047  18.7362659  34.6003580  37.8151250  18.6655712
  57.0055246  42.0761967  55.6863832  56.6152048  42.7677727  55.1519680
  56.4293480  41.3222599  55.5605412  36.1831450  15.4461861  12.8330481
  35.6115794  14.7262001  12.5662804  37.0425916  15.2121866  12.4825823
  28.6399245   0.1846479  41.1559916  28.8820028   1.1106908  41.1473465
  28.2392883   0.0498231  42.0147943   7.9197550  30.7252502  21.4206243
   8.2115209  30.8786130  22.3192811   8.3891195  29.9369502  21.1476517
  42.4127245  54.0667295  57.9659414  42.4604177  53.1373692  57.7417707
  42.6299620  54.5209312  57.1518517  18.6361909  65.5977392  35.9781551
  19.4462848  65.2741098  35.5841470  18.0944061  65.8572578  35.2329373
  48.7026501  76.6557455  20.9729767  49.2234135  75.8562851  21.0497713
  47.8051090  76.3750029  21.1514044  44.9105740  23.5223746   0.6400812
  44.0640068  23.1154585   0.8244112  45.0487089  24.1282201   1.3681620
   9.6789896  41.3209486  19.9698532   9.0810037  41.5611458  19.2620754
   9.9819064  40.4425812  19.7397530   8.1384259   4.3697670  19.5919752
   8.0964631   3.5935816  19.0333986   7.6933926   5.0514835  19.0885472
  19.9957991  35.8502913  14.6996009  19.1213524  35.4609704  14.7016203
  19.8673165  36.7258525  14.3347466  47.8595829  46.1190319  56.2135315
  47.3550892  46.3100481  57.0042467  48.6839962  45.7560349  56.5372753
  19.9330842   8.1723088  33.0311418  19.6129942   7.6495564  32.2959518
  19.6124327   7.7144271  33.8081598  56.9418764  12.6243985  30.0182843
  56.1348963  12.4782479  30.5118942  56.9001579  13.5446072  29.7580767
  38.2863188  69.3021154  61.9301271  37.6302600  69.2677736  62.6262903
  38.7655735  68.4775686  62.0117760  76.8632889  10.9434950   5.6275904
  76.7288971  10.8062196   6.5653145  77.2180748  11.8302214   5.5637610
   4.7245893  19.2266047  14.7104919   4.6675125  20.1739168  14.8352778
   5.3172338  19.1182804  13.9666712  82.3272133  46.0228872  20.5956149
  81.7368793  46.1313772  19.8499882  81.9623947  45.2853203  21.0846186
  22.9687452  51.9276285   2.1142277  23.2179499  51.5679836   2.9655695
  23.1849647  52.8581238   2.1747273  43.6306095  13.9787734  26.7542720
  43.8845730  14.4182587  25.9427357  43.7647486  14.6376312  27.4355531
  30.0467491  33.7726498  52.7024031  29.7143531  34.5461631  52.2469711
  29.2613482  33.3179903  53.0068159  59.8469830  59.4353962  18.3901370
  60.2810669  60.1647854  17.9476523  60.4561901  59.1784000  19.0822744
  62.1333122   5.6258023  23.9419699  61.2832308   5.2131885  24.0947580
  62.6867247   5.3049272  24.6540093  11.9244838  60.4738188  57.0662785
  12.4855804  61.1163092  56.6319895  11.0893512  60.9263325  57.1846533
  16.1534822  62.3666239  51.8540144  15.7365632  63.0215073  52.4139595
  15.6109011  62.3451185  51.0657406  53.4396982   9.7267687  66.1205626
  53.7294722   9.8778522  65.2208757  52.7511597   9.0663981  66.0427237
  58.3043528  37.7697515  20.6466174  57.6897955  37.0505500  20.7925630
  59.0762949  37.5332403  21.1608124  49.9097395  64.4626617  13.7188256
  50.6323719  64.3667650  14.3391800  49.1217136  64.3410921  14.2484176
  54.5144367  16.3149464   2.6055005  54.1018534  15.4512334   2.6038048
  55.3623772  16.1745036   3.0268180  23.0970144  10.4408956  52.4835873
  23.7829328   9.9590892  52.0214081  23.5696459  11.0913050  53.0030298
  46.0349560  61.8985844  57.9743528  46.4541817  62.3191309  57.2236061
  45.7160664  62.6257181  58.5089731   6.5236032  27.4569798   8.4691149
   5.7254052  26.9287038   8.4629184   6.2369132  28.3273768   8.1926250
   5.9926260  62.7493382  21.1078572   6.0335225  62.5040770  20.1835155
   6.7823935  62.3685074  21.4918733  82.2907925  13.5309350   2.6018456
  81.9395065  12.7212799   2.2313228  81.7702484  14.2250061   2.1974528
  79.1520405  18.7056661  12.7555478  79.2313814  18.0968511  13.4899044
  80.0553513  18.9279366  12.5300300  14.6543574  26.7090750   3.8763914
  13.9414740  26.8003583   4.5086065  14.2916536  26.1557174   3.1846744
  23.3018064  77.0186424  54.7654390  22.3868179  77.1186781  54.5027208
  23.7228870  76.6026831  54.0131760  45.0301647  59.0702963   6.0006040
  44.9567413  59.6131802   5.2156717  45.0437975  58.1720495   5.6701511
  82.3088264  30.1132059  25.7349443  82.9630566  30.5274963  25.1722789
  82.8034019  29.4720030  26.2453270  48.4569120   9.9995214  24.3307376
  48.6089659   9.4842184  23.5385418  49.3314171  10.1519287  24.6888518
  66.3592052  35.4626560  45.8967018  65.7850075  35.3357983  46.6519737
  66.0160351  34.8655057  45.2319622  70.1037169  21.5990901  66.6120958
  70.6684685  22.0066094  67.2687674  69.8936462  22.3077250  66.0038710
  36.0721564  20.1608086   4.3110055  36.1299467  20.8305264   4.9924511
  35.1352692  20.0821757   4.1313070  29.6077061  73.6583948  55.0227404
  30.3524876  73.6397076  54.4217539  29.2113209  72.7910662  54.9399519
  43.1082726  71.3429689  45.1970577  43.2320976  71.0458136  44.2956161
  42.4175453  72.0030785  45.1389027  17.9129910  11.0305142  64.8918533
  18.8569927  11.0288668  64.7334528  17.6728141  11.9570696  64.8982096
  59.6552992  35.8145380  18.9355457  59.9261951  35.0691819  19.4715416
  59.6959496  36.5640426  19.5295358  37.2503281  10.7225406  17.5235856
  36.6081023  10.0260890  17.3867190  36.8267488  11.3214898  18.1384611
  14.9370563  57.3979044  55.0920773  15.1682508  56.5107918  55.3674078
  13.9801228  57.3999548  55.0695419  44.9381638  53.9345598  53.2517195
  45.8310556  53.6838722  53.0148029  44.4292593  53.7904692  52.4539185
  11.6990209  50.1566648  57.1164846  11.7163563  49.2358875  57.3774481
  12.5798631  50.3277826  56.7832184   5.5316442  29.6615124   6.4531994
   5.6343323  30.4227448   7.0243484   6.2406850  29.7432470   5.8153808
   8.8311630  23.9138460  44.2174911   9.3925679  24.1561508  43.4810495
   7.9900366  24.3276024  44.0237236  10.2818143  69.6670151  56.1290741
  10.5058324  69.7950125  55.2073002  10.1751506  70.5531549  56.4749193
  35.3041697  36.4017248   6.6143972  34.4639778  36.2756777   6.1734658
  35.9580374  36.2463117   5.9328294  44.8672676  20.2341676  45.8409357
  44.9972200  21.1723518  45.7025337  44.9810028  19.8460639  44.9733686
  82.2456264  37.5244951   8.1891394  82.3097038  36.7976952   7.5695544
  82.1879578  37.1036172   9.0469086  42.5303650  59.2539835  58.3952141
  43.0323267  59.9893570  58.0437994  42.2902203  58.7382746  57.6254034
  30.6836176  16.2098777  28.3374929  30.7120109  16.6113412  29.2059708
  30.4870439  15.2883458  28.5059261  13.6751342   0.9658303  28.9493942
  12.9297805   0.7519703  28.3881927  13.3227003   1.5826152  29.5909524
  80.0284576  33.7702346  20.2864981  80.3932190  34.0275049  21.1332512
  80.6775951  33.1708908  19.9182093  49.7171211  18.2622993  29.5696139
  49.1718674  18.8990974  30.0315857  49.9763060  17.6347363  30.2443147
   5.3839976  19.0263903  31.1547589   4.6700317  19.2825532  31.7385960
   4.9512398  18.8039732  30.3304505  54.1705084  34.4565463  21.4854240
  54.7845316  35.0567007  21.9085336  54.6230459  34.1711068  20.6917238
  67.0542049  19.2221475  13.0775857  67.9832935  19.4012022  13.2223892
  66.6788769  19.1780603  13.9570272   8.5940665  45.3193283   9.1137350
   9.4481289  45.3862715   9.5407331   8.2968569  46.2252855   9.0292525
  50.3167486   7.0581436   3.8990423  49.7373056   7.7062875   4.2995283
  51.1993361   7.3790592   4.0841892  19.6838319  13.5155892  12.9476845
  20.3362989  13.1552148  12.3471439  18.8650668  13.0881548  12.6963770
  41.3934612  58.6837482  60.9530163  40.5389166  58.9836359  60.6430960
  42.0021534  58.9363289  60.2588034  27.3377991  37.9217434  58.1201982
  26.5750599  37.5172496  58.5335350  27.0864058  38.8371491  57.9974651
  28.9473510  76.1836958  20.6433225  29.2890120  76.3024473  21.5295482
  28.6540794  75.2728367  20.6197429  78.9108992  70.8534431  11.0559177
  79.3811607  70.1536274  11.5090656  79.0555429  71.6291237  11.5977955
  21.4449930  30.7071376   4.1160956  21.1223865  31.2326765   4.8481929
  22.2698522  31.1240864   3.8671139  16.1312401  77.2979784  22.8890944
  15.5659115  78.0668354  22.8149581  15.5250776  76.5631485  22.9830146
  81.8693733  21.4846230  17.3022962  82.6002216  22.0983815  17.2288799
  81.5432739  21.6060615  18.1940055  52.8355932  32.6766682  63.5982943
  52.0442486  32.1416283  63.6594725  53.5052872  32.0770502  63.2693529
  82.3887429  56.1668968  62.7535152  82.6774093  56.1542177  63.6660624
  81.8603249  55.3744555  62.6584244  26.9494748  58.9571857  51.4520025
  26.7217016  58.0717802  51.1684465  27.7830434  58.8546181  51.9112158
  21.1762214   3.2424173   7.2851497  21.9915652   3.6363125   6.9748414
  20.5722761   3.9798093   7.3731059  44.6727705  54.9350119  66.5410995
  44.7064209  55.8103514  66.9269514  45.3004742  54.9671984  65.8191681
  48.2429218  13.3048749   0.4113849  47.7622366  13.5627556  -0.3751709
  47.8769398  13.8523805   1.1060265   4.9578345  29.4802642  38.3522367
   5.1037991  30.3612232  38.6969638   5.8363336  29.1134763  38.2525444
  78.2194233  66.4705133  32.2862411  79.1474295  66.6125059  32.0994949
  78.1843853  65.5966663  32.6753378  19.2805958  48.3782578  57.8998947
  19.7435057  47.7602100  58.4655476  18.5211599  48.6514187  58.4145498
   0.6028452  68.4727335  62.1596050   0.0714287  69.2669725  62.1047544
   0.3663665  67.9719400  61.3788891  23.5773492  20.0599456   6.3377011
  23.8564372  20.7808948   6.9021249  24.1258097  19.3217576   6.6032237
  17.1595061  60.8885050  56.5030861  16.5000224  60.7824707  55.8174706
  17.1985841  60.0337124  56.9320822  77.7475834   6.5308225  53.7775326
  77.1845579   5.8147258  54.0715313  78.2325411   6.1658084  53.0373907
  10.5546129  27.9675627   3.0034709  11.1954653  28.3690071   2.4166296
  10.7036638  28.3929443   3.8479030  23.5436654  73.0736685  28.6497831
  24.1154671  73.1516266  27.8861094  23.6123419  72.1543980  28.9075756
  81.9369030  68.5102081  58.5603189  81.3710022  69.1321993  59.0176105
  82.4410057  69.0487337  57.9503155  25.8652544  16.6014338  19.7981858
  26.4318347  16.6680920  20.5668044  25.8720827  15.6704950  19.5756125
  16.5000999  45.2406359   7.4411803  16.6487181  46.1098385   7.0688564
  15.8030474  45.3714180   8.0840224  33.7512589  15.8433890  34.7726798
  32.8289700  15.9410417  35.0094891  34.0562320  16.7383194  34.6232748
  44.3574572  71.1465883  16.6904271  44.5926619  72.0177984  17.0096457
  43.8186789  70.7732964  17.3879981   5.9141850  12.2563052   8.3370990
   5.9518933  12.0839155   9.2778921   6.0002178  13.2068348   8.2641363
  61.6431999   5.4157919  41.1521101  60.7632875   5.7726240  41.0310555
  61.8417358   4.9814445  40.3225565  12.2201812  18.4584427   8.8341874
  12.3847115  18.3240891   7.9008543  12.2130406  17.5762498   9.2055571
  54.2331857  28.3144939  -0.3227896  54.1116521  27.5192773   0.1959568
  54.8521970  28.8393009   0.1847845  10.3795934  21.8896532  58.9311934
  11.0286570  21.3006330  58.5464764  10.3356147  22.6275802  58.3231115
  20.2710485   3.7988320  14.9106061  20.1897383   4.3939507  14.1653180
  20.0371885   4.3326113  15.6699610  18.1416678  40.2735615  16.4947367
  17.8900456  40.8322716  15.7593739  19.0321171  39.9905562  16.2867939
  69.8612070  22.4008846   4.2233524  69.1287565  21.8065405   4.0605718
  69.4635057  23.2713318   4.2430955  42.5960302  32.0480084  13.1476033
  41.7352057  32.4364424  13.3035970  42.4409580  31.1038041  13.1733072
  71.0889053  11.3235724  57.4868250  70.5720949  10.6181443  57.8760672
  70.9320974  12.0773017  58.0556250   6.5443689  24.6756601  11.4496553
   6.6993034  23.9028287  11.9927573   6.1804837  24.3273640  10.6357086
  63.9412546  25.1502132   1.9390763  64.5874214  24.6299458   1.4615637
  64.2307758  25.1137400   2.8507113  72.7009249  59.1488791  46.7061186
  72.9449368  58.2233858  46.6938639  72.1965551  59.2742634  45.9022999
  48.9938736  59.1878033  61.3559198  48.7230206  59.2420387  60.4394436
  49.9413347  59.3222380  61.3340187   3.0517644  27.3742414   3.7022609
   2.1680975  27.3304653   4.0675667   3.6290175  27.2645807   4.4578964
  81.4640808  73.2772779  19.8006487  81.5061283  72.3352623  19.9651790
  81.5439320  73.6755943  20.6673670  60.8239269   4.7484630  45.7579279
  60.8281469   4.3496558  44.8877716  60.3574085   4.1188911  46.3076782
  77.5604725  31.2943363  54.3383408  77.5307465  32.1920586  54.0075207
  78.0991936  31.3476992  55.1277494   7.8670782   7.4140704   9.4594336
   7.9405689   7.0390749  10.3370488   6.9618034   7.7202213   9.4048238
  47.5013494  70.1209831  57.5124502  47.2618818  69.3121195  57.9648113
  48.3632040  70.3454447  57.8632402  19.7951114   4.9896270  12.3201466
  20.0572658   5.8900046  12.5120473  20.3599882   4.7252932  11.5940106
  73.2735109  67.5072956  31.7695093  72.8677082  66.9931746  32.4675345
  73.9390230  66.9267321  31.4003587  79.3848705  13.8974023  53.6340427
  79.7673321  13.2405329  53.0522537  78.4652185  13.6432004  53.7105417
  79.6946192  44.6144581  61.0630178  79.0095377  44.9821568  60.5047226
  80.2459526  45.3632116  61.2902594  40.1748896  77.9237747  23.4128523
  40.5850840  77.0590639  23.4286189  40.6738806  78.4371948  24.0481782
  24.8540401   5.2711177  63.1454086  25.4665613   5.3805703  63.8727808
  24.1886854   5.9440547  63.2892561  15.7964563  13.1920314  52.1617222
  15.5501854  14.1133606  52.2437811  15.8354259  13.0376768  51.2178516
  36.5663171  14.3736029  55.6743860  36.7331171  15.0242305  56.3563633
  37.1628046  14.6121156  54.9647760  54.5294380   8.2108033  21.1675119
  54.5936203   8.3886451  22.1058536  54.2470646   9.0415949  20.7850432
  47.7590322  55.6285381  61.9426298  48.2447910  54.8120642  61.8258286
  48.3386183  56.3044262  61.5912151  77.7203512  28.1497622  64.5062304
  77.3191071  28.9250135  64.8989344  76.9948912  27.5355124  64.3938065
   1.6774723   9.9345767  42.7551746   0.8486092   9.9033093  43.2329226
   2.1847469  10.6136799  43.1998396  34.1731930  32.7146626  28.7619710
  33.5459161  33.4251165  28.6277652  33.6946225  32.0672202  29.2796779
  81.6918503  23.1717277  19.6790648  82.1989479  22.8481722  20.4236412
  81.1523111  23.8733745  20.0435138  22.0173383  71.8949127  36.9854856
  21.7646718  71.0297012  36.6632986  22.3611927  72.3464918  36.2147260
  58.6368227   9.6920508  20.2747059  59.5802927   9.8438686  20.2194571
  58.5478973   8.9540106  20.8777165  55.4494572  48.4529305  17.1735525
  55.6570530  48.9399576  17.9710138  54.8330259  47.7783585  17.4585044
  46.2399960   0.6249620  13.2261038  45.5987215   0.8612831  13.8962889
  45.9390306   1.0756669  12.4371064  68.1334400   1.3570325  44.1987276
  68.3145142   1.3574038  43.2588100  68.4445715   0.5042116  44.5022488
  29.0561318  72.8861856  49.3097305  28.3380699  72.7807999  48.6856222
  28.6413360  73.2467270  50.0934315  33.0073667   3.1124207  14.3942058
  33.6623836   2.6716512  14.9354160  33.4377074   3.9170599  14.1050768
  52.4298096  17.0562088  66.1133575  51.6439247  16.7005920  66.5282679
  53.1302118  16.8887949  66.7439461   1.3103947  30.2113175  65.1579189
   0.8784659  30.6406331  65.8964014   0.7104066  29.5099497  64.9042845
  32.8973937  37.8193641  14.7618699  32.1701527  38.2236934  14.2887223
  33.5512018  38.5145831  14.8355961  21.6863728  27.0679832  13.4125674
  21.0376644  27.3960638  12.7898550  22.2346568  26.4759707  12.8976536
   4.3607527  53.4091139  63.9251471   3.8159245  53.1226969  63.1921005
   3.8492459  53.1895542  64.7038555  80.4938316  33.0104494  59.1498947
  80.9113216  32.1866131  58.8984442  80.8037567  33.6434698  58.5022354
  34.4466114  58.5728264   5.2095294  35.3850174  58.4312534   5.3343594
  34.3857908  59.0696859   4.3936467   2.6703060  44.2377520  15.2935123
   3.2092845  44.4072294  14.5208478   1.9547281  44.8703051  15.2298164
  22.9441166  50.6597471  25.1665783  22.8964710  49.9164724  25.7678270
  23.4767342  50.3436804  24.4367480  17.0824933  64.1434860  22.0190573
  16.5927112  64.8150539  21.5443563  17.9676914  64.1925907  21.6581631
  40.0309181  27.5931954  13.2497621  40.9176636  27.8083372  13.5389531
  40.1389265  27.2974920  12.3458111  62.3251104  47.2265530   3.9401293
  61.4590549  47.4313307   4.2926142  62.9167700  47.3252630   4.6860728
  26.5354729  51.1585665  16.2771666  25.7892084  51.4908361  16.7760813
  26.3374257  50.2324486  16.1381972  73.4640360  42.1430540  47.4899292
  73.9525843  41.3831902  47.8064060  74.0132809  42.8930044  47.7182627
  24.4437981  37.9942322  50.7637167  25.3559709  37.7309394  50.8855772
  24.3025255  37.9381347  49.8186636   1.2160777   5.8668274  65.5017328
   1.4900933   5.8993059  66.4182949   0.9874360   4.9493998  65.3524637
   2.6327971  39.4436598  52.4188948   2.9815117  39.4446564  51.5274715
   2.1779960  38.6050606  52.4972296   5.4784620   0.8738245  36.4824295
   6.2711996   0.7488810  35.9607148   5.6211227   1.7022507  36.9402409
   6.7285162  37.1938777  42.0200729   5.8439457  37.5577116  41.9827700
   7.0214891  37.1826243  41.1088800  68.3035564  35.4709673  62.7954435
  68.5036564  36.0748935  62.0802784  68.3923912  36.0003877  63.5879421
  67.1836853  32.7830696  19.6579361  67.7799845  33.3488297  19.1674519
  67.7302599  32.0523548  19.9469781   2.7169204  22.0369768  63.0577469
   3.4604838  22.4270391  63.5173082   2.2508559  22.7828097  62.6799250
  73.2718945  25.1958919  10.4406941  73.3729553  24.6707654   9.6468049
  73.3371258  26.1018109  10.1385510  50.5016470  67.4087715  16.4649117
  50.9226608  68.2637167  16.3751650  49.8549557  67.5320148  17.1597719
  46.0962248  76.1491537  11.2825322  46.4996624  76.4691687  12.0894134
  46.5175772  75.3046846  11.1226463  49.7630262  61.6124249   7.9990584
  49.1598701  62.2143316   8.4351170  49.2295647  60.8440256   7.7960646
  59.3004036  44.2777729  55.7499027  59.1812849  43.7672949  56.5508080
  59.4045496  43.6215496  55.0608778  -0.1838479  17.0708334  60.1684332
  -0.5040281  16.1919975  60.3718185   0.6977452  16.9305670  59.8229599
  27.3299384  26.3325000  65.2843571  26.9182277  27.0218444  64.7632694
  28.1087899  26.7462993  65.6563711   7.9439086  17.8905010  64.8358965
   7.4959630  17.0521617  64.9488735   7.7913105  18.3563077  65.6580687
  45.7968092  38.9393973  16.0185230  45.4639435  38.0694032  15.7981980
  45.2858448  39.2047596  16.7831993  68.7776279   7.7981961   4.8611569
  68.0743361   7.4507999   4.3125877  69.3967628   8.1836587   4.2412186
  10.3323066  36.7710567   9.7433788  10.8702886  35.9839654   9.6579707
  10.1746130  37.0523429   8.8421333  65.0990725  10.6916189  13.6006474
  64.6349144  11.2970746  14.1787553  64.6768570  10.8026421  12.7488029
  64.5736122  68.4091568  12.9188442  64.1837788  69.2280865  13.2248080
  63.8250637  67.8419256  12.7340317  22.4221659  32.6614785  40.8078194
  22.2989583  33.6101675  40.8400631  23.3699155  32.5451779  40.7409239
  66.9799948  26.4144993  56.1595011  66.9873857  27.0716619  56.8554258
  67.8734541  26.0713577  56.1446095  41.7543221  46.8608761   7.1140349
  42.4125338  47.3191309   6.5915525  41.9882059  45.9359550   7.0362449
  63.1639385  33.1905842  10.2015042  62.3835039  32.7782702   9.8311698
  62.8333521  33.9678097  10.6519091  19.8052442  10.7414985   8.2996690
  20.2390885  11.0954618   7.5233185  19.2590690  11.4604414   8.6175472
   9.7030890  37.4006248  46.2812233   8.7679249  37.2093177  46.3526535
  10.0508177  37.2257328  47.1557093  69.2640162  35.9984541  25.8770561
  70.0525713  35.4614019  25.7996750  68.6658907  35.6417251  25.2203822
  65.3746033  20.3415418  65.8179855  65.9534836  21.0542321  66.0885429
  65.4284000  20.3389645  64.8623037  59.0273237  22.1006703  18.4999907
  59.6145916  21.9361067  19.2377365  59.5336819  22.6599813  17.9109192
  65.4497814   9.1383678  58.6505461  64.5476294   8.9026511  58.4342384
  65.7185555   8.4874141  59.2988157  27.7269268  33.8518524   5.7751244
  26.9295335  33.4507513   5.4294235  27.4718785  34.1909719   6.6331339
  67.5574732   2.9524553  10.8888459  67.4025154   2.9465505  11.8334019
  68.5085297   2.8881457  10.8017504  18.8514981  16.5574442  67.1167516
  17.9942021  16.9529187  66.9590214  19.0674195  16.8044411  68.0159744
  34.7663856  20.6720090  65.7225895  35.4347682  19.9934626  65.6273460
  35.1770020  21.3367295  66.2755537  35.8019185  30.6738997  49.9841881
  35.7952285  30.3467679  50.8837271  35.2131748  31.4284730  49.9993563
  58.1828165  16.6775990  53.0991697  57.4962378  16.9746351  53.6963463
  57.9623175  17.0825374  52.2603416  43.5508776  11.2631369  29.4189215
  43.5142231  10.4415572  29.9087143  43.3616257  11.0117066  28.5149312
  75.2316618  37.8661561   8.1512690  75.4890060  38.6653018   7.6915157
  75.3084707  38.0883551   9.0791488  51.3731861  75.7710457   9.9874127
  50.6398582  75.9445715   9.3972015  51.9821024  76.4929533   9.8315293
  66.4291620  47.3212814  35.3067422  66.5891790  48.0628586  34.7230530
  66.9335604  47.5235128  36.0947275  72.0584202  20.8815622   3.4532970
  71.1475706  21.1325264   3.2996809  72.1991062  21.0490584   4.3851680
  61.7172337  38.3901834  14.1889238  62.4909306  38.4691453  13.6309040
  62.0677090  38.1959939  15.0582278  19.6238792  17.8602314  63.9796352
  20.0112963  17.1259844  64.4561052  19.9428749  17.7588534  63.0828667
  17.9768276  53.3598518  44.3982363  17.3218942  54.0386915  44.5609236
  17.7749634  52.6746655  45.0354242  69.6258211   5.1615793  15.9716368
  69.2864990   6.0566014  15.9661281  68.9766979   4.6623862  16.4672983
  30.8782911  27.1423984  64.3783331  31.8301511  27.0572495  64.3240690
  30.5432153  26.3274789  64.0043545  43.6493683  37.7368307  18.9895999
  43.9445686  36.8965507  19.3403363  42.7086544  37.7527165  19.1657722
   8.7913030  77.8239632   1.2414048   9.4868743  77.5445461   0.6461416
   8.0402780  77.2799110   1.0043478  10.8965790  51.1411190  19.0103424
  11.1091733  51.2110567  18.0796731   9.9795431  50.8672380  19.0266204
   8.9797592  31.3675117  55.3623009   9.1722643  30.8185005  54.6021938
   9.4942200  30.9829283  56.0719872  62.8233147  70.5809593  62.4329996
  62.5345421  71.4098930  62.0512819  62.9673910  70.0078297  61.6800022
  79.1100645  42.2974873  59.2273283  78.9175653  42.9424906  59.9078751
  78.4494495  42.4562883  58.5530853  43.9347935  36.3486242  46.8692827
  44.2447948  35.7473326  46.1920977  43.4131002  35.8006263  47.4555969
   6.4637220  14.8822379  51.4688492   6.6725767  15.4778361  52.1884823
   6.0317361  14.1393685  51.8904686   4.1701797  77.1915483  49.1339779
   4.6415496  77.4983978  48.3594561   4.0040979  76.2647390  48.9617205
  63.7829542   3.4898326  55.5710793  64.0817881   2.9282704  54.8558331
  62.9890251   3.9049143  55.2340174  67.9490614  36.1413550  65.3339911
  68.0235815  35.2128959  65.5545473  68.7019968  36.5501189  65.7608747
  46.9218111  67.8854227  19.3565619  47.6071167  67.2955370  19.0425229
  46.9620895  68.6362267  18.7641919  16.6520238   5.1861268  56.5327263
  15.9990513   5.8068556  56.8560791  16.3989758   4.3484771  56.9207239
  81.8874073  10.8058619  55.0775290  82.1146584  10.5469060  54.1844845
  80.9532642  11.0107446  55.0371265  78.6825657  77.1878910  65.4043627
  77.7812958  76.8878984  65.2862787  78.7077761  78.0443430  64.9776506
  34.6840811  35.4026937  67.0931292  34.8549724  36.3392997  66.9941521
  33.8991213  35.2456784  66.5683270  68.7047195  27.8696847  23.7436342
  69.2399120  27.6108241  22.9934406  68.0518436  27.1742582  23.8234329
  56.8775606  10.8207083  12.5510216  56.4396667  11.0902750  11.7436707
  56.4003325  11.2748516  13.2454586  16.5925753  33.6816072   8.9880699
  15.6826937  33.4322286   8.8263392  16.6110969  33.9348173   9.9109852
  19.7616875   6.2990034  49.1747713  19.9503899   7.1300852  49.6105766
  19.7661519   5.6521541  49.8803186  32.5893664  68.3960629   9.7357261
  32.3105955  68.8276243   8.9280927  33.0342436  67.6012945   9.4413477
  45.9779072  44.5584249   1.3550556  45.6651402  44.7704458   2.2345191
  45.1806831  44.4073296   0.8472791  36.6976047  35.3605223  20.4515409
  36.3453150  35.2017426  21.3272762  37.2346807  36.1469078  20.5483818
  19.9443126   3.5608909  64.2499495  20.1565385   2.9776174  64.9786329
  19.6150184   4.3564892  64.6680641  55.6382227  45.9068918  50.0764275
  56.4995718  46.2846756  49.8986959  55.6109047  45.8101511  51.0283327
  74.4182587  75.2022696  58.5571241  74.0715361  75.5424833  57.7323389
  75.2420044  75.6732416  58.6830759  11.6867912  53.2105398  20.4227638
  11.4176989  52.5334740  19.8019552  11.1182988  53.0793095  21.1815953
  17.3044288  41.4573908  13.9258361  16.4077270  41.7594147  13.7811351
  17.4368882  40.7758713  13.2668853  77.7091742  23.7709188  53.1488419
  77.6559162  24.2566323  52.3257494  77.3391438  24.3649483  53.8018656
  16.5295601  12.5336599  49.4032574  17.2477317  11.9378638  49.1899776
  16.8773329  13.4052384  49.2144775  38.7907887  52.5523424  20.7021308
  38.7852716  52.0363474  21.5083265  38.7011099  51.9049501  20.0027895
  24.8534536  60.4304981  63.0875731  24.2399836  60.1171684  63.7521839
  24.4124413  60.2602196  62.2552633  73.1995930   2.7774369  67.0400392
  74.0698852   3.0701910  67.3104402  73.2976223   1.8362843  66.8956309
  72.6683807  18.3564675  64.0789509  72.3729849  19.1597581  64.5075464
  71.8630695  17.9351985  63.7785578  57.4172497  63.8924646   3.8072747
  57.8221560  63.9318514   2.9408276  58.1470966  63.7329292   4.4056925
   4.1024360   7.4143636  43.5720825   4.9859202   7.0559061  43.4872580
   3.5792354   6.6854894  43.9056063  18.2276332  28.6860728  48.5723305
  17.9289186  28.8440943  49.4678926  17.8239131  29.3853569  48.0582857
  62.6171255  29.1937470  11.9299531  61.7886209  29.6629763  11.8317807
  63.2265472  29.8513460  12.2652078  66.0731936  15.7238340  38.0732346
  65.9676743  14.8855186  38.5230398  65.4850960  16.3200605  38.5367942
  17.3832071  12.9718089  39.7621870  17.5302434  13.6393452  40.4322672
  17.2997582  12.1541917  40.2528715  67.4274206  14.7747207  11.0394847
  66.6696501  14.7363913  10.4559183  67.4550152  13.9119756  11.4531767
  61.0029507  40.4320145   0.0718587  61.6763830  40.2846575   0.7359405
  60.3375864  40.9561968   0.5176788  66.2462711   0.4344890  13.1096387
  65.6833315   0.3248560  13.8760030  66.3781548   1.3801901  13.0426502
  12.5940120  42.6378965  53.2565641  11.9088078  42.3433971  52.6565647
  13.3543575  42.7904510  52.6954603   5.0989872  14.9127936   8.3018512
   4.5369464  14.6349692   7.5785565   5.4419500  15.7627499   8.0258399
   3.6106682  17.1304297  20.2728534   3.4880936  18.0768347  20.3471875
   2.7224362  16.7769146  20.2248693  50.8421516  50.2158546  60.4476929
  49.9850750  49.9134541  60.7480431  51.3740587  50.2558470  61.2424898
  48.5050201  74.0744925  16.3443005  48.9008665  74.9262905  16.5286314
  47.9714251  73.8862419  17.1163571  51.3891506  70.2501488  46.0491896
  51.6019773  70.3192949  45.1185179  52.0685101  69.6795273  46.4084911
  62.6893950  49.0734053  64.0603876  62.1446753  49.8317432  63.8495970
  62.5162125  48.4504890  63.3545446  25.7450986   1.7712572  55.8745432
  26.2579298   1.0845306  55.4483461  25.5790448   1.4346242  56.7550755
  69.9859715   1.9098102   0.4168974  70.3870583   2.5636223   0.9895168
  70.4598045   1.9932248  -0.4106046  21.4721465  58.9485359  21.8197227
  22.0969176  59.2310143  21.1518145  21.1212659  59.7632742  22.1793318
  77.7997160  20.6214571  14.6660280  77.7713156  21.2643027  13.9573860
  78.7284994  20.5478024  14.8855054  67.2183990   8.0345666  11.4926672
  67.6847744   7.5891596  10.7853198  67.5255060   8.9401138  11.4490533
   7.7965713  47.5191784  61.9277954   7.8253728  48.2499743  62.5453234
   7.4358732  47.8973389  61.1258459  19.4550478  31.6547775  60.5937815
  19.3477905  32.5144458  60.1867199  19.7019291  31.0769749  59.8716831
  59.1987276   5.6108683   9.5240533  58.7367725   5.2617311   8.7618637
  59.8199749   4.9231064   9.7633576  18.0932188  44.9297953  57.9803514
  18.7638414  44.3718863  58.3743525  17.6664770  45.3536367  58.7249899
  70.4233074   3.9964965   9.6811926  71.2330580   3.7485915  10.1273727
  70.7147789   4.4231841   8.8754547  33.5832763  54.1252184  18.4202278
  32.9311037  54.8176193  18.5273695  34.4050789  54.5917416  18.2678282
  18.1875956  17.8336203   4.2996496  18.1313610  18.7891257   4.3084404
  18.9492929  17.6335061   4.8437110  35.8601022  17.4169302  50.8505726
  35.2202415  17.5006700  51.5575361  35.7968187  16.5017200  50.5774117
  77.9403067   1.9475846  51.3519001  77.4510145   2.5456718  51.9168043
  78.5180330   1.4726362  51.9493008   6.8961918  50.6865692  12.4827063
   7.2202635  50.5066872  13.3652329   6.6389561  51.6082811  12.5052536
  46.8591690  14.2703772   2.4335057  46.1119127  13.7678242   2.7579790
  46.5523434  15.1770246   2.4245672  56.6857100  18.4491408  27.2487497
  57.5117064  18.9276576  27.3193240  56.8180656  17.8499079  26.5141511
  42.9601192  51.8434334  11.8802202  43.6149645  52.2644281  12.4371529
  42.1222973  52.0628786  12.2878075  81.9531631  14.7529459  62.0703650
  81.8112469  14.2084837  61.2959909  81.1083698  14.7541189  62.5204229
  20.6645536  18.0666494  60.9038162  20.6489301  17.1303213  60.7056284
  20.9282565  18.4810007  60.0822306  67.8735590   5.8126396  22.9852295
  68.0147552   5.0950414  23.6027646  68.4596634   5.6180799  22.2538853
   1.4736348  32.6158571  62.8582096   2.3261656  32.4599266  62.4518728
   1.3633032  31.8881607  63.4701872  23.4019566  54.8172092   1.2437332
  23.4368277  54.6838474   0.2965108  23.8029671  55.6756639   1.3796663
  79.7219181  20.4070807  63.9887333  79.2505312  20.7695723  64.7388172
  80.0069141  21.1738348  63.4916449   8.3433664  41.3059092  62.3493814
   7.4485153  40.9741354  62.4228716   8.2433617  42.1866083  61.9879913
  24.5270610  54.9095201  38.7130141  25.3129625  54.5430517  38.3076859
  24.3718791  54.3558979  39.4782925  65.4329491  14.9898314  50.5520344
  65.7651663  15.8659029  50.7478952  65.3166866  14.9846387  49.6019363
  31.5989900  26.7349076  54.6731234  31.1442780  27.3826051  54.1346455
  30.9572172  26.4821649  55.3368139  62.1315289  61.3215017  13.2537305
  62.4578476  60.5784273  12.7462018  62.8115320  61.4817381  13.9080608
  57.9789209  43.4893417  10.8558106  58.1732702  43.0875587  11.7025876
  57.5073338  42.8115034  10.3716815  14.3260026  37.6291323  45.1103306
  15.1241684  38.1269455  45.2873802  14.6270418  36.7283773  44.9909735
  33.8206434  62.6758909  10.6586146  33.2072496  62.8631401   9.9480402
  34.0693712  63.5373831  10.9935677  35.6211090  51.6875935  19.6749890
  35.2897358  51.0356760  20.2925897  35.5944872  51.2477732  18.8252366
  28.8770223  30.7327509  58.4261227  28.1230903  31.1840343  58.0464363
  28.6775494  30.6777787  59.3606949  36.9608808  64.1478157   5.6875449
  37.2433043  63.9077234   4.8050344  37.4701190  64.9307060   5.8973044
  16.2707126  57.5523996  45.6428623  16.0520470  58.4795189  45.7370329
  15.9163952  57.1414566  46.4314175  33.9668417  22.6680231  43.6080170
  34.4685817  23.4730196  43.7363529  34.0277267  22.2115016  44.4471312
  44.6018553  68.4088087  47.2551489  44.1233683  68.9724064  47.8631258
  45.1789951  67.8887749  47.8143501  57.8393173  30.5162859  47.0877504
  58.6993170  30.9364629  47.0784473  57.5328970  30.5777860  46.1830091
  12.7947783   9.7876287  62.3081303  12.2888851  10.0320017  63.0831003
  12.1346462   9.5860630  61.6449308  56.9264603  49.9504948   1.6734685
  57.1544981  50.7435656   2.1585138  57.3836899  50.0412560   0.8374462
  36.7037010  26.0814953  63.3912706  36.2441587  26.7715049  62.9127979
  37.2770834  25.6788588  62.7390862  52.7878761   3.4010369   4.4714892
  53.3345270   3.8547400   5.1130164  52.9665565   3.8493109   3.6448359
  42.9466581  14.4773829  61.9493914  42.0156717  14.2567861  61.9783211
  43.2591343  14.0906394  61.1314535  59.2665577  41.9991398   1.3086271
  59.2897320  42.9265928   1.5442610  59.3025351  41.5381193   2.1467178
  41.7841959  60.7374001  25.5271959  42.2594500  59.9358940  25.7461810
  42.3045349  61.1423922  24.8333216  31.4309478  21.8155909  42.7520275
  31.3908362  21.2700510  41.9665289  32.3669195  21.9303775  42.9163790
   9.9637032  56.1257315  37.0414877  10.2779746  55.3701115  36.5450001
  10.4989982  56.8559122  36.7307997  36.4625335  22.7331948  29.2471051
  36.1484671  22.7246499  28.3429360  35.6820965  22.5594902  29.7733927
  76.9519901  76.6058493  56.8640709  77.3121166  76.0260439  56.1929798
  77.0100641  77.4810123  56.4807415  11.8402112  18.4727538  48.9015102
  11.3974833  18.5052228  49.7495461  11.3486922  19.0825236  48.3512163
  14.3658054  12.9705572  55.4874086  15.3049195  12.8475070  55.3490019
  14.1125095  13.6286354  54.8401022  47.0001411  12.4410295   8.9485204
  47.6012993  11.7560875   8.6557859  46.2572622  12.3804128   8.3479452
  69.3839216  67.9829836  59.9105930  68.5035515  67.7103662  60.1691580
  69.7059917  68.4904432  60.6555700  66.4902592  19.8186302  56.8912888
  66.7591810  20.4098940  56.1882067  65.5548859  19.9886739  57.0025969
   7.5994331  24.3602920  63.9827156   8.2096213  25.0564265  63.7391996
   7.7789730  23.6557817  63.3600903  56.3011646   8.5122383  28.4602094
  56.4423561   9.4354010  28.2502866  57.0230770   8.0553311  28.0285692
  56.7776299   0.5943532  46.5292931  56.5678406   0.0325126  47.2753191
  57.6624441   0.9117465  46.7098331  22.7321362  49.9599695  28.4154582
  21.9689417  50.4095125  28.0525851  22.8271604  50.3223372  29.2963052
  29.6929336  17.7518678  38.0387688  30.1604080  17.0094597  37.6559758
  30.3544617  18.4398866  38.1111741  13.6202443  65.6967068  22.3539615
  14.3439448  66.1283875  22.8079915  14.0126538  65.3509378  21.5522814
  24.3243361  59.2792082  21.2465525  24.5407081  58.4101009  20.9088135
  25.1728845  59.6876049  21.4180517  27.3565340   5.3759074  42.1544266
  27.6849842   6.1728692  41.7382479  26.6926718   5.0457007  41.5490437
  42.6497269  68.2254314  57.4483061  41.8073797  68.6788082  57.4819136
  43.2141066  68.8061714  56.9379568  48.4163427  71.3867140  11.7966175
  48.7013245  70.7165718  12.4178469  49.1772079  71.9586277  11.6954803
  19.2629719   3.0859107  59.3763542  19.3569672   2.7375945  58.4897470
  18.5898662   2.5373140  59.7791004  68.8682890  29.1290522  11.1117947
  69.7699165  29.3709922  11.3233662  68.4404755  29.9592304  10.9020054
  17.8946292  76.8608904   6.1729658  18.6213613  77.4836159   6.1554301
  18.2754934  76.0582924   6.5293437  16.9695640  35.4168081  48.1816387
  16.5874553  34.5408106  48.2350779  17.4958134  35.4002070  47.3822498
  59.3098116  64.0999174  17.9368055  59.3614054  63.7248373  18.8159454
  59.7858524  63.4804153  17.3837852  72.8803111  77.1737306  25.3419304
  73.7562467  77.5031919  25.1408744  72.5119509  77.8229195  25.9411764
  61.3505936  20.8758426  19.9110472  60.8340883  20.5243111  20.6362247
  62.0945835  20.2783871  19.8351908  24.1642952   9.1100132  43.9796305
  23.6627340   9.0245432  43.1688499  25.0271940   8.7550414  43.7660122
  36.2791491  34.2899799  27.7942944  35.7920814  35.0573397  27.4940348
  35.6047106  33.6390305  27.9882741  13.2731533  38.7283158  38.2731342
  13.2741487  37.7994990  38.5044980  13.4693086  38.7420082  37.3363495
  55.5497599   0.4775230  52.3177624  56.3084793   0.8790110  51.8942308
  55.8425188   0.2951659  53.2106590  80.8294201  17.8072977   1.3498232
  81.0273361  18.1206071   2.2323748  80.2482128  17.0590448   1.4860244
  31.2835574  52.9687023   6.5875131  30.4269028  53.1917334   6.2233305
  31.1702061  52.0876741   6.9441181  55.0106668  75.4046392   7.7287620
  54.5427513  75.7945347   6.9903398  55.4085255  76.1490583   8.1801867
  46.5646315  45.0441647  54.0531158  47.1519375  44.3332529  53.7963867
  47.1494150  45.7528114  54.3215847  46.1951256  38.1880379   4.9388769
  46.5395737  37.3767757   4.5654589  46.5331650  38.8773155   4.3671605
  53.8142204  39.1759539   3.1243801  53.0810356  39.3885016   2.5468922
  53.4123516  38.7196493   3.8636500  69.9751091  53.2682371  20.8386850
  69.1321373  53.6225700  21.1216569  70.1168489  52.5079727  21.4027190
  37.0515418   7.5296056  47.2211313  37.0671988   8.4337282  46.9072056
  36.2435174   7.4668646  47.7304363  11.1475277  19.0078700  64.4432306
  10.9602964  18.9293039  65.3786469  11.7515838  19.7478020  64.3811941
   0.3966134  45.1941729  62.6541328  -0.1413394  45.4999304  61.9238234
   0.1974837  45.7996702  63.3682442  24.6984553  12.8539753  64.0598965
  25.4802465  12.3241246  64.2157602  24.0027571  12.4000788  64.5355177
  40.0296164  71.2602186   7.7250063  40.6052208  70.5207300   7.9201138
  40.5042791  71.7655993   7.0650679   6.0821968  71.0373497  57.5877428
   5.8097583  70.5743170  58.3799601   6.1242175  70.3573656  56.9153643
  34.2120767  59.4514608   7.9491234  34.6720505  59.2501879   7.1341717
  33.4860325  60.0149012   7.6814938  17.2425377   0.7744960   1.5175216
  16.8393791   0.9781608   2.3614499  18.1771541   0.6999812   1.7103271
  25.9774017   9.8834854   0.3651877  26.8751311  10.0689554   0.0896673
  25.5281949  10.7262933   0.3009857  65.0760412  67.2821188   9.1990238
  65.6713057  67.8143835   9.7268349  65.3631496  67.4246788   8.2970947
  30.9290218  58.2650805  32.7589273  30.2914357  58.3682775  32.0524812
  30.4547787  58.5234785  33.5492158  67.2437096  11.2280774  31.4161205
  67.2006607  10.6964016  30.6213236  66.3748932  11.6234910  31.4871192
  35.2709579  31.1451006  45.3368139  34.6396303  31.1812115  44.6182346
  36.1255026  31.1744404  44.9065495  32.2549558  15.7666838  59.7551918
  31.3060021  15.8846176  59.7977257  32.5625038  16.4929914  59.2128611
  29.7245526  65.6693840  15.2078593  30.4519439  65.5004740  14.6090233
  28.9401817  65.5316019  14.6768129  35.3990817  42.8463411   4.1042203
  35.8770180  43.3518362   4.7617009  35.5839372  41.9330740   4.3233064
  69.3237829  16.7132759  60.1359653  69.4472694  16.5712833  59.1974449
  68.6843967  16.0502708  60.3964233  39.6972442  38.9947367  63.9151907
  40.3404522  38.3613801  63.5967922  39.5121312  38.7176299  64.8125029
  19.0788925   5.7497609  65.4694939  18.1960320   5.8059901  65.8350420
  19.3861091   6.6559869  65.4449081   2.7650774  44.0028143  64.3097734
   1.8813425  44.0753889  63.9492512   2.6589450  44.1873932  65.2429962
  43.6345768  71.5932989   1.2044941  43.7312031  72.0252275   2.0532186
  44.2277288  70.8433199   1.2485176  52.3666525  44.5895863  21.9669867
  51.4169979  44.6441698  21.8601775  52.5554895  43.6512756  21.9549370
  67.1240711  61.1451244  23.7862825  66.9874191  62.0405340  23.4767699
  66.2950087  60.9057426  24.2005110  35.8781552  64.5361662  39.0215039
  36.7176890  64.8815441  38.7179780  35.2240419  65.0152588  38.5127425
  70.0268173  52.1858072   7.3298717  70.3816175  53.0595684   7.1658707
  70.7982922  51.6240263   7.4037641   0.7858370  53.7622083   0.2348095
   0.2220534  53.0076374   0.4051023   1.5891312  53.3849157  -0.1238054
   8.0911005   2.8978005  29.7586584   7.3888195   3.1673086  29.1667128
   8.8450515   2.7550188  29.1864681  70.3086233  15.2181363   7.6872319
  70.5485535  15.0280380   8.5941648  71.0887623  15.6284571   7.3140645
  10.7415128  42.2329903  46.8982697  10.2415299  41.4556599  47.1472931
  11.1017013  42.0204210  46.0372734  30.8978486  69.0573978  58.5006189
  31.7582440  69.2943573  58.1544924  30.2856016  69.6196127  58.0259609
  24.0278745  17.2146630  58.0936956  23.3889985  17.3078358  57.3870182
  24.4709539  16.3866723  57.9083776   3.7895256   2.5404781  34.7403836
   4.3932524   1.7978095  34.7266293   3.6469698   2.7503851  33.8174272
  66.3162947  52.9983044  63.3738947  65.8463573  52.1671104  63.4410429
  66.5801144  53.1975365  64.2721939  52.6353502  77.4428415  43.1800318
  52.2151518  76.6594076  43.5348558  52.1931314  77.5943565  42.3447371
  80.2881813  45.5053949  35.6772470  79.5989561  46.1366510  35.8839226
  79.9520636  44.6694279  36.0003781  65.2084494   9.3796009  26.8887568
  64.5445108   9.3611026  26.1995029  65.8279181   8.6924696  26.6431046
  11.1917496  73.0886650  30.8515286  10.2599752  73.0436754  31.0660172
  11.5194571  73.8293600  31.3616395  52.1955729  61.1208773  63.6091995
  52.6397848  61.3896847  64.4133425  52.7530241  60.4325914  63.2462358
  39.8705721   7.4396831  60.3375626  39.9362087   7.1090877  59.4416666
  40.2635527   6.7525887  60.8757973  23.5555053  52.2074842  67.4617100
  22.7995872  52.7295732  67.7304888  23.2866240  51.8039179  66.6364384
  10.6253338  15.8313739   4.2193067   9.8537767  15.3426301   4.5057690
  10.6396818  15.7206047   3.2686457  34.2884827  63.0474854  21.6140819
  34.4651389  63.8116646  22.1627712  33.3675098  63.1364393  21.3688779
  12.6172805  40.9725857  55.4584789  11.9559467  41.3239098  56.0546684
  12.5820875  41.5490913  54.6951771  33.0223250   2.1613339  26.3164592
  32.9371929   1.2116140  26.4002228  32.9530311   2.3260030  25.3760791
  33.3929467  37.0436001  64.1767931  33.0796289  37.9397154  64.2994452
  32.7210498  36.4970613  64.5843267  69.7310877  58.7985134  47.2057581
  68.8893366  59.1247082  46.8875027  70.1950455  59.5816994  47.5017214
  10.9475279  15.4282820  16.6949534  11.5544879  15.2886784  17.4218261
  10.9522307  16.3755572  16.5575540  76.3520384  70.0230932   5.3218549
  77.2014141  69.5818090   5.3296435  76.2064886  70.2462482   4.4024798
  20.7084823  59.0019417   6.8416172  21.3520455  58.8933992   7.5418162
  21.1457419  58.6642361   6.0599571  11.6897142  58.5347652  45.2642536
  12.1395063  57.8009224  44.8454523  11.0039711  58.7811136  44.6435261
  66.6324711  20.9017563  23.2477450  65.7530975  20.5699348  23.4289312
  67.1426773  20.1216793  23.0300260  67.2112036  13.9836895  16.7932224
  67.3966551  14.8682773  16.4780331  66.4904070  14.0964198  17.4128771
  16.4374959   8.6393684   2.5270361  15.5714262   8.2392633   2.6049495
  17.0455587   7.9004467   2.5490937  77.9784107  20.2436900  26.3924646
  78.4848928  21.0366774  26.5681815  78.0192566  20.1391339  25.4418683
  31.6917324  60.1080751   7.3335397  31.3672948  60.7539415   6.7059845
  31.0293627  60.0916100   8.0243570  79.4990492  47.3324823  64.9331903
  79.0913677  47.5622845  65.7681847  79.5012951  48.1497002  64.4348097
  77.5712824  19.7247350  23.7521243  76.6986895  19.5917439  23.3818102
  77.8180599  18.8669217  24.0977955  52.1179295  76.2684965  62.7608871
  52.5223780  76.8526602  63.4022903  51.2672424  76.6669273  62.5769854
  59.6778813  69.9155320   0.5536657  60.1215878  70.4875005  -0.0726027
  59.3685046  69.1783513   0.0272804  53.2520628  14.7890615  38.8050127
  52.3500633  15.0917423  38.9099813  53.6619806  14.9590707  39.6531248
   2.0685670  61.3843393  30.3649116   2.1068524  61.0737562  31.2695122
   2.4351078  62.2679090  30.3993225  55.7134199  60.3271198   7.0453829
  55.3899860  59.7112417   6.3878745  56.1174631  61.0301781   6.5367681
   9.6076483  33.9558148  31.4796448   8.9131868  33.7014461  32.0873070
  10.1624286  34.5499349  31.9850874  34.3521667  61.5532732  66.9244957
  33.5952616  62.0844936  66.6772556  34.8022556  61.3783503  66.0980225
  22.7999973  29.6815515  64.1626930  22.2398782  29.2665887  64.8186731
  22.3098063  29.6021080  63.3443832  13.6707664  75.9844685  29.4823694
  14.0462565  75.1112747  29.3693256  13.7436795  76.3902140  28.6184931
  61.0710192  19.2439687  53.0184698  61.2433338  19.8596096  52.3060608
  61.3605833  19.7029567  53.8069630   0.5615235  47.6274395  64.4923210
   0.8041692  48.0810022  65.2995586  -0.1673934  48.1383514  64.1403532
  45.7692671  58.6158800  50.7876492  45.7082844  58.6502314  51.7422867
  46.6118002  58.1950903  50.6164551  53.7570953  50.9359503  39.5433354
  53.5397243  51.2919474  40.4048729  52.9097557  50.7304335  39.1483593
   8.3700126  25.2984428  51.8013048   8.7181437  24.9986529  52.6410484
   8.5047942  24.5591092  51.2084723  19.5876575   5.1217645   8.1376445
  19.1434085   5.6689829   8.7852770  19.4512105   5.5760235   7.3062223
  47.7158165  77.0927238   8.3419442  47.0426273  76.5789270   8.7880999
  47.2698164  77.4610376   7.5792766  73.9999199   0.6874257  20.2215338
  74.5157671   0.2496393  20.8986425  74.5433664   0.6353875  19.4352829
  12.3092663  23.5219884  12.0784128  12.4095821  22.9990602  11.2829792
  11.6219366  24.1530895  11.8650579  17.7129638  70.1048136  63.0053377
  17.9663002  70.4741621  62.1593857  18.5369623  69.8141527  63.3962011
  38.3074474  58.3504915  40.1909781  38.7137127  58.9973640  39.6141458
  38.6604214  58.5479975  41.0585213   6.8816763  44.4218683  57.1189690
   6.9979560  45.0714636  56.4256239   7.2737926  44.8253155  57.8933764
  52.3074961  28.0754018   5.7954025  51.7961645  27.3470521   5.4428726
  53.1651115  27.6956201   5.9864408  49.0348482  24.8135972  67.2381687
  49.9604464  25.0486398  67.3034143  48.9391565  24.4605541  66.3536119
  65.0338316  14.3539762  18.6606085  65.1014853  15.3005290  18.7858772
  64.3688107  14.2493558  17.9801428  56.7688751  53.1375980  43.2091141
  57.6290083  53.5475111  43.1175900  56.1720943  53.7278175  42.7489710
  41.4475346  48.4532022  16.8535233  42.1465397  47.9076147  16.4930201
  41.0451365  48.8636160  16.0881042  32.2636580  14.3483555  50.4697800
  32.0840240  14.1029763  51.3773918  31.5421724  14.9306476  50.2318144
  80.7194996  74.4726229   0.9937045  79.8886299  74.4321871   1.4672625
  80.7442856  73.6628437   0.4839244  22.8157830  34.7002363  45.5480433
  22.1943331  33.9742517  45.4934311  22.9113364  34.8636484  46.4863396
   8.9502728  46.4171553   4.4708955   8.3283198  46.3052320   5.1898384
   8.5786390  45.9072113   3.7511209  36.0904264  33.7133002  63.7984133
  36.6277814  34.1208029  64.4776917  36.3828516  32.8021336  63.7761879
  26.1911941  33.4765816  43.0697393  26.5748096  32.7976227  42.5146818
  26.7603040  34.2363334  42.9467583  49.6867194   8.9378440   0.2060943
  49.9842753   9.6467531  -0.3641123  49.7361006   9.3039739   1.0891252
  67.2083187  12.3934245  12.4629998  67.6982927  12.2640657  13.2750487
  66.3253832  12.0831680  12.6639962  36.3493228  74.2389393   2.5201660
  36.2366223  74.6826315   1.6795319  35.5809498  74.4942951   3.0306834
   1.1927021  36.2760806  56.1891174   1.8089826  36.9750714  56.4078426
   1.7475949  35.5335641  55.9503841  41.5682745  10.9265614  48.3945417
  41.5087891  10.2995741  47.6737213  40.8204222  11.5101695  48.2666731
  41.8579531  39.4090867   7.2639865  42.6705599  38.9628959   7.0256251
  41.7669725  40.1049566   6.6130495  63.4849977  22.4606967  21.5612006
  62.6063299  22.5023603  21.1837888  63.9099455  21.7378592  21.0995150
  41.6382408  56.5854263   1.0341433  41.2956762  55.7222319   1.2660450
  41.3326883  56.7317724   0.1389064  32.3930502  23.4228086  46.8009424
  31.5878963  23.8888168  46.5755606  32.8946018  24.0495729  47.3223257
   8.2739288  26.9194865  17.3504639   8.5982007  26.0189104  17.3569942
   7.6717621  26.9626188  18.0932736  12.5841701  74.9399948  61.8289804
  11.7504919  75.3967953  61.7169809  12.5237679  74.1845274  61.2442970
  31.9782495  20.5364490  10.3936946  32.3328447  21.3957572  10.6219125
  31.0444093  20.6924152  10.2528226  27.7100182   9.8148727  63.1841660
  27.4394751   9.9559957  62.2769022  28.2199478   9.0052050  63.1588554
  71.6719723  71.7264223  14.4570601  71.7271805  70.7894373  14.2693436
  71.8966293  71.7984915  15.3847277  31.6788554  13.6639369  14.5479345
  30.9599543  13.4770656  15.1516664  32.4174309  13.1617343  14.8922169
  25.1338339  30.5962110  17.9537809  24.3956327  30.8977699  17.4242961
  25.2709651  31.2949061  18.5935104  41.6240549  30.8920813  44.3452263
  41.3529921  30.0202513  44.0577030  42.0968485  30.7382941  45.1631832
   3.3939776  30.8700657   4.3898198   3.2884350  30.4495478   3.5364395
   3.3169404  30.1543188   5.0206941  67.2266579  72.8246737  12.8928971
  67.8134489  72.0975208  12.6851499  67.6144743  73.5794449  12.4500108
  81.9050694  37.6909661  43.7584352  82.5175667  38.2731342  44.2080641
  81.2638760  37.4542117  44.4285393   8.7374252  38.7279940  43.5225630
   9.1730189  38.1580925  44.1563606   8.1782365  38.1392145  43.0157328
  53.2629490   0.7873410  21.2424278  53.7183762   0.2309607  21.8742967
  53.9611101   1.2766016  20.8071971  42.7351379  48.2993078   4.9151731
  43.6190319  48.1737566   4.5699146  42.7118158  49.2171812   5.1857060
  69.9751949  28.5143161  34.0633273  70.3660059  29.3771601  34.2011547
  70.7220078  27.9170227  34.0215802  19.9569321  38.8292050  50.4763651
  19.1748834  39.2031002  50.0703669  20.6869078  39.2608118  50.0324249
  55.0470209  30.7533741  65.2211237  54.5321178  30.2301025  65.8353662
  55.4129362  30.1140022  64.6099424  44.6721029  31.9511175  59.7078419
  45.1919460  32.3425293  59.0058517  44.3475103  31.1307096  59.3366241
   3.4289619  35.4048967  66.0348940   2.5060195  35.6502175  65.9698772
   3.4805533  34.5507669  65.6059027   5.3722709  28.9319444  54.4831705
   6.2178314  28.7962055  54.9107647   5.4115701  28.3879137  53.6965847
  33.5595036  18.3832967  52.9570675  33.5112286  19.3391407  52.9732704
  33.1049395  18.1341255  52.1523857  63.8307571  35.4820871  21.9566798
  64.0421963  35.8953118  21.1195588  64.4717598  35.8416319  22.5699329
  67.8086805  10.8403575   8.6443019  67.0395279  10.2717435   8.6806262
  67.4940872  11.6424513   8.2272786  57.4622822  33.7231350  12.3755372
  56.9514179  33.3192277  13.0770409  57.7695322  34.5495081  12.7482820
  27.2696161  22.7888131  54.1150761  27.9523826  22.2452879  54.5083284
  26.4800787  22.2492886  54.1571999  71.6432953  35.6356359  39.5807695
  72.0692110  34.8358893  39.2721748  72.0503235  36.3358998  39.0706849
  34.0776277  32.3307419  66.6129971  35.0310612  32.3448992  66.6966200
  33.9112711  32.6266694  65.7180214  33.9982748  33.5720706  40.7359028
  33.5379648  34.3488288  41.0536957  33.3178020  32.9026031  40.6651783
  50.1749945  64.6369886  33.5276604  50.6507969  64.3189859  32.7603817
  49.2604828  64.4165516  33.3507180  10.9494030  36.6281033  17.6738787
  10.1381469  36.8987513  18.1038153  10.6880200  35.9067845  17.1015036
  44.3388367   9.7264403  57.9140520  44.0118504   8.9942324  57.3913860
  43.8291979   9.6893698  58.7234545  69.8201227  18.5328794  13.0466557
  69.7539759  18.3363450  12.1121871  70.7565498  18.4780192  13.2372451
  38.2349634  55.0384712   2.5786310  38.0215621  55.9645891   2.6926470
  38.3248639  54.9281693   1.6320673  31.9845891  50.5030727  19.2123830
  31.5375781  51.3157654  18.9758599  32.5436044  50.3094530  18.4598899
   7.4521565  68.2257700  20.9605837   6.9178462  67.6395321  20.4247952
   6.8426007  68.5813427  21.6073012  67.1120501  34.1982722  24.4051218
  66.3667822  33.6001253  24.3500876  67.6669788  33.9584231  23.6629915
   5.6206882  43.7613821  35.4327059   5.7501727  44.2928362  36.2182140
   5.2697951  44.3726921  34.7850895  29.5047069   6.4802629   2.9198936
  29.3889046   6.3129234   1.9845760  30.3746819   6.8738210   2.9868847
  36.9171977  19.6049094  54.4874144  36.8553138  20.5317187  54.7185564
  36.8770313  19.1456532  55.3262854  58.1393099  24.6440005  28.7136507
  57.5176096  25.3644919  28.8166881  58.9820290  25.0157022  28.9742064
  56.2731218  66.2883759  21.7055750  56.4680195  67.0838785  21.2101746
  55.3243065  66.1862469  21.6310859  51.7453957   6.3718039  63.7032652
  51.5957785   7.0012397  64.4087124  52.4122000   6.7827332  63.1530476
  21.3232112  61.5182543  62.7737093  21.1309886  62.2566032  63.3517361
  22.2784448  61.5029287  62.7143145  45.3053141  62.1606493  32.9485726
  45.5234671  61.3089895  32.5700068  44.5605898  61.9836283  33.5232711
  15.9737170  30.5171919  53.0895185  15.1004505  30.8674145  52.9135084
  16.4295852  31.2267709  53.5421944  57.7113152  56.3341236  53.0886507
  56.7779064  56.1769152  53.2309866  58.1202030  56.1251068  53.9285088
  59.1638613  61.0965919   3.2150656  59.4984150  60.8144379   4.0663552
  59.7376156  61.8189669   2.9596996  76.6841555  14.9588859   0.4141284
  75.7446098  14.7822988   0.3661496  76.7429399  15.8527732   0.7513863
  44.2076683  12.0127845  16.9094861  43.7833548  12.8550899  16.7460477
  44.2860126  11.9649458  17.8622746   6.0196429  35.2318263  63.1704569
   6.1230403  34.3957496  62.7160168   6.8700606  35.3880072  63.5810995
   1.6101344  24.9246693  57.1105480   2.0937443  25.0312257  57.9296923
   0.7010038  24.8012495  57.3834610  65.2468204  49.7499704  19.4978225
  64.8953772  49.6966267  18.6090744  64.6013212  49.2945862  20.0383687
   5.8186793  31.7405081  66.0461140   6.3282412  31.7812252  65.2368402
   6.3278323  32.2510338  66.6756821  31.8927646  52.2599459  65.0638199
  31.5928340  51.4327288  64.6870089  31.2211323  52.8944874  64.8138285
   9.5544994  21.7293715  40.4406214  10.2597964  21.4788580  41.0373020
   8.8142616  21.9270611  41.0143805  38.1644726   7.6093793  43.1456470
  38.1817627   7.2896445  42.2435951  38.5278797   8.4933710  43.0934381
   2.1980906   8.5519427  65.2007055   1.6335060   7.7790856  65.1877308
   3.0765343   8.2096446  65.0351715  45.4365349  65.7692814  16.0346496
  45.0732327  66.2967396  15.3232908  46.3688374  65.6997252  15.8292198
  22.2778821   9.1647643  56.3259602  22.5608540   8.2564837  56.2201929
  21.4475489   9.2136496  55.8522654  74.6786070  43.5793257  56.4043617
  74.6791220  43.3406162  57.3313189  74.5762825  44.5310354  56.4021730
  -0.1444881  75.4814720  12.7478528  -0.3969352  74.5615721  12.6685774
   0.5911954  75.4760313  13.3601952  35.7330394  19.3605483  46.8432426
  36.5773940  19.7894001  46.9824600  35.1443815  20.0692558  46.5835285
  41.2288570  57.5978231  65.2912521  41.8819141  57.1405506  64.7614908
  40.5111837  56.9707632  65.3805637  80.1253605   4.8504022  58.7576294
  79.9131155   4.0570152  59.2492819  79.2856598   5.1459819  58.4058142
  41.0831261  24.1738725  43.5628128  40.9173679  24.9635005  44.0778351
  41.9994831  24.2494440  43.2967234  16.3080251  24.9069905   0.7470226
  17.1997666  24.8690605   1.0928416  15.7612276  24.5710373   1.4572194
  60.9816694  46.6418076  62.8855801  61.5896320  46.2821198  63.5315180
  60.1332140  46.2656021  63.1197453  10.3759968  11.8167078  59.0653849
  10.7193959  12.2140908  58.2651377   9.4701582  11.5927839  58.8519669
  45.8778858  60.8803558  15.0286663  45.7707834  61.4202356  14.2455387
  46.2760782  61.4672136  15.6715310  44.4712925  18.1534648  22.6850438
  44.8937845  17.7197850  23.4264302  44.9632597  17.8542233  21.9204140
  38.5475469  59.8000431   7.5811398  37.7406502  60.0973034   8.0015981
  39.0150881  60.6063271   7.3630971  43.2622814  22.1225810  52.1936560
  42.3213387  21.9774508  52.0947123  43.6006975  21.2876630  52.5171041
  17.4571633  13.7392747  64.3991756  16.8929899  14.5039332  64.2841244
  18.0281353  13.9709353  65.1316738  10.2598441   2.8289509  28.2445478
  11.0198259   3.3919531  28.0972838  10.4826951   2.0067412  27.8080392
  61.6491032   6.8299997  -0.0149050  62.1399498   6.1419320   0.4343880
  60.7535267   6.4950746  -0.0596916  25.7134104  28.9499664  22.5933313
  24.9122953  29.2484546  23.0238605  25.5188322  29.0088081  21.6579652
  33.2337165  11.2264025  59.1545868  33.2979369  10.6904769  58.3640862
  34.1067576  11.1833858  59.5446920   2.9810345  11.5841603   5.4626739
   3.1412706  12.5257635   5.5254436   2.3998041  11.4898992   4.7080097
  25.9169626  27.4898911  55.6823301  25.9861207  27.6460981  56.6241646
  25.9888840  26.5397549  55.5912161  32.7389669  63.7461281  65.8468151
  33.3734465  63.3973455  65.2207041  32.8331590  64.6962786  65.7791376
  61.5609646  68.4832287  18.1688404  60.8159924  68.4172726  18.7662506
  61.7082977  67.5859737  17.8697479  80.1006126  35.2902484  54.4501162
  80.1067257  36.2137651  54.7017384  80.2188873  34.8168516  55.2736092
  66.3313866   0.9338883   7.2494709  65.9678125   0.8961864   8.1341320
  66.5075636   0.0205076   7.0238000  43.8278770  56.5376806  51.3599062
  44.4425058  55.9973192  50.8634424  43.8401365  57.3849440  50.9146833
  78.8564587  11.0300410  42.3079252  78.9086437  10.0748372  42.3410273
  79.1188860  11.2534451  41.4149237  71.9824791  34.8484612  15.2600586
  72.3026466  34.5914149  16.1247277  71.1307621  34.4185853  15.1824963
  64.4284487  70.0597811  24.4530249  64.1934872  69.1642427  24.2100501
  64.7837639  69.9823284  25.3384542  62.6581049  25.3697324  42.8718138
  62.9810715  26.2544656  43.0426073  61.7248774  25.4109526  43.0806589
  70.9387922  66.9294405  43.6481810  71.3987160  67.3936558  42.9487467
  70.5984974  67.6234388  44.2128038  22.7231646  20.0044799  10.2755976
  23.0696082  19.1266179  10.4355013  21.8221211  19.8576343   9.9878663
  56.2596846  54.0659142  63.5384703  55.8697319  53.7095451  64.3367004
  57.1915340  54.1458464  63.7421751  43.6584902  56.2320328  27.8233719
  44.5011806  55.7891178  27.9229927  43.7232971  56.6837072  26.9819307
  66.6569376   7.6158816  25.1116824  66.7513990   7.0670164  25.8901787
  67.1110106   7.1326268  24.4213820  59.6208143  67.7783823  20.3625011
  59.9522638  68.5684252  20.7893467  59.6924162  67.0970011  21.0309505
  28.8317370   0.6412603   0.6729072  28.5086560   1.3762131   1.1941512
  28.1431651  -0.0203394   0.7391324  75.6133556  69.5353937  61.4459562
  76.2616873  68.9782047  61.0153198  76.1311579  70.2110720  61.8836451
  48.2788038  19.8125362   1.9618240  47.7639771  19.4766152   1.2281067
  49.0132999  19.2034519   2.0377772  75.6409931  41.6124392  21.0621572
  74.9927568  41.4978075  21.7570496  76.4293671  41.1853170  21.3972187
  37.4633169  67.0328331   0.3780029  36.5389061  67.2806406   0.3610654
  37.9177999  67.8230095   0.6700587  12.5300562   3.4017813  10.4181302
  11.5772343   3.4217489  10.3288901  12.7124929   3.9701030  11.1664355
  13.7482548   6.3701826  45.9717655  14.4698417   6.5868002  45.3813267
  13.1940389   5.7766706  45.4649925  37.7698827  58.7710619  62.7291632
  37.5404215  59.6116638  63.1253481  37.1937823  58.1386709  63.1585979
  50.0517702  67.9857874  20.7203650  49.4785976  67.5746059  20.0733447
  50.5290365  67.2562170  21.1155486  45.1154613  49.6709061  60.1656008
  45.6944847  49.8670197  59.4290543  45.3392839  50.3255224  60.8271217
  52.5951052  27.3700023  12.4296343  53.1241798  26.5808344  12.5459528
  51.8285656  27.0742249  11.9385481  41.3910007  18.6607194  32.7471018
  41.7047644  18.7884736  33.6423469  41.8798828  17.9022026  32.4279141
  56.4046907  12.1881831  45.6614304  57.1478367  12.4700236  45.1280165
  55.8660030  11.6675282  45.0656414  34.7789431   7.2699600  49.2881346
  34.1342974   6.6026723  49.5234871  34.2622256   8.0635744  49.1488075
  80.8637619  13.5657740  35.2716780  80.1970959  13.1946421  34.6937084
  81.5224457  13.9255059  34.6775746  78.4267712   4.4263345  46.4839506
  79.2005396   3.8701251  46.5742111  78.2705641   4.7643170  47.3657656
  26.2417793  34.9767232  20.0291896  26.3545680  34.3633199  19.3030727
  26.0959482  34.4190574  20.7933736  39.8667097  54.8065281  65.6977034
  39.9861288  54.6955490  66.6409206  38.9265394  54.6909094  65.5600691
  42.1572971  51.6744518  18.1578112  41.3315821  51.7401075  17.6781058
  42.2099161  50.7551765  18.4193408  26.7014337   6.7135662   3.7279263
  27.2963095   7.0582342   3.0619255  25.8595324   6.6347051   3.2793561
  17.4846351  48.4695911  21.4173388  17.3786461  49.3566799  21.0737133
  16.8232143  48.3987379  22.1056223  18.0361426  12.0459974  18.8141143
  18.1602538  11.9231129  17.8729832  17.6699722  12.9267359  18.8944292
   1.0815763   1.6192333  20.4487014   1.8966889   1.1254990  20.5384207
   0.3918581   0.9697690  20.5855107  79.1361141  44.5375872   6.1267221
  79.1512680  43.5864830   6.0199344  80.0519371  44.8027420   6.0419405
  38.4346581  70.9754610  19.1377127  37.6006389  71.1407948  19.5773828
  38.3588791  70.0795078  18.8094473  47.9042625  52.7895069  58.6474180
  47.3577785  53.2225895  59.3031788  47.3458242  52.7290630  57.8723478
  77.2700405  20.8759427  42.2319126  77.4543476  20.1933646  41.5866613
  76.9993830  20.3977919  43.0157137  74.2267227  68.4616041  48.4457350
  73.3945656  68.0107546  48.3026266  74.7713804  67.8200483  48.9017963
   0.5938928   1.9737296  13.8507819   1.1269303   1.3498153  14.3435633
  -0.1526007   1.4599587  13.5425305  34.1401148  75.0410557   3.9740747
  33.5837150  75.1244307   3.1996715  33.9640474  75.8331108   4.4818980
  25.3362226   9.1755736  20.7151461  25.0739408   9.1749400  19.7945797
  26.2126374   8.7906998  20.7147527  11.6272843  50.9385490  49.9260473
  10.8061349  50.5195284  50.1836634  12.2763062  50.2359009  49.9620008
  70.6142616   6.6380513  47.9459000  70.0159502   6.7736900  48.6806488
  71.1827898   7.4080700  47.9546833  77.0766544  65.2301931  35.4601145
  76.8332100  64.7363424  36.2431097  76.3760233  65.8739376  35.3555012
  21.4462519  68.3209944  11.9025123  22.2168636  68.2256556  12.4622452
  21.7969108  68.3313131  11.0119140  28.8858318   4.3492737   4.4976434
  28.0048895   4.4783285   4.8490942  29.0879059   5.1709300   4.0501189
  43.9816999  46.1364126  60.4193544  44.2403698  46.1007357  61.3402510
  43.8594198  45.2205849  60.1692677   6.9721818   9.1466838  33.1497288
   6.1525500   9.5510590  32.8652716   7.4505949   8.9783698  32.3379278
  53.6785841  22.2961044  13.1396437  53.0975056  22.3341036  12.3799491
  53.1540537  22.6454496  13.8601017  39.7767782   2.0247325   3.2976845
  40.1561737   2.6552558   2.6855314  38.8819766   2.3348135   3.4370136
  73.1822157  11.4061642  14.3504059  73.5316229  10.5167174  14.4054902
  72.2869682  11.2924755  14.0312934  13.7533224   3.9584470  48.8427496
  12.8715789   3.9845288  48.4711552  13.6194861   4.0637133  49.7846842
  35.3524256  10.1654148  14.0183878  34.7181129  10.2399826  13.3054233
  35.3121376  11.0114598  14.4642770  79.4660711   1.3413446  11.4876497
  79.8222923   1.0364445  10.6531596  78.6483669   1.7801334  11.2530041
   5.0842047  38.0203581  22.0283413   5.5719775  37.9565144  22.8494596
   5.6033063  37.5164247  21.4015889  42.1897459  25.2185822  24.1584635
  41.6705656  26.0226274  24.1444278  41.8013144  24.6948671  24.8592329
  64.3022490  24.3465400   4.6440005  64.9915123  23.7799191   4.2974716
  64.6386290  24.6431780   5.4896271  66.4237881  69.0387344  10.8662641
  65.9443903  69.0583992  11.6945302  65.9441710  69.6410561  10.2975714
  10.0471163   4.3999577   8.2614625  10.5267310   4.8903269   8.9290994
   9.9991959   4.9964508   7.5143808  41.7080021  36.6433454  63.5924959
  42.1238470  36.4053774  62.7638340  42.4149275  36.5998983  64.2363882
  69.9635839  73.4161663  12.0147586  70.3506041  74.0474796  11.4082170
  70.7115507  72.9366112  12.3708570  75.5643988  24.2918634  12.9400575
  74.9553871  24.9777269  12.6663268  75.0071716  23.6186957  13.3306599
  25.3057957  15.4250121   7.4770367  26.0966802  15.5218494   8.0074680
  25.6298828  15.2492499   6.5936869   7.8795439  25.3308535   5.4246950
   7.5870126  25.4387164   6.3296938   8.7137544  24.8669600   5.4963070
  62.6181221  69.1745043   8.6049086  61.9887781  69.8384428   8.3232349
  62.8364086  68.6966562   7.8047568  61.6825676   6.7248142  18.6611271
  61.5381432   5.9071451  19.1373527  60.8166456   7.1298462  18.6125374
  76.1028671  64.9707603  47.3055267  75.3438044  64.9197197  46.7246199
  75.7600737  65.3499937  48.1147909  81.4556643   7.0066214   9.4986236
  81.4634228   7.9464179   9.6801555  81.8213640   6.6071975  10.2879000
  63.4958267  45.1050234  47.8427553  63.0350590  45.8577061  47.4720907
  64.3788004  45.1610565  47.4774456  23.0194592  21.0817170   3.4996137
  22.8470540  21.8568563   2.9651338  22.9185343  21.3855147   4.4016966
  22.4792457  28.0126023  19.5793772  21.8881011  28.5410261  19.0431392
  21.9343519  27.7036858  20.3031826  20.1114893  51.3074446  21.7360258
  19.6350098  52.1249723  21.8804145  21.0125494  51.5073776  21.9897032
  19.4130039  64.8100138  61.5708447  18.7635195  64.9672461  60.8855152
  19.0049028  65.1454353  62.3690796  70.6324291  75.3835201  16.3760602
  71.0876560  74.5479774  16.2718236  69.7252226  75.1934433  16.1371493
  77.6340246  49.4945383  15.3118193  78.0413198  49.3410873  14.4592965
  76.7762327  49.8651171  15.1042259  77.9800081   5.7949543   9.7675383
  77.1555471   5.8358043  10.2521324  77.8872395   5.0288808   9.2011839
  63.9425421  40.4535484  18.5379183  63.7273788  40.7446289  19.4240367
  63.9769936  41.2595797  18.0227864  11.4175069  18.6190271   4.1238728
  11.8713021  18.6610758   4.9656171  11.9188893  17.9835689   3.6129507
  22.8239775  67.0122480  48.5293436  22.3101282  66.3311005  48.0954885
  22.7607608  67.7682781  47.9456854  43.1334972  54.1342402  55.2944565
  43.8630152  54.1642952  54.6754837  42.4813318  54.7296429  54.9251175
  44.2035198  55.6823683  31.9811749  43.6551142  55.6668568  32.7655482
  44.2231417  56.6032696  31.7208219  74.8958778  49.7128153  12.5951338
  74.0292978  49.3063259  12.6009524  74.8471832  50.3706980  11.9015515
  45.5049562  61.0257673  46.7680073  46.1174870  60.2939510  46.8420649
  46.0511398  61.8059349  46.8641996  81.9821930   7.8216630   1.0091590
  82.0556831   7.8438872   0.0550428  82.5517559   7.1003038   1.2765087
  42.2381163  25.6651044  38.2585263  42.0867300  26.6102314  38.2654548
  42.9854202  25.5379486  38.8429880   0.2619393  52.3357821  12.7231741
   0.6533845  51.5861273  12.2748244  -0.3788440  51.9498253  13.3203959
  56.1953783  32.1090102  48.3827353  56.3524628  32.9635477  47.9810810
  56.7531538  31.5067673  47.8903675  57.4864531  11.6664517  54.3742514
  57.1688700  12.4626470  53.9482832  57.9215717  11.1781502  53.6753464
  18.2947862  31.9598341  21.3175225  17.6022220  32.1613431  20.6882524
  19.0711737  32.3965812  20.9672260  25.5659986  74.8208094  10.4385734
  26.1965656  75.3316212   9.9309444  26.0189009  73.9984703  10.6252933
   9.9964428  60.1434278  61.8301773  10.9055519  60.4256010  61.9308281
   9.9697810  59.7235394  60.9704018   4.8211202  20.8903837  53.9359665
   4.3223509  21.5633106  54.3992472   4.2030430  20.1679540  53.8250256
  57.7542162  30.1844025   5.4810905  57.8055811  29.2339015   5.5818093
  57.6923847  30.3221011   4.5358667  80.2518940  62.2260714  60.2379084
  79.3918419  62.6462412  60.2394390  80.5287838  62.2438574  61.1540127
  47.7200699  53.7642384  43.4283018  46.8274593  53.8286114  43.0886936
  47.6313066  53.2695007  44.2429066  48.8173628  23.4931111  16.2479949
  48.1831551  23.1776166  16.8917942  48.2916021  23.9770484  15.6111169
   3.1369546  23.3271503  39.0204692   3.9420557  22.9809093  38.6355543
   2.8055322  22.6131749  39.5651078  76.1695814  44.1586018  17.6296520
  75.5931282  43.5068655  17.2306871  76.4327240  43.7676191  18.4627891
  61.6915083  48.8694096  41.9357014  61.1734915  48.0729628  41.8192673
  62.5238562  48.6791515  41.5030003  37.7057958  25.2162051  57.5078583
  37.7215886  25.0976753  56.5581560  37.7724028  26.1629534  57.6322126
  78.7641048  36.2153792  14.1342807  78.6142683  36.6905880  14.9515665
  78.7132835  36.8868637  13.4540164  60.4877281  27.7483773  38.9314485
  60.1278114  28.0073190  39.7797632  60.8610916  26.8803954  39.0845466
  27.2904038  30.2032638   6.0388893  27.9657269  30.6922913   6.5090203
  27.4685264  29.2865419   6.2489414  45.8031702  76.2721586  53.6626434
  45.4563046  76.8804026  54.3152952  45.5377769  76.6456604  52.8222322
   5.0802672  14.8346722  38.5348272   5.4773974  14.3916070  39.2846346
   5.8219534  15.0834680  37.9832530  30.5135989  19.3747485  18.6580110
  30.1727223  19.4879460  17.7707553  31.4312291  19.1327667  18.5329843
  73.4228611  66.9299746  45.5499840  73.3247662  65.9925365  45.7167864
  72.8560781  67.3490667  46.1975574  33.5398889  75.0947952  54.3839550
  33.2305288  75.9118176  53.9927912  34.3251634  74.8721457  53.8839579
  20.0048637  23.0927038  36.7563939  20.0890684  22.1603727  36.9561458
  20.8928633  23.3707070  36.5318918  73.7744999  32.1495152  66.7439604
  73.1436157  31.4586282  66.5417337  74.0767956  32.4555922  65.8888769
  20.4109931   1.5034832  13.5776949  20.0944877   2.2475442  14.0899754
  20.6300116   0.8388679  14.2308021  68.5864639  54.1912413  31.7398143
  68.6430502  53.8487148  32.6318359  69.4862890  54.1624832  31.4146733
  61.5449381  67.5377178   6.1434168  61.4643669  66.8515873   6.8059611
  62.0656061  67.1379852   5.4467452  69.4312429  59.3677139   5.2895772
  68.6313581  59.5458078   5.7842529  69.3792725  59.9507236   4.5321929
   8.6571079  32.9888153  66.5769434   9.1923851  33.7774944  66.4892149
   8.9440668  32.4235868  65.8597231  25.5873060  22.3003078  57.8840923
  24.9703670  21.8795156  58.4828854  26.1007190  21.5778828  57.5225163
  37.1154189  34.5568419  66.1457682  37.7434826  34.5311213  66.8676472
  36.3193512  34.9201465  66.5337372  21.7001009  67.3597336  26.1195445
  22.0895123  67.0012045  26.9170690  21.9153905  68.2920313  26.1460805
  49.8965120   8.7897015  16.7071044  50.3347063   7.9551083  16.8734539
  49.0363121   8.6942559  17.1159744  16.4176357  69.5667362  53.4154606
  15.7532597  69.5990705  54.1037846  15.9180605  69.4697428  52.6047516
  74.6515083  58.4696007   5.8587068  75.5416107  58.2125854   5.6181115
  74.2116737  58.6214256   5.0222087  22.9415441  25.0824761  11.9208026
  23.2606292  24.1816354  11.8669403  22.8624058  25.3634477  11.0091972
   8.0119067  11.8629253   2.4553686   7.3698980  12.0472407   1.7697418
   7.6330543  11.1355567   2.9489642  68.3419085  24.6623826   5.2506411
  67.5350666  24.2800808   4.9055499  68.4771776  24.2201066   6.0886902
  49.5340347  60.1914883  64.2968035  50.4375172  60.4231024  64.0816259
  49.0972137  60.1173210  63.4483242  41.1638165   8.7203383  21.3280964
  40.6396866   7.9399520  21.1477733  40.6379986   9.2236298  21.9497418
  57.4444199  56.0731316  58.3474827  57.9312468  55.3507471  57.9507589
  57.9610968  56.3169098  59.1155005  35.5146360  39.9253392  64.0722752
  34.7889924  39.6065426  64.6089745  35.2726340  40.8249283  63.8522625
   1.1158241   1.7183292  30.0749636   1.1206578   0.7854012  30.2890968
   0.2972666   2.0454617  30.4480314  70.3753614  30.0744772   1.6859654
  69.8055696  30.2953744   0.9492316  69.7744846  29.9118686   2.4131112
  55.3755283  37.8849936   8.1347573  55.4747581  38.6175275   7.5266635
  56.1519527  37.3448181   7.9877555  61.4495277  13.6664844  48.7959099
  61.3496494  13.8875353  49.7218609  60.5629730  13.4556103  48.5030270
  80.9972763  28.2737064  15.3422546  81.4515114  28.4217215  16.1717081
  81.5868568  28.6324263  14.6789694  43.4539270  52.0289230  66.3900375
  43.7036657  52.0055056  65.4662895  43.7380791  52.8912401  66.6931868
  38.3926964   9.2258245   2.0246948  37.9051208   8.5194129   2.4483514
  38.1154084  10.0178826   2.4851155   1.3110547  19.7033024   5.2144510
   1.8136255  20.3549409   5.7033503   1.7767148  19.6163869   4.3826830
  68.8054371  10.1499748  45.8235216  69.3001795   9.9610776  46.6208792
  69.4516230  10.5217135  45.2231169  22.0088077  70.2588606  59.6255875
  22.4456406  70.0195885  58.8081789  21.7065883  71.1556816  59.4820309
  69.5723867  41.3996172   1.7594980  68.6987209  41.6931152   2.0179477
  69.4160604  40.6121683   1.2382299  43.6157274  60.9161997  61.6999817
  44.1198969  60.6261444  60.9397745  43.2919979  61.7833281  61.4560080
  32.5646186  50.5752707  30.7803273  31.8030524  50.6264734  31.3579297
  33.3117199  50.5055332  31.3746428  49.7193608  13.5107981  67.3715886
  49.2687020  12.8616606  66.8314403  49.2919716  14.3397938  67.1563338
  16.8158185   7.0995283  41.6381741  17.7580476   6.9907689  41.5093040
  16.5121758   7.5262576  40.8369637  41.2039566  34.6325731  60.7378340
  41.6169596  34.4687080  59.8900080  40.2707243  34.7084618  60.5389690
  59.0316153  34.3553090  62.1837807  58.4782457  33.7093329  61.7447662
  58.6239004  34.4767284  63.0412531  53.3330965  69.3548346  47.8230000
  54.0065765  69.9205399  48.2006741  53.1597424  68.7027025  48.5019016
  32.4652338  19.3367136   8.1364769  32.3854232  19.6007335   9.0530771
  31.7569900  19.8014796   7.6908141  67.8585768  21.4194679  47.8742599
  67.4419975  22.0888400  47.3314571  67.2633410  21.3075948  48.6154842
  59.1805315  64.6230984   6.1332417  58.4276247  64.3422699   6.6533333
  59.9277496  64.5308638   6.7243350  79.4927311  67.8265953  48.8740540
  79.5951653  66.8952179  48.6784172  79.0220451  68.1795788  48.1190157
  49.2536783  67.2986126  39.9153709  48.5346413  67.9288769  39.9599123
  48.8245201  66.4434099  39.9415040  52.6966238  36.9203091  26.2184286
  51.9117308  36.3742065  26.2625241  53.0207968  36.8021083  25.3255820
  31.4873600  44.6667624  22.1181631  30.8209658  45.2398682  22.4972486
  32.3188543  45.0813770  22.3482609  49.3295097  66.9596195  24.0843391
  49.4585609  66.0112715  24.0697885  49.2729616  67.2078276  23.1616116
  61.6310692  21.8371415  25.9885430  62.0581579  21.7269826  25.1390195
  62.0722294  22.5896811  26.3826180  82.5480652  45.2414608  31.4509797
  82.4153519  46.1435270  31.7423487  81.6716099  44.9323845  31.2218142
  52.9580498  22.8354430   8.9672923  52.6103687  23.0185938   9.8401070
  52.4196768  22.1141553   8.6415201  72.9444838  76.9245863  66.5697765
  72.6173782  76.5618658  67.3929834  72.4405193  76.4736652  65.8923388
  71.4410448  54.4114780  59.9331045  70.9896612  54.5065546  59.0943861
  70.9360266  53.7478733  60.4030180  43.6723328  21.5718198  22.4328375
  44.3356133  22.2225761  22.6626396  42.9326630  21.7707014  23.0069137
  38.2090831  67.2833633  42.5308228  38.4630919  68.1822538  42.3217535
  38.5944462  66.7565727  41.8306637  30.0890326  11.3054097  38.1401849
  29.1583586  11.3294041  38.3626842  30.4264832  10.5390584  38.6039352
  60.1897907  16.4483321  63.5127974  60.9032917  16.3851368  64.1477394
  60.6231928  16.4053786  62.6604176  10.2169847  24.2171335  26.7663932
  10.5699158  24.0164375  27.6332211   9.7343010  25.0347662  26.8877411
   8.6186516  37.0069981  22.0861459   8.8141239  36.4887547  22.8668165
   8.3656603  36.3608098  21.4268541  37.7508950   9.9198329  31.2367177
  37.2343612  10.6279945  30.8521008  38.3006144  10.3520548  31.8903446
   4.9237111  35.1924515   3.5760573   5.7382011  35.6902528   3.5051107
   4.2361104  35.8291316   3.3809248  81.3719559  24.0820169  44.3489599
  81.3085270  24.0959144  43.3939648  81.7926598  23.2458043  44.5489168
   6.0551310   6.5348226  66.5176105   5.6833178   5.8810121  67.1096563
   7.0021224   6.4272153  66.6062641  30.8696079  27.9668283  10.0962305
  30.1485777  28.2303596  10.6679833  31.6594625  28.1780958  10.5939496
  72.7903414  41.2837791  51.4930820  72.0400763  40.8884192  51.0492086
  72.9130888  42.1248722  51.0529423  56.3815546  21.4441633  54.6426249
  56.4535284  22.0468783  53.9024973  57.0965528  20.8208299  54.5143080
  49.6114635  20.6887436  47.6185846  49.9016905  20.2823853  46.8019629
  49.4997692  21.6137743  47.3993301  80.1064873  47.7271032  38.7178326
  80.0160122  47.8480864  37.7726293  79.6557093  46.9021177  38.8979340
  12.8349042  39.4166327  43.3312607  13.3826363  39.6227646  44.0887117
  12.2404659  38.7346840  43.6440277  63.8166809  36.7124128  16.9571602
  64.5815039  36.9951510  16.4558268  63.6921024  35.7966590  16.7079520
  76.0457611   9.9041545  45.7604599  76.2833786   9.2221844  46.3886976
  75.0951958   9.8306382  45.6752634  10.8742297  11.0386574  26.0937715
  10.5549097  11.9371545  26.0102916  10.9070778  10.8828652  27.0376372
   1.2379804  48.1947041  53.2377195   1.8118131  47.8985453  52.5311518
   0.9651456  47.3897552  53.6780071  81.0002804  16.9226217   8.3931571
  80.3666782  17.2424221   9.0354210  80.5142212  16.8980861   7.5689125
  81.7269611  77.5181818  25.8613420  80.9615231  77.4734211  26.4343405
  81.7377281  78.4219551  25.5462098  42.6274109  69.9815083  18.4348547
  42.6263428  69.1724157  17.9233885  41.7016172  70.1657391  18.5935867
   3.8924807  10.9303796  62.4757481   3.7635815  10.3260267  61.7447376
   3.0441475  10.9552395  62.9184055  21.7654467  11.5828538  40.0688505
  21.9434047  12.4529803  40.4258442  20.9879541  11.7021656  39.5234156
  75.3318882  19.9172807   4.9363568  74.5394611  19.4320691   4.7064397
  75.0211763  20.6368685   5.4857951  49.9246502  59.2410421  56.0219717
  50.1683760  59.8253250  55.3040314  50.6367588  58.6027622  56.0635996
  18.2948124  20.4654574  13.9895248  19.1366351  20.8980274  13.8465226
  18.5242891  19.5656812  14.2218554  54.6959639   0.9802652  34.7992468
  54.7029543   1.4051226  35.6569624  55.4528570   0.3945453  34.8159122
  58.9912271  59.4628096  64.9062347  59.1933250  59.6354580  65.8257866
  59.7609711  59.0005255  64.5745420  23.2546043  72.3745155  14.4347286
  23.6191916  71.5020132  14.5832205  23.2276320  72.4638748  13.4820914
  45.7404089  28.2629442   2.1875879  44.8162079  28.5120678   2.1921124
  46.0928631  28.6355376   2.9957843  51.7293215  56.4226246  59.3244267
  50.9705925  55.9116316  59.0425587  52.4038601  56.2287474  58.6735487
  57.8558731  27.1519399  23.2098317  58.7769556  27.3360276  23.0255866
  57.6311684  27.7468681  23.9252329  51.1173677  46.6841984  55.9333992
  50.6691170  46.5056658  56.7601013  51.2532473  45.8207273  55.5432892
   6.8174464  76.7995882  47.2892904   7.5728953  76.3544941  47.6732445
   6.8935156  77.7045918  47.5916338  36.3216805  38.6826658  61.8846226
  36.3927126  37.7692246  62.1617746  36.0681987  39.1546226  62.6778650
   3.6289698  49.2178345  15.1129889   4.2420888  48.5299635  14.8538625
   3.9632726  50.0085688  14.6896541  57.6200867   2.3417951  10.1860452
  57.0682955   2.9960480  10.6146634  57.5513744   2.5446227   9.2531073
   7.4606550  21.8458009  13.1007373   7.3922998  20.8925986  13.1551528
   7.1272027  22.1582460  13.9418197  49.2278385  73.0338240  54.2013121
  48.8071823  73.3687973  53.4094334  49.5873690  73.8112116  54.6286774
  50.4190063  49.5646763  67.1778822  50.3122807  48.7242699  67.6234818
  50.3837156  49.3479681  66.2462044  66.4106512  62.2635698  58.9030838
  67.0918131  62.8824139  59.1662931  66.8868303  61.5484858  58.4810209
  58.0161810   3.7590611  53.5570383  57.0673752   3.8705415  53.4972906
  58.3470535   4.0662581  52.7130127  39.4697022   9.5849365  23.4959078
  39.5129609   9.1835415  24.3638039  38.5395575   9.5685560  23.2705355
  79.5495558  64.6712542  48.9634180  79.2025948  64.0735531  48.3011532
  80.4216290  64.9027109  48.6438179  44.9471903  66.7870092  67.0077372
  44.9328899  65.8508921  66.8084574  45.0501442  67.2116423  66.1560822
  72.0601845  47.9135084   7.2676975  72.2892904  47.5973988   8.1416631
  71.1322069  48.1396723   7.3304445   6.2133676  18.2816231   8.6160493
   6.5353739  17.5312221   9.1154915   5.2743620  18.3066940   8.8000929
  69.2190790  74.6118784  30.3064036  68.4083891  75.1177502  30.2506733
  69.9145269  75.2627802  30.2120352  28.0530453  27.3635745  14.0499294
  27.9223394  26.4372945  14.2527878  27.4235535  27.8218365  14.6066773
  51.6901731  56.1862373  62.4305058  52.6460648  56.1953497  62.4797392
  51.4953899  56.3956261  61.5170240  30.1538682  27.5169659  20.3955793
  30.9109378  27.4067497  20.9708428  29.9921751  26.6421866  20.0422382
  30.1070523  37.4527645  55.3421450  29.2321348  37.1008897  55.1780319
  30.4237843  36.9628429  56.1010170  17.7203906  29.9505067  18.6943889
  18.6480117  30.1571822  18.5802114  17.3230839  30.7766390  18.9698601
  70.6681538  11.6116560   1.3156405  71.0789633  11.1040783   0.6157622
  70.8906221  11.1381352   2.1172124  43.9519501  29.0840769  61.2148094
  43.9554214  28.1699729  61.4987755  44.8398876  29.3937397  61.3934374
   4.3041173  69.4276810  62.0514965   3.9620340  70.3092003  62.2002602
   3.7586132  68.8634396  62.5994873  56.0178471   1.8183099  27.0196223
  55.8575201   0.9677549  27.4283791  56.7553329   2.1837005  27.5083375
  79.4603872  33.1476927  10.4807198  78.7101030  33.3031535  11.0544252
  79.4964933  32.1958494  10.3862548  22.4887848  38.3753729  12.5339603
  22.2166348  38.4803843  11.6222930  23.3270860  38.8342404  12.5880408
  80.9622002   8.8972080  34.1096950  81.2873745   8.3220398  33.4171081
  81.2209129   9.7760540  33.8323331  19.0938556   7.3187006  35.4378772
  19.6579540   7.3238897  36.2111807  18.2041299   7.3392332  35.7902932
  45.2394390  21.9157767  14.5770121  46.0323429  21.7314267  14.0734732
  45.0553322  21.0992408  15.0413477  30.5624509  44.8394060  66.9426203
  30.0970078  44.7038937  67.7679873  29.8711729  45.0114870  66.3032770
  36.7978239  32.2141600   7.8783500  37.0422983  31.6262794   7.1636051
  35.8406377  32.2116375   7.8737795  21.0799098  27.2035027   1.6108574
  21.2945342  27.9478097   1.0485616  20.9261084  27.5908279   2.4725743
  53.3157444  41.3891935  64.9842501  53.1524420  40.8564472  65.7625484
  53.3853960  42.2840500  65.3168249  79.8108530   0.6219649  57.5793123
  79.5220947   1.3490173  57.0277309  80.2715302   0.0348463  56.9798899
  19.7524464  23.1806946   7.4092394  18.9106226  22.9816723   7.8190619
  20.4037476  22.8375745   8.0210453  22.4489927  10.4323506  46.0622072
  22.8458524  11.2791026  46.2665272  22.4923277  10.3715551  45.1079226
  78.5798931  22.1838641  57.5156450  77.8763151  21.9172525  58.1073618
  78.3267593  23.0588555  57.2214556  26.5578141  37.4817502   0.5058056
  27.0003332  37.3105323  -0.3255171  25.6329598  37.3154962   0.3235155
  46.2747669  22.7720690  55.1055431  46.6740751  23.6419749  55.1126385
  46.2673235  22.5044441  56.0245419  11.4073956  51.0293579   8.4753489
  10.6397796  50.6053162   8.0916989  11.6411614  51.7139578   7.8485256
  75.7384348   9.2963988  23.5947609  76.4743567   8.6866242  23.5416007
  75.9336042   9.9651527  22.9383254   0.1224382  23.9766574  38.4642982
   0.9811629  23.5641336  38.3713031   0.2269765  24.8401189  38.0646253
  17.9850483  66.1577177  33.3598137  18.8911533  66.4573193  33.2860518
  17.8009510  65.7419109  32.5175261  23.3205819  69.7311497  53.9229536
  23.6785007  68.8743830  53.6904049  22.4482679  69.5406818  54.2679501
  72.9666376  18.8325799  15.9075522  73.5527515  18.1354928  15.6129861
  72.1932411  18.3730257  16.2345064  64.4182920  76.1837912  24.6728683
  65.0654411  75.5053139  24.8654675  63.5798120  75.7906723  24.9150348
  69.3729448   5.9319335  60.9832573  69.6238804   6.1387873  61.8835211
  69.4154263   4.9768347  60.9362078  34.3097019  57.8017378  66.5059853
  33.9477539  56.9196463  66.5904808  34.2272711  58.1793499  67.3816824
  13.1344795   6.0647905  50.8924723  13.7721205   6.2769830  51.5741062
  13.5244489   6.4025313  50.0861931  56.8016005   6.0454816  35.7770228
  56.2024975   5.7098669  36.4438629  56.7726088   5.3919423  35.0782537
  51.2656069  53.4317350  51.0316563  52.1860695  53.6082458  51.2261391
  50.8124542  53.5818434  51.8613291  73.6173630   2.6090652  49.3158722
  73.0589247   2.0505296  48.7751198  73.7562180   3.3939040  48.7857962
  35.9730315  73.4636545  55.7149887  35.1508474  73.0521441  55.4487038
  36.0956717  73.1879282  56.6233730  22.8210735  23.1213117  25.2393770
  22.7394795  23.3909369  24.3245673  22.0928001  23.5560369  25.6830716
  39.5956874  56.5052223  52.1074390  39.2170525  57.3395634  52.3844671
  39.3533540  56.4268351  51.1847448  65.3787136   4.8184833  62.1972609
  65.3163385   4.0912628  61.5779924  66.2163877   4.6843630  62.6406002
  46.6372013  65.5410051  38.4526968  47.2154284  66.1674786  38.0174804
  46.6149569  64.7865915  37.8639746  12.4477708   6.8067110  21.1000824
  11.9309711   6.4444351  20.3804255  12.5306559   7.7370650  20.8907914
  57.5805855  16.4439130  65.5977631  57.8299475  16.3013756  66.5108538
  58.1647158  17.1394753  65.2957392  24.1375542  24.5480657  48.5655451
  24.5565557  24.1912580  49.3487167  24.8532629  24.9496031  48.0728388
  44.8824215  77.0031404  25.7203817  44.4767809  76.8589830  26.5753102
  45.7323742  76.5672302  25.7819963  25.1874161  51.6970348  26.0636902
  24.3875170  51.2572289  25.7756519  25.0469279  52.6179409  25.8436394
  36.7968464   7.7586746   5.9878242  37.1423531   8.6402911   6.1278582
  36.7915916   7.3622996   6.8590826  21.4487815  45.4039335  13.1296921
  20.6039524  45.2291584  12.7150226  21.3168478  46.2237597  13.6058283
  29.9808645  77.1902657  23.1408429  30.6123948  76.8984699  23.7983060
  30.1878285  78.1146908  23.0036163  49.9560070   4.6845692  64.5042706
  50.6920958   5.2394199  64.2463064  49.5141554   5.1786286  65.1948547
  36.4318728  14.9637938  40.6869602  36.7777348  15.6146133  41.2977362
  35.4814339  15.0300574  40.7791948   0.7141885  17.9586196  49.7767735
   0.9185515  17.7856708  48.8577747   0.9862520  17.1642017  50.2362442
  77.0480061  18.1202495   0.7510031  76.9836712  19.0374553   0.4848721
  77.1315670  18.1526697   1.7039973  72.1575308  34.7572589  46.5748358
  71.5016985  34.1850019  46.1765480  72.9795933  34.5108104  46.1509180
  20.8967876  19.6687818   2.0964615  21.4799500  20.1968265   2.6417339
  21.0796213  19.9563622   1.2019777  29.4298577  20.9373379  63.5804701
  29.9342036  21.4877677  62.9813957  30.0861979  20.3935981  64.0161324
  78.4743643  49.1076994  48.8455486  78.6573887  48.9906788  47.9133224
  79.1025877  49.7708368  49.1315746  71.7423201   1.0579195  38.0021811
  71.4828682   0.1872475  38.3035898  70.9764719   1.6072819  38.1692410
  70.5301523  17.1173072  63.2552767  69.8341560  17.7097726  63.5395384
  70.1305389  16.5943742  62.5602341  75.0288916   3.6999419  21.1472511
  75.0777435   2.8077281  21.4904690  74.9927616   3.5894293  20.1971388
  78.2959270  38.6599660   9.0722704  79.2050838  38.9496183   8.9963377
  77.9040813  38.8766074   8.2262480  25.2543974  68.0837870  42.4466753
  24.9265742  67.2158432  42.2112322  25.3292346  68.0608797  43.4006691
  28.3484101   6.8011123   9.7779900  28.9681959   6.3042378  10.3120434
  28.6226916   7.7126515   9.8784733  71.3156128  40.7501841  12.6252258
  72.0733166  41.1663818  12.2142565  71.5017843  40.7868242  13.5634315
  51.8979359  73.1845379  63.5100222  51.1629820  73.2068396  64.1228676
  51.8075132  73.9883566  62.9982328  21.6466093  52.6765776  14.9085283
  21.4175582  53.5795546  14.6885252  21.8233371  52.6966667  15.8490586
  58.2827997  39.6825695   8.7132978  58.6951780  40.3026104   8.1118661
  58.7793732  39.7715974   9.5267582  38.6577344  41.1900806  66.2868834
  38.7378621  40.7763243  65.4274559  37.7198625  41.3526011  66.3879585
  45.3368092  69.9086237  55.5591440  46.2534189  69.9842644  55.2939320
  45.2381134  70.5478048  56.2647915  15.9986973  21.5425563  13.0805385
  16.7838359  21.1071515  13.4125173  16.3268423  22.3305082  12.6473141
  25.9918237  46.7003775   9.4379556  26.9402766  46.8033648   9.5158315
  25.7084799  47.4639606   8.9350760  21.3672566  11.2777555  16.7139840
  22.1389198  11.5928030  17.1846378  20.9144378  10.7175124  17.3443115
  72.5863171  76.4410257  50.5500317  72.5899553  75.4903936  50.4381323
  72.2096443  76.7765093  49.7365236  56.3337994   4.1743952  65.6180048
  56.2395144   3.3939728  66.1641598  55.9121275   4.8711115  66.1210060
  45.7647705  23.1509328  60.1028013  46.3248491  23.5086513  60.7917023
  45.4679489  22.3091173  60.4484558  14.3148911  24.9847555  13.5264814
  13.5369051  24.5072246  13.2384956  14.3282878  24.8699856  14.4766819
  19.1756737  73.2631063  23.2303858  18.4930897  72.5947762  23.1699824
  19.5772159  73.1185961  24.0871906  56.5323305  42.8247547  52.2441292
  55.8495951  42.9601002  52.9012299  57.3348522  42.7091265  52.7528763
  73.9239311  10.2116275  59.4139004  73.7281704   9.4877714  58.8189745
  74.8593473  10.1245940  59.5973539  70.4638243  48.7203264  53.1699324
  70.9988356  49.4975185  53.0087805  69.9066544  48.9622879  53.9096975
  32.7381277  66.2799501  30.0276256  32.3121548  66.9977045  29.5590019
  32.1649241  65.5268478  29.8844171  39.3393683  33.2401037   0.6940054
  38.8329554  33.9349985   1.1145969  38.6804461  32.6257110   0.3706260
   8.2649499  62.9149389   0.5114681   7.8725660  62.5654936  -0.2886284
   8.7399763  62.1743727   0.8884910  63.4678841  25.2389073  53.6592007
  63.5820055  25.0039887  52.7383232  63.4224510  24.3993473  54.1167021
  40.6237221  71.7129040  39.5485568  40.9657049  72.2535038  40.2606153
  41.3747406  71.1946964  39.2593169  22.1944118  67.4704647  51.1172247
  22.9804730  67.0693445  51.4879560  22.2512150  67.2866964  50.1795483
   5.9316623  29.5908093  16.4866126   6.4567077  29.0719724  15.8772135
   5.4104555  28.9450049  16.9635928  41.2817335  11.4113665  24.1431618
  40.5976820  11.8060470  24.6840286  40.8402872  10.6988466  23.6809158
  79.8421526  11.2332416   5.2333939  80.5408192  10.5789733   5.2281803
  79.4913769  11.2019801   6.1234570  53.0762625  59.9338531  46.6554594
  53.9510775  60.0365734  47.0301342  53.1580639  59.1921854  46.0558987
  56.0373735  66.3995552   3.6146331  55.7201338  66.1358595   2.7508873
  56.6770124  65.7275677   3.8502806  14.5658481   6.5690899  53.4544802
  14.6006250   7.1461624  54.2173767  13.8764632   5.9384286  53.6624384
  29.3525004  21.6502786  11.9642365  29.1654706  20.7213831  11.8285704
  29.5676541  21.9811344  11.0921836  59.5754385  17.2958434  50.3025150
  60.1140261  18.0859756  50.3455162  59.9718809  16.7008233  50.9389257
  72.9617071  49.3000031  44.5718861  73.1185389  49.2763042  45.5158520
  73.7871885  49.0088272  44.1845560  70.5879879  61.5438271  11.3092589
  70.1571560  62.1370506  10.6938696  71.1256456  60.9756088  10.7576418
  52.2322607  51.7931604  58.4309244  51.8332481  51.1705494  59.0386820
  52.0771456  51.4156294  57.5651026  41.7394114  77.0230675  44.5379925
  42.1346188  76.4315319  45.1784086  42.2941494  76.9413757  43.7622213
  21.1659193  39.3550229  67.4189711  21.5028834  38.8902640  68.1849241
  21.4718413  38.8398528  66.6724825   8.3529359  12.8927875  56.7884493
   8.1867945  13.6277544  57.3787451   9.2985821  12.7535915  56.8395329
  42.0891047  44.2957258  58.6055136  42.6705742  43.7359762  59.1200972
  41.3579607  43.7260532  58.3664846  11.6341519   3.6488849  56.9484091
  11.5621316   4.6026137  56.9864368  11.4454055   3.3586648  57.8408098
  20.7161355  60.7598114  14.2914653  20.6194353  59.8191690  14.4400561
  21.5580559  60.8463573  13.8443518  33.2526278  68.8417292   2.5732666
  32.9835510  69.4976091   1.9301102  33.7592983  69.3336630   3.2194221
  63.4448338   3.3647445  63.5467529  63.3858919   2.4169719  63.6671066
  63.6898756   3.4747317  62.6280117  51.6190863  71.9075966  31.3952732
  50.7738400  71.4871550  31.2371039  52.2267389  71.1804485  31.5303469
  81.0190582  26.3981843  13.0880356  80.9953785  26.9669771  13.8575459
  81.6808128  26.7919159  12.5194430  20.1950955   8.3114427  64.7300577
  20.4390502   9.1292185  65.1636028  20.2091265   8.5218984  63.7963867
  49.5609999   5.1878601  35.4577589  49.6412086   5.2940267  34.5098519
  48.8775587   4.5267713  35.5677462  12.8403103  56.9563389  22.1998715
  13.7507558  57.2428226  22.2723103  12.3387671  57.7683687  22.1271253
  77.6354504  25.5303168  51.0146189  77.9400539  26.3903046  51.3042164
  78.2242250  25.2968717  50.2969265   5.6816852  65.7254553  11.5881169
   5.9333658  65.6092262  12.5042939   6.4785862  65.5319548  11.0944176
  73.0757618  55.9476233  65.3964853  72.4129868  56.4750624  65.8423185
  72.7806282  55.9111595  64.4866514  64.7336912  12.1948326  30.6167459
  63.9473200  12.6356959  30.9384370  64.4221449  11.3437128  30.3089070
   2.5420117  57.9796934  19.4971573   1.6726559  57.8566742  19.1159523
   3.1377980  57.9530430  18.7484515  24.7394919  65.4894972  42.0268869
  25.2555656  64.9319315  42.6091433  24.4795084  64.9111986  41.3098001
  75.6827784  73.4778404  35.9030652  76.5292120  73.7374640  36.2669063
  75.0790453  73.5241604  36.6444111   7.4389964  28.2934809  29.3073606
   6.7850119  27.7596474  28.8561869   6.9667780  28.6767387  30.0465178
  81.1326790  40.7915020  46.5316439  80.9276390  41.3590240  47.2746849
  80.5784035  41.1163092  45.8220625  30.3234434  39.5603585   0.1469491
  29.5265436  39.8492765   0.5915941  30.1013017  38.6993170  -0.2072972
  15.6041443  52.3236609  54.0939093  15.4402018  52.5590134  53.1806946
  16.5232444  52.5488806  54.2379999  35.2436566  77.7832031  61.6953468
  35.7126975  77.4215364  60.9433985  34.3706584  77.9850054  61.3586283
  78.7253809  37.3810482  11.4373171  78.4692717  38.1016922  10.8617210
  79.2037773  36.7782688  10.8680832  29.7962523  30.7754803  51.3413048
  28.9853120  30.5868864  50.8690357  30.2031755  31.4853239  50.8445501
  29.3313789  43.2666683   3.9763325  28.8376093  43.5695648   4.7383535
  30.2486062  43.3891249   4.2211366   4.3211028  62.8479338  59.2447948
   3.9032304  63.3391666  59.9521160   4.2267072  63.4091377  58.4751415
  26.9494009  30.1098561   1.9063519  26.8053246  29.1659260   1.8395033
  27.3394537  30.3526688   1.0666306  69.6625710  46.0069513  39.8610115
  69.8207903  46.8390274  40.3069353  69.6676111  45.3549194  40.5617666
  33.6344385  13.9171767   2.7746323  33.7040305  13.5535371   1.8919346
  32.7431798  14.2631364   2.8215700  77.0643568   1.3167332  40.1341295
  76.1597586   1.5621836  40.3282642  77.2629452   0.6198882  40.7595921
  81.0136032  75.1147604  52.0037508  81.2344170  75.2460909  52.9258251
  80.6498718  75.9543467  51.7226362  36.6888237   4.1629606  54.5401096
  36.8515277   4.9217573  55.1004505  36.6823053   3.4182033  55.1413774
  17.6234341  48.4923410   2.1344544  17.6301992  49.3724251   1.7581111
  18.4151149  48.0786562   1.7904538  23.3244014  68.7313414  45.9318733
  24.1842532  69.1403103  45.8337259  22.7059293  69.4010115  45.6398678
  32.5268531  38.3597517  11.1181796  32.3095202  38.6595631  12.0008528
  33.3592558  38.7878442  10.9179926  33.9121914  32.5442696   7.7248973
  33.8757539  33.3114910   7.1536911  33.0359793  32.4875998   8.1060386
   8.1984407  40.0153065  12.8892541   8.3072561  40.8986235  13.2415855
   7.5863552  39.5912528  13.4907222  66.0958576  13.9747965  21.0709643
  65.8787012  14.2112732  20.1692128  65.8155823  14.7284126  21.5903282
   2.4288394   3.1914222   9.4341046   2.0410423   3.2244360  10.3086078
   2.7605647   4.0769398   9.2856169   0.0442727  12.8871787  60.0756359
   0.6941350  13.0727684  59.3977880  -0.6389014  12.3922467  59.6233702
  27.8655791  10.6136107  45.2778006  27.2105122  10.6437790  45.9750843
  28.1275678  11.5261209  45.1556540  25.1873207  41.1010218  47.2254944
  24.3733120  40.6308413  47.4059105  24.9206734  42.0159817  47.1361685
  34.2073250   6.8299657  53.5933971  33.4682679   7.3455596  53.2706118
  33.8033962   6.0859478  54.0400600  44.4255829  31.0258508  66.3238859
  43.8263559  31.7720532  66.3054991  43.9701319  30.3657460  66.8464375
  63.5529041  65.9446144  36.1355186  62.6987553  66.0093784  36.5626860
  64.1843319  66.1013365  36.8376350  35.6298351  30.5152798   3.4973830
  35.7686067  30.4069376   4.4382530  35.0725818  29.7770739   3.2509002
  38.8898635  73.6189127  61.3962984  39.0586233  74.4417763  60.9373379
  38.2244849  73.1807995  60.8656788   4.9976227  20.7565546  44.4308281
   5.7769310  20.2254128  44.2671299   5.2029729  21.2435174  45.2289104
  14.0440321  20.3846788  43.1059694  14.2342794  21.2890267  43.3553505
  14.0582573  19.9005115  43.9315653  11.0841084  37.1482396  36.2274933
  11.0665703  38.0345774  35.8664823  11.3020670  36.5899110  35.4811716
  36.0344672  28.8226199  47.7383661  35.7334614  29.5113325  48.3310747
  36.5723538  29.2806435  47.0925140  68.7389088  75.5169249  23.7716317
  68.2267666  76.1742306  23.3005881  69.3606186  75.1874685  23.1226540
  68.8499165  36.3856673  17.0715725  68.5427523  37.0054317  16.4099276
  69.7769642  36.5956330  17.1843767  46.9756651   7.4047846  43.9092302
  46.4972019   7.2025007  44.7132158  46.3059807   7.4038488  43.2253027
  22.3955679  12.8588951  65.8852911  21.8331528  13.3728528  66.4647436
  23.0438828  12.4645019  66.4687061  78.4870529  21.0752940  17.6682699
  78.8386011  20.4558539  17.0287859  77.5429010  21.0721421  17.5107968
  64.8986149  64.8100090  54.2461300  64.3088198  64.4904757  53.5632849
  64.5261145  65.6513691  54.5099068  78.6064196  68.6005592  40.5443954
  79.4308043  68.9135313  40.9167814  78.5234642  69.0724754  39.7157574
  63.3897018  76.7009592  16.5711677  62.8903294  77.5170088  16.5407073
  63.4819269  76.5113068  17.5048470  17.1024168   4.0287548  40.7305241
  16.6912019   3.1729004  40.6094980  16.6980195   4.3786630  41.5244150
   9.7901165  23.1505537  53.2103825  10.0211215  22.5491858  52.5024080
   9.1289419  22.6801062  53.7180805  24.6615839  29.8096848   6.0657561
  24.7698021  28.9849257   5.5921590  25.5370641  30.1965404   6.0761923
  30.8872724  25.2680707  30.7010603  30.0443316  25.5396581  31.0642743
  30.8352733  25.5019259  29.7743225  28.0902338  29.2815995  61.0375500
  27.1815085  29.0588570  60.8354759  28.5122776  28.4386206  61.2033701
  30.0736427  38.5707784  59.6788883  30.6312275  37.8097391  59.5171738
  29.3489814  38.4723234  59.0613127   4.0407974  75.8961439  31.0383058
   3.6656183  75.9286690  30.1582980   3.3802131  75.4447651  31.5637755
  53.6061382  62.0161581  29.5428443  54.0071011  62.5554466  28.8612080
  54.2704153  61.3587999  29.7498536  25.7707930  14.6301901  36.5185738
  25.2976608  15.3675497  36.1329842  26.5761638  14.5675170  36.0050726
   0.7543352   6.0630107  62.5781107   0.9264080   6.5380871  63.3910799
   0.8009608   5.1396024  62.8258467  41.7736006   2.1641724  60.3736401
  41.9505119   2.0177402  61.3028860  40.8504486   1.9349392  60.2665472
  22.2445750  19.8502123  59.1878557  22.7969003  19.5806074  59.9216700
  22.0030022  20.7542348  59.3893957  22.6868534  17.6427257   2.5387701
  22.0042634  18.2845998   2.7344722  22.9072714  17.2609067   3.3883950
  28.0686069  44.8099995   8.4060496  29.0246892  44.7637320   8.4050757
  27.8066063  44.3344212   9.1943467  45.7003641  61.8532705  43.1561089
  46.4682102  62.3877335  43.3585835  45.0269890  62.4862051  42.9067373
  16.2236702  11.3399100  60.0169039  16.2137115  11.6526532  60.9215164
  15.7722867  12.0237494  59.5220804  78.6159945  45.1319265  55.5933905
  78.4545231  44.1885090  55.6044722  77.9651070  45.4934072  56.1949825
  67.0909071  45.7810020  42.2583437  66.6397381  46.5623522  42.5779819
  67.9320049  45.7863379  42.7152443  59.3778515  36.2845778  13.3245873
  59.3034029  36.3293672  12.3713386  59.5865393  37.1799970  13.5908663
  22.3427749  53.4331131  27.0717120  22.6388931  53.6471081  26.1869788
  22.4741340  54.2398071  27.5699258  41.9866991  38.8325024  15.4010463
  41.0626364  39.0785432  15.4434371  42.2391891  39.0052557  14.4940531
  59.4150019  53.9061403  50.8405495  58.5954094  53.4154320  50.9014368
  60.0495195  53.2720995  50.5064726  52.5288248  30.9230638  24.0508270
  52.2808695  30.1204777  23.5919070  52.2720432  31.6279697  23.4563518
  77.3433304  18.6434639  30.7618737  77.9843903  18.9240587  31.4149737
  77.8466511  18.5620630  29.9517679  31.4059186  62.9330254   0.4883988
  31.1151624  62.0570374   0.2347499  32.0664454  63.1645632  -0.1645381
   2.5749692  11.7026019  44.8478031   2.9803655  12.5696492  44.8371363
   2.2021483  11.6233003  45.7258368  81.2261391  26.8979597  39.6349525
  82.0871544  26.6054630  39.9338174  81.4072418  27.6758671  39.1074181
  11.0046232   4.4362417  47.8487444  10.5140126   5.2259874  48.0764198
  10.9491849   3.8862270  48.6301851  41.5156269  46.8645144  10.9267676
  42.0242500  47.6467371  11.1404574  42.0161343  46.4355993  10.2326834
  46.5668821  12.9912150  40.8568096  46.4718151  13.1039119  41.8025875
  47.4453497  13.3186769  40.6636858  56.3559580  60.8376360   2.9164177
  56.1159992  61.3390350   3.6956814  57.3058271  60.7374525   2.9791725
  68.7342310  76.9239902  49.2423916  68.3697748  77.7752399  49.4848347
  68.4725094  76.3399029  49.9541378  58.5581064  48.8121939   7.9609627
  57.7397442  49.3080711   7.9858106  58.3100367  47.9582071   7.6068455
  20.4891372  14.4712615  51.8664503  21.3176084  14.9284375  52.0108747
  19.9551916  15.0934339  51.3724518  10.7771242  21.5915179  50.9168100
  11.5562201  21.5963078  50.3607368  10.1458848  22.1386003  50.4493999
  80.5432987  19.6455526  57.4518728  81.2060928  20.0695562  56.9067430
  80.0560188  20.3703046  57.8436947  15.2097690  32.1603060  36.4921927
  14.4724536  31.8245602  37.0019698  15.9677982  31.6765618  36.8202376
   8.6770386  40.4631281  30.5949068   8.0207318  39.8412061  30.2807355
   8.7993002  40.2369690  31.5169358  12.4867690  21.6699362  55.3551579
  11.6304612  21.2544298  55.4567528  12.9620457  21.4372396  56.1527729
  75.8985329  75.2634287   3.8558587  75.1723051  75.5889559   3.3240163
  75.5974340  75.3629637   4.7589999  66.1002731  17.9454541  48.8831902
  65.6833410  18.5815132  49.4644213  65.4417896  17.7668726  48.2118225
   6.1375886  30.6063795  12.1730745   5.3329778  30.2161121  11.8317199
   6.8408978  30.1123786  11.7517054  48.3306885  45.4290199   7.4919200
  48.3078814  44.7178125   8.1321549  47.4613762  45.8262587   7.5441366
  41.3000774  42.1961451   0.3340067  41.5238333  42.8635550   0.9826452
  42.0380259  41.5868044   0.3529686  22.9739165  17.0667183  10.5282974
  23.5215878  16.3452411  10.8377469  22.1189833  16.9069612  10.9280431
  39.7745180  31.3437819  16.2962866  39.9470448  30.6122994  16.8890750
  40.6137180  31.7989349  16.2269378   2.4495940  40.5434704  48.1448650
   3.3702028  40.6109858  47.8915787   2.4411011  39.8910737  48.8452482
  16.3417518  71.7608118  42.0927048  16.2641025  71.2048578  41.3173866
  16.3625669  72.6529932  41.7465639  78.6346531  35.2987218  26.8629193
  79.1858339  35.3305840  27.6448488  79.2175627  35.5553603  26.1483693
  21.6414547  61.1175442  34.6276951  22.1337056  61.6562891  35.2471066
  21.1195207  60.5347729  35.1792359  71.6338348  15.5503750  15.1214135
  72.1581507  14.7903252  15.3737044  71.2668419  15.8721673  15.9448195
   6.2181765  42.8335857  52.3310328   6.8028456  43.0734205  53.0499744
   6.3132977  41.8844557  52.2514153  20.0974870  27.2737312  36.1030674
  19.9763882  27.6178336  36.9880319  21.0290527  27.3995566  35.9225559
   6.4440387  57.5188446  47.5713778   6.6113955  57.5733948  48.5122538
   5.5136824  57.3035479  47.5056744  49.7486305   1.1009836  39.9108911
  49.2291212   1.1096418  39.1069818  49.7069550   2.0015001  40.2327061
  22.0231748  70.6345272  44.4401836  21.3897038  70.1977777  43.8707972
  21.6640735  71.5124178  44.5689631  44.3729210  26.6670775  47.8910637
  45.0867701  26.9605303  48.4572220  43.7796926  26.1975622  48.4774685
  42.5141859  36.2196374  67.6471949  43.2018900  36.4755154  67.0325232
  41.8001938  35.9073925  67.0913601  80.7866287  76.5969801  62.1956730
  80.0894356  76.4275217  62.8292656  80.9256363  77.5430059  62.2398186
  52.4048805  61.6595459  38.2733464  52.1327162  61.7060375  37.3568320
  53.2380724  62.1299839  38.2999325   6.6662741  27.3250532  47.0572519
   7.5130606  27.2126865  46.6253281   6.3710773  26.4333034  47.2413015
  67.7113581  19.6567023  35.8218312  66.7580462  19.6111238  35.7487226
  67.9471254  18.8983452  36.3561893  12.6011181   3.3377689  18.9383352
  13.2581902   4.0145582  18.7757158  12.4494898   3.3731651  19.8827863
  68.8978195  76.1287069  26.4769769  69.1251183  75.3004885  26.8996167
  69.1488504  76.0071516  25.5613136   5.2215075  75.2374697  45.6730461
   4.3695503  75.6703186  45.7281923   5.8058381  75.7920647  46.1899710
  64.9638224   5.0940514  52.2109938  65.6377888   4.5930883  51.7516088
  64.1376877   4.7124192  51.9141960  62.1044493  22.6329303   5.4929304
  62.3472834  21.8444061   5.0076562  62.7548409  23.2848001   5.2316040
  26.9496584  11.3721752  65.5729532  26.6930676  11.0649383  66.4424372
  27.1863103  10.5757177  65.0976801  16.6032445  22.7358198  53.4924984
  17.5535059  22.6474094  53.4188747  16.3643014  22.1575117  54.2168617
  41.8198919  50.9492779   0.9691364  41.2429762  50.3989267   1.4987725
  41.6125965  50.7130480   0.0650034  79.0597725  71.3253593  64.2348814
  79.2580318  71.9030476  64.9719048  79.5178509  70.5101871  64.4395399
  16.4966810   6.2898374  66.6910172  15.9248221   6.3842010  67.4527931
  16.1652887   6.9306469  66.0619068   3.5371745  24.2528868  47.6217031
   3.9706728  23.4828663  47.2537661   2.6172274  23.9983892  47.6935482
  38.5326290  22.7069926   2.8265220  39.0733027  23.2426262   2.2460026
  39.1292167  22.4308062   3.5222512  27.7877855  76.2375784  -0.0794104
  27.8510809  76.1485958   0.8715408  26.8486738  76.3057899  -0.2516046
  27.6153946  62.2710657  27.9706097  26.9536996  62.8834391  27.6490641
  28.0724812  62.7526283  28.6601043  20.6308866   8.2293844  51.2695742
  21.4479899   8.1552029  51.7625999  20.5665374   9.1590935  51.0510969
  55.9837914  38.8198519   1.0416298  55.2408266  38.8221598   1.6451457
  56.1525822  37.8928494   0.8730903  49.5642853   6.5966040  10.9075177
  50.2480793   6.7174518  11.5663433  49.3859673   5.6562096  10.9171081
  40.9191847   9.0630162  46.0204506  40.8384418   8.1653887  46.3429070
  41.7407656   9.0680885  45.5293179  13.6158466  69.1697741   9.8140293
  14.2632735  69.2739582  10.5113220  14.1319144  68.9461803   9.0394896
  34.3348312  26.7556787  40.3261375  34.7060752  27.2443271  41.0607338
  34.3907237  27.3585677  39.5847654  29.2804337  34.3653870  48.3657408
  28.4415913  34.5519447  47.9441118  29.9275732  34.8113036  47.8192949
  76.1451006  10.8123362  38.1907034  76.9282293  10.2842271  38.0356431
  76.4554310  11.7171299  38.1549716  37.9797387  33.6158872  37.7806354
  37.0765257  33.3029318  37.8305697  38.2178974  33.8059020  38.6880517
  40.2087259  62.2464180   3.1952104  40.1942158  63.0079079   3.7750024
  40.9396648  61.7167807   3.5137039  -0.0139651   3.3839774  23.3422232
  -0.5314077   3.3563212  24.1470337   0.7250226   2.7998841  23.5124111
  64.5195150  23.9301610  51.4690828  65.3987026  23.5915732  51.6382504
  64.5443726  24.2154670  50.5557299  18.6900997   8.2652169  53.2753181
  19.2050087   8.6527812  53.9830542  19.1511345   8.5204035  52.4762154
  25.5683589  28.4201002  60.1361179  24.6518135  28.6493278  60.2898359
  25.5332041  27.7067161  59.4988728  61.8968105  68.0565786  37.6858234
  62.4484205  67.7894735  38.4210873  61.4629269  67.2503281  37.4066401
  14.4169641  39.2263222  23.1727505  14.7583330  40.0932884  23.3920026
  14.0105033  39.3392229  22.3135209  50.9751749  15.8997667  57.2988033
  51.7941236  16.0858035  57.7580881  50.3836107  15.5845690  57.9821301
   7.8294945  11.9299650  27.2915816   7.3820561  11.4712667  26.5805054
   7.9659307  12.8161514  26.9564843  31.4925623  13.8141620  53.0379248
  31.5457845  14.6434283  53.5130215  30.6533074  13.4388661  53.3044529
  34.0592623  46.2352943  63.1111240  34.5457840  45.4705000  62.8035116
  33.5073113  45.8998060  63.8175440  33.5675883  49.2970943   6.2560105
  34.1804004  48.6661339   5.8784086  33.8124251  50.1342249   5.8616817
  13.0058360  30.5178213  67.1407938  12.8181446  29.9579215  66.3874531
  13.5613835  31.2136745  66.7895317  65.8512688  69.7064114  37.1261430
  66.1421490  70.2309179  36.3801408  65.1383018  70.2147150  37.5128436
  10.4768622  33.8417697  48.8858700  11.3362682  34.2496252  48.7795305
  10.4142725  33.2220411  48.1590652  29.1415739   3.5913879   8.2402062
  28.3116627   3.8505247   8.6406142  29.4671679   4.3902689   7.8254670
  63.3035898  12.6426494  55.0687885  64.1734982  12.5897312  54.6729469
  62.8923464  11.8048406  54.8562145  27.5445151  24.7115016  45.4296017
  27.7588344  24.8850560  44.5129871  27.4568009  23.7596107  45.4789782
  32.9510880  37.0108461   8.1199521  32.2699165  36.9871998   8.7920213
  33.7439585  36.7227983   8.5723001  29.7592139  40.5707169  28.2162786
  29.9518991  41.4934921  28.3823681  29.5279741  40.5376291  27.2880197
  72.1468496  65.5852175   2.9441932  71.8773746  66.4681578   3.1972384
  71.9935417  65.0547028   3.7260360   8.0226153  15.1846993  66.3607121
   7.0733321  15.0833988  66.2912035   8.3611459  14.2895973  66.3401985
  70.7502937  60.0574875   0.3866543  70.6974983  60.0495481  -0.5690556
  69.9989223  59.5378304   0.6723627  71.5653324  56.4962482  14.5157456
  71.1412573  57.0910072  13.8971519  70.8406162  56.0599661  14.9637127
  73.6923075  23.9769220  39.4322419  74.1556263  24.1995263  38.6247659
  74.0994167  23.1615686  39.7249794  22.5930452  38.8420963   4.6042967
  22.1892738  39.5197344   5.1465213  22.0315385  38.0757427   4.7210899
  39.2682576  15.3458071  33.3783245  39.9398875  14.7085094  33.6212182
  38.8578725  15.5893052  34.2080998  27.2782612  10.9892988  50.0656176
  27.1098828  11.8989611  49.8198652  27.2823024  10.9966040  51.0227823
  36.9705796  34.5552444  47.6339769  36.5892124  34.3974996  46.7703199
  36.3609552  35.1589799  48.0583525  43.1325579  30.7772970  47.0318413
  42.7858019  30.3466773  47.8132248  43.4328127  30.0585222  46.4755678
   8.8412893  17.3969138  59.9440908   9.3228137  17.8048706  60.6637716
   8.9411157  16.4564681  60.0918388  16.8439960  18.6254263  64.3231821
  16.6036844  18.1746781  65.1326942  17.7881527  18.4891009  64.2443466
  48.3896303  20.7352281  14.9538791  49.1883135  20.2337599  15.1177895
  48.6675882  21.6500425  14.9995911  12.8628504   5.4857719  12.2612524
  12.5219238   6.0209244  11.5445852  12.2348690   5.6102663  12.9728520
  45.4523659  60.2388191  59.8883772  45.7230282  60.5915594  59.0407085
  45.6715870  59.3082380  59.8415899  66.9656658  70.4698515   2.3135257
  67.7133274  69.8799658   2.4098070  66.6640997  70.6224537   3.2090724
  41.8865204  57.5873470   3.8105568  42.8270769  57.5072527   3.9691964
  41.7454624  57.1402836   2.9760087  54.8093843   6.6467899  33.7531495
  53.8523960   6.6662472  33.7480640  55.0554466   7.1663290  34.5185018
  26.5408969  71.7700768  65.3658390  26.3984752  71.6435814  66.3038921
  27.3270464  72.3136997  65.3141022  71.5110731  36.6141486  28.2467008
  71.7292070  36.8346763  27.3411512  70.6774569  37.0565128  28.4067941
   8.0922741   8.7875247  14.8487484   7.1493465   8.6969560  14.7112095
   8.1824911   9.5831656  15.3731990   9.7440058  64.1331816  60.4083633
   8.9232486  63.8734245  60.8268309   9.5100754  64.8905706  59.8718214
   1.9655092  41.5757084  19.5928681   2.5193378  42.3533154  19.5233619
   2.3191424  41.0959625  20.3418827  81.7244816  77.0024633  21.3473511
  81.3639641  77.2783136  20.5046415  81.8707371  77.8194141  21.8242526
   2.1854317   0.6047571   8.3807164   2.3184729   1.4179447   8.8678074
   2.6694000   0.7323750   7.5647992  28.1829476  15.2473879  51.9402742
  27.4501538  15.7989776  52.2141266  28.9595485  15.7829237  52.1025229
  19.7377658   4.5068127  35.6442189  19.5443296   5.4429710  35.5950141
  20.1504302   4.3921810  36.5002561  15.4531443  26.5267825  58.8088655
  14.7861612  27.2123694  58.8454103  15.9263909  26.6962075  57.9942703
  65.1431274  75.8780861  52.0931721  64.4328451  76.4365101  51.7771149
  64.8563194  74.9877501  51.8899965  40.8630323  34.8154998  44.8515606
  40.1912069  34.2902088  44.4168758  41.5282726  34.9582720  44.1782808
  38.4485602  13.5700929  64.4325781  38.9226913  14.3981910  64.3571758
  37.7188969  13.7645721  65.0207949  21.9087100  11.6707897   6.3154340
  21.7901635  11.3626230   5.4169840  22.8211379  11.9578242   6.3517642
  22.2044969  45.1004314  49.9141788  22.7879333  44.3695784  50.1183605
  22.7650404  45.8748722  49.9617004   4.9984899  61.8650246  37.1068811
   5.2086842  62.1582937  37.9934740   5.8492327  61.6909647  36.7041755
   1.5304527  27.0168543  55.4494333   2.2305313  26.9290876  54.8025799
   1.6676833  26.2855601  56.0516024  35.3667736   3.6004063  30.5054784
  35.1561093   4.4931850  30.7789731  35.4840231   3.6616936  29.5574665
  55.1883888  16.3044906  47.5023890  55.7505035  16.3753295  48.2739067
  54.8816204  15.3978300  47.5119877  41.7919302  61.2346888   7.0675635
  41.0929918  61.4970493   7.6666367  42.3642921  62.0002651   7.0173663
  49.3258142   9.2462379  59.1545582  48.4510899   9.3136549  58.7717485
  49.3327904   8.3923900  59.5871401   7.1385813  70.6950712  25.2262712
   7.0307064  71.3449097  25.9207535   6.4504582  70.9033823  24.5943499
   4.3650877   8.1059623   8.5914111   4.6675751   8.7326717   7.9341680
   4.1556045   8.6427951   9.3557143  24.4781017  47.8202581  57.0858622
  23.9778709  47.0907784  56.7200041  24.6282077  48.4043932  56.3425684
  42.7552509  35.2774000  35.1971269  42.6376200  34.4836974  35.7190776
  42.0873690  35.2161217  34.5141840   1.9005370   0.4156609  33.1742239
   1.2833340   1.1445628  33.2374215   1.6342826  -0.1846970  33.8705802
  14.4475746  31.9056320  28.5258579  14.6390700  30.9755135  28.4056807
  13.5993242  31.9202042  28.9691305   2.1702343  52.8677750   6.0955596
   1.7654489  53.0902338   5.2571720   1.9704959  53.6123180   6.6630059
  61.5042591  57.5344896  58.9676666  61.2605333  56.6162968  59.0849447
  62.1284103  57.7084970  59.6722126  72.2645950  12.3203778  64.0809822
  72.4000740  13.2642853  64.1641426  73.1359053  11.9684899  63.8987160
  52.7874613   2.3349658  65.1603079  52.6941490   2.6284042  64.2539883
  53.7257910   2.4002820  65.3378010  25.3437232  70.7733000   0.0037199
  25.3440856  71.0917438   0.9063965  26.1496924  71.1247839  -0.3745789
  12.9205239  60.6042719  53.0415058  13.1431293  60.3774500  52.1386051
  12.9725254  59.7749186  53.5165882  82.6292400   3.8678780  48.2985544
  81.8007238   3.5011575  47.9898357  83.2626688   3.1596959  48.1824636
   8.2093889  12.3512900  19.6332884   7.8488046  11.5713406  19.2115188
   8.2139385  13.0157232  18.9442742  17.8467739   8.7024075   5.2496868
  17.3577452   8.9475119   4.4641894  18.4488499   9.4323194   5.3944772
  44.1737938  15.9182382  55.5359650  45.0904560  15.6531644  55.4604959
  43.7612247  15.5830503  54.7399330  40.5406952  30.5265903  66.5242577
  41.3019609  30.1006103  66.9182777  39.8212433  30.3357267  67.1260834
  66.3991117  22.8923202  62.4705744  65.9708977  23.4528136  63.1176519
  66.1256361  23.2496858  61.6257477  23.6460018  76.9448376   3.6292535
  22.8088593  77.4011135   3.5441899  24.0973949  77.4027443   4.3383339
  27.5563240  19.6479702  59.8320961  26.6477132  19.7553873  60.1133776
  27.6850319  18.7001991  59.7947359  29.1474557  19.2888010  47.4685192
  28.7496066  20.1524830  47.3589611  30.0391579  19.3919528  47.1361637
  29.6892190  12.3135900  42.7085972  28.9807987  12.7034724  42.1963835
  29.4004011  12.3949325  43.6175489  48.0714178  26.5453601  47.8359509
  47.6252079  26.3900018  48.6684132  48.5834932  25.7505417  47.6867008
  18.8625991  19.2433786  49.7473669  18.1933939  19.2746234  49.0636826
  18.9887667  20.1577044  50.0009871  53.5781670  28.0712628  57.0212317
  54.0440702  27.4971509  57.6291513  53.6754227  27.6468706  56.1687851
  60.5849934  57.5445700   5.4084510  59.8684168  56.9314528   5.5722749
  60.8392000  57.3788261   4.5006302  23.3938909  46.3428259   6.8605572
  22.5186539  46.0598373   7.1253335  23.2691550  47.2343683   6.5352380
  23.6899018  40.3622055  40.6997633  24.0651441  40.7054710  39.8888421
  22.7869129  40.6797552  40.6990576  52.1118927  30.8101392   5.9531730
  53.0660152  30.7635570   6.0141230  51.8218470  29.9018884   6.0379589
   1.3590558  33.5796428  45.6153011   1.0271581  32.6818323  45.6176853
   0.9135850  33.9977241  44.8784208  29.7108054  21.5353942  27.5507307
  29.4777179  21.9378495  26.7141104  28.9530373  21.6959047  28.1130958
  12.9992580  11.9765484  33.8241816  13.4176171  12.5228810  33.1588030
  12.4353540  11.3837063  33.3274078  38.1826019   8.9870739  28.6644506
  38.0812263   9.0951490  29.6101117  39.1158056   9.1291851  28.5058165
  40.5315495  18.3958399  30.0985360  40.0812578  19.1692996  29.7590828
  40.9118414  18.6848783  30.9280324  35.0572848  75.8898544  58.2749510
  34.9336982  76.8217468  58.0945730  34.4885349  75.4465675  57.6454639
  11.4042103  28.0113029  44.1917086  11.8338001  27.4679780  43.5310411
  11.1617851  28.8104343  43.7238932  39.8627043   6.7346990  57.4587154
  39.9400544   5.7820576  57.5108910  39.4716978   6.8965864  56.6001463
   3.5666946  18.0568552  44.0189028   3.4374294  18.7489140  44.6674204
   2.6813409  17.7702475  43.7947655  71.7334223  52.4990892   2.5056636
  71.5334558  51.6147184   2.8124851  70.9811449  53.0235767   2.7799341
   9.9255425  75.6432867  55.1546288   9.2535686  75.4042721  54.5162296
   9.5473456  75.4050016  56.0010433  34.7812724   4.5766947  37.7258992
  35.2994442   5.2380282  38.1845593  34.9542761   4.7377694  36.7983460
   5.3241295  22.8431225  63.3446407   5.1817650  23.1289029  62.4422598
   5.8752799  23.5254836  63.7278509  40.0584984  21.5306973  19.2639661
  40.2144003  20.6023955  19.0902460  39.9712324  21.5849161  20.2156377
   3.5998964  14.2540896   5.8820271   3.1354740  14.5249343   6.6739786
   3.2884565  14.8543715   5.2046067  23.3018064  75.5037498  12.4319398
  23.4200048  75.8091402  13.3313835  24.1914630  75.4172611  12.0895028
  71.0690212   3.1859392  59.7362328  70.9059238   3.6247945  58.9013481
  70.8810616   2.2635555  59.5627069  35.6845164   5.7315558  43.1432390
  35.0341105   6.0007751  43.7918711  36.4164591   6.3344908  43.2734776
  62.0263624  11.7913795  66.6392374  61.2538242  11.6155446  66.1021137
  61.8879080  11.2760484  67.4339056   0.2388224  74.5191813  49.6916771
   0.0513952  74.7884607  50.5908918   0.9023814  73.8349771  49.7799158
  64.7129917  69.2523146  66.4361382  63.9848804  68.6311293  66.4505482
  64.3282175  70.0647688  66.1073542  17.6191747  21.1525464  43.5420561
  17.0433998  20.4314089  43.7963676  18.2648444  20.7501006  42.9612112
  74.3166161  24.6047616  56.8282366  74.6205235  23.6999583  56.7560959
  74.1030264  24.8580074  55.9301996  30.3989959  24.3002009  66.5473700
  30.1684690  23.3815479  66.6858006  29.8810673  24.5651960  65.7872677
  51.7805195  16.6323423  44.8686171  52.1680546  15.8293676  45.2168703
  52.2866249  16.8191946  44.0779352  22.1408129  77.5139093  66.6779137
  22.1591067  78.1069851  65.9268093  21.5844560  76.7877293  66.3962030
  13.5684633  47.9596567  45.1446915  14.1086078  47.1742344  45.2318001
  13.0430925  47.8032207  44.3599939  59.9055481  28.5697389  14.9544907
  59.3299341  29.1388798  14.4436276  60.4452610  29.1722012  15.4663312
  56.7001343  17.0055187  57.3519039  57.2844410  17.6909864  57.6758671
  57.1680927  16.1891758  57.5274944  56.3266039  61.7757702  65.7787561
  56.8840408  61.8090343  65.0013304  56.7039204  62.4253321  66.3719940
  30.0963020  20.9762025  34.4187975  30.8176351  21.1529112  35.0226903
  30.5192947  20.8592272  33.5681343  70.9960270  64.0743542   5.5887276
  70.3533077  63.3654499   5.6131709  70.4939651  64.8436737   5.3198195
  30.4601765  50.0734472   1.2410562  31.1492014  49.4162607   1.1431938
  30.0934505  50.1687050   0.3620389  40.4729843  72.2125244  15.4589355
  40.7043362  73.1121397  15.2278519  40.5305958  72.1882153  16.4140916
  23.0350947  49.4428682  60.1202202  23.7087584  49.4178581  59.4406700
  23.2776284  48.7407160  60.7238674  77.3857927  67.1356249   9.2116815
  77.0701218  68.0351925   9.1258901  78.1033754  67.1927452   9.8425865
  63.7689161   6.2762338  28.9511251  64.6846342   6.3632107  29.2159510
  63.8092756   6.0251611  28.0283213  65.1122046  76.6824293  47.8885937
  64.8320818  77.1156025  48.6948967  64.5529890  77.0576906  47.2083807
  23.1833553  24.0731144  43.9039278  22.3969960  24.0497541  43.3586502
  22.9431510  23.5852766  44.6916771  26.4322090   2.1512090  65.8768940
  25.6056118   2.5367075  66.1673403  27.0458627   2.3367761  66.5876913
  42.7916908  26.7678857  62.0586252  42.3185444  26.0299492  62.4430895
  42.2181797  27.5207925  62.2016287  31.5128970   3.6792094  39.6371460
  32.3605442   3.9357153  40.0003672  31.6090178   3.8046080  38.6930752
  38.1461620  72.8301573  11.1730409  37.7720118  72.0540237  10.7560754
  39.0792298  72.7882528  10.9636068  32.1587873  27.2118902  22.0773697
  32.8535938  26.7328763  22.5290585  32.3776126  28.1340837  22.2111821
  24.6051908  34.2805648  15.8480275  24.5251846  35.2342510  15.8303988
  24.5853567  34.0214777  14.9267709  58.9929104   6.8036294   2.9042578
  59.0905571   5.8894616   2.6378095  58.0468655   6.9349903   2.9672971
   7.6491386   5.5292761  41.2522840   7.7267814   5.6755263  40.3095150
   6.7391956   5.2605367  41.3788319  41.8735170  47.9826641  66.8595076
  41.6556120  48.4433079  66.0492229  42.4457312  48.5871220  67.3321962
   7.6910239  22.0646429  54.3307686   7.4782264  21.9962764  53.4000254
   7.4595791  21.2093210  54.6928310  79.5839834  53.9613247  56.8562126
  79.9449396  53.4068298  57.5479317  80.3163719  54.1034317  56.2565088
  81.9902706  24.4660521  11.3025057  81.2181664  23.9023304  11.3505113
  81.7135715  25.2056551  10.7615304  65.3388166  31.6221237  54.5394373
  66.1717224  31.3363147  54.9146843  64.6805906  31.0849023  54.9803066
  29.4942641  46.4842129  27.2202873  30.0129962  46.4573812  26.4162779
  30.0964189  46.1900616  27.9037476  19.5606411  24.7871566  10.3486049
  20.1561832  25.5205297  10.1945746  19.9889708  24.0392542   9.9321824
  15.0326097  35.3402662  24.9576735  14.1082025  35.2933168  24.7137523
  15.4379785  34.6015978  24.5034957  11.6429675  15.8622575  24.0321565
  10.9688723  16.4678061  23.7237120  11.7194819  16.0457623  24.9684787
  40.0144053  11.9873190  36.9992185  40.6344557  11.5067673  36.4507270
  39.2516899  11.4120591  37.0589852   5.3030509   7.1486896  30.8203912
   4.6886861   6.7932683  31.4626241   6.1570454   6.8155795  31.0960054
  47.3560762  72.9128075  20.1565003  47.8647614  72.1128035  20.0243568
  47.7647734  73.3343887  20.9124541  40.8751488  24.4360375  62.4232292
  40.5959940  23.5221553  62.4791241  40.0608444  24.9296975  62.3260832
  37.9943776  18.5251522  39.3639803  38.1452823  19.4645751  39.4686007
  37.2021723  18.4678555  38.8297915  38.5010695  25.7928061  44.9358177
  37.7095985  25.4384780  44.5305347  38.3973169  26.7423534  44.8739576
  37.8068519  18.3011031  17.1439087  37.6745677  17.3801613  16.9189680
  38.4026074  18.6290073  16.4702725  19.4388270  27.6180863  62.2957039
  19.1473699  26.9356132  61.6911268  19.4152212  27.2011161  63.1569862
  10.2278256  23.4694338  46.9574833  10.0311601  22.9725242  46.1633587
  10.2788842  24.3791890  46.6642714  55.2678299  11.9950712  14.4395864
  54.8649502  12.8628850  14.4109952  54.6881056  11.4802480  15.0009322
  46.1329079  22.9337788  23.6595058  45.6887484  23.7800550  23.6068654
  46.8393278  22.9936266  23.0163765  34.5349121   4.3455124  61.5301418
  35.4364777   4.3187007  61.2096834  34.4267344   5.2350014  61.8667984
  27.2430515  22.0766926  45.1446915  26.7389607  21.5076184  45.7263088
  26.8099046  21.9948602  44.2950344  41.3227701  36.1057019  29.7017169
  41.2273407  36.7384768  28.9898729  40.6556129  36.3599968  30.3392673
   5.5117035   0.2643821  59.8483610   5.3708941   1.2017518  59.7151566
   5.7053763   0.1815813  60.7820988  40.8980513  16.2833357  36.0223341
  40.0665808  15.8300626  35.8829474  41.3436747  15.7655120  36.6927886
  53.7099934  11.9270694  54.0123272  53.9437771  12.6864684  54.5460749
  54.4088173  11.8679047  53.3608866  24.2383718  76.2365055  25.0605083
  23.7435770  75.7328939  24.4141436  25.1329470  75.9033537  24.9899721
   8.4007001  73.3873558  16.2805724   7.6806384  73.0973959  15.7205117
   8.4807670  72.7006006  16.9425309  12.0007384  48.3255053  51.5738821
  12.6688576  47.8076839  51.1247587  12.2306395  48.2609129  52.5008154
  61.2848186   4.4856030  27.6131320  60.7508278   3.9015150  27.0746851
  60.7633209   4.6264058  28.4033537  24.8935533  25.6686115   8.0710214
  25.6689095  25.8478308   7.5391042  25.1400852  25.9437013   8.9540732
  77.3928022   5.1023692  57.9789114  76.6583633   4.7403002  58.4746265
  77.5809669   4.4415057  57.3125124  47.0706224  28.8159060  52.0882130
  47.8086472  28.9292407  52.6871347  46.4658642  29.5216799  52.3170805
  11.3306749  21.2580752  42.4530077  11.9003105  22.0272541  42.4634552
  11.9242048  20.5225182  42.3016357  71.9247103  49.8537636  17.8406453
  72.3711443  50.2044010  17.0699453  72.0459986  48.9063931  17.7773571
  69.1237116  59.0528345  41.9449902  69.0836000  59.5925093  42.7345276
  69.9619913  59.2794514  41.5422964  34.0455842  11.8534935  23.1998992
  34.9500728  11.6121411  23.0001903  34.1142154  12.7076554  23.6264300
  36.0553145  37.7373767  32.7262449  36.1734533  37.2844887  33.5612106
  35.9632182  37.0342445  32.0833182  61.6555691  16.1301184  58.4227419
  61.7822933  16.3393927  57.4973345  61.5338087  16.9799769  58.8460016
  25.9382939   4.1769487  46.6866016  26.1355376   3.9290902  45.7833338
  26.6774654   3.8414904  47.1938705  57.3580217  42.3737383   5.5893415
  58.0312347  41.9095469   5.0918108  57.8057766  42.6660919   6.3832426
  60.9260750  70.4796362  16.4788997  61.0749960  69.7265339  17.0506442
  60.9800291  70.1219273  15.5926907  26.4472294  15.2019262  44.7269583
  26.8554950  15.7530093  45.3946877  26.6108441  15.6621397  43.9037561
  23.4003162  52.6150322   8.1056768  24.1219831  52.2870922   7.5691265
  22.9421091  51.8271780   8.3981973   9.8814213  30.3651690  29.8528361
  10.5539370  30.2530718  29.1809821   9.1803217  29.7679973  29.5919204
  37.1001744  36.1891437  54.2476416  37.9544878  36.0723829  54.6632671
  36.7485809  36.9869089  54.6428442   0.3155072  71.0453129  52.5689077
  -0.1787536  70.5244780  51.9359255  -0.0646274  70.8157063  53.4168530
  46.7412138  35.7613325  56.2394428  47.4954319  35.6556273  55.6595993
  46.6076660  36.7078972  56.2885571  69.7935009  57.4586391  12.4693060
  68.9868402  57.3683548  11.9619799  69.9616766  58.4007978  12.4861264
  74.5821905  69.4892645  41.1356354  75.3072739  69.7937870  41.6813040
  74.0380621  68.9704370  41.7280626  38.4997368  32.6897264  48.8645554
  39.3181109  32.6974440  48.3681345  37.9102898  33.2533288  48.3634186
  73.2362795  24.2178679  67.1126080  73.8314104  24.9567890  66.9859457
  73.0870390  23.8766551  66.2308264  57.8313398  72.2765684  34.2562771
  58.3737469  71.5066767  34.4274378  58.1958914  72.9570150  34.8222542
  41.1830282  28.5004044   4.1897234  40.9798813  29.2437482   3.6219192
  41.1672449  28.8639402   5.0750625  35.0285363  74.4861364  16.9082224
  34.5326233  74.4606447  16.0898983  35.8936429  74.1496181  16.6746020
  37.1560216   3.1114599  32.3864388  36.7200923   3.0711374  31.5352201
  36.9530487   2.2721541  32.7994752   4.9236497  55.9521103  18.9501381
   5.0132126  56.7983294  18.5118139   4.0425703  55.6560230  18.7215281
  38.0900598  34.1998935  51.2514400  38.2240248  33.5614133  50.5509901
  37.1390271  34.2832994  51.3208294  68.8833523  16.2480664  35.7037926
  69.7454309  15.8516598  35.8299303  68.7550163  16.7941213  36.4794111
   1.1610012   6.1728328  59.9016619   0.8235637   6.0994256  60.7943964
   0.3966583   6.4070487  59.3752050  53.7714767  43.8273764  49.5088053
  53.6308050  44.7121000  49.8460007  54.7050476  43.7963676  49.2997265
  32.3981118  39.4960856  64.6421242  32.3071027  39.7777200  65.5524158
  31.5268946  39.6189713  64.2651510  16.7811453  45.8697796  46.4670753
  17.6869285  45.9541893  46.7648363  16.8533003  45.6771708  45.5322313
   1.6573055  17.0625126  15.6443715   0.9180800  17.4102688  16.1432135
   2.4307045  17.3595142  16.1238241  24.0081763  46.6313696  45.6694508
  23.7910509  45.9509420  45.0321865  24.9479938  46.5283489  45.8189964
  17.7739406  40.2499676  49.8144388  16.8800330  40.3013372  49.4760275
  17.7184892  40.6216383  50.6947899  54.2949772  76.4496756   5.0284046
  54.2652893  77.3943710   4.8770815  55.1208639  76.1697292   4.6337235
  51.2987137  34.5394778  57.1348333  50.4088020  34.8919392  57.1427917
  51.5062571  34.4340134  56.2063742  13.9197576  14.9567533  40.9657574
  13.6893964  15.5002642  40.2122545  13.0855155  14.7890687  41.4041090
  40.9881210  42.5358486  46.8427896  41.5607071  41.7804718  46.9761372
  40.9749413  42.9791117  47.6910686  13.6123025  73.1250143  19.0765977
  14.0465021  73.9777040  19.0516686  13.1368268  73.1225538  19.9073493
   4.8218524  76.2352324   3.9590400   4.0385297  76.3540602   4.4961786
   4.8781386  77.0357180   3.4372234  60.1683807  24.7344780  60.3450394
  59.7572088  23.8752055  60.4389524  59.4348812  25.3414845  60.2463007
  79.4909668  68.2513189   0.2516878  80.1444054  67.7222586   0.7092300
  79.1586113  68.8514614   0.9192219  32.5408435  34.9029779  47.6164961
  32.5696373  35.0740314  48.5578489  33.3001328  34.3440318  47.4512911
  56.4047146  57.3726368  50.9208775  55.8453369  56.6053867  50.7998037
  56.8083477  57.2417736  51.7788887  33.3539414  11.3124323  40.4497623
  32.6250529  10.8934569  40.9073782  33.0302906  12.1870399  40.2340221
  45.7721090  35.2348280  44.9695110  45.6167269  35.6975603  44.1461229
  46.0126209  34.3472695  44.7037601  37.6230550  28.0262995  36.6044140
  37.0969224  27.8384733  35.8271503  37.9188776  27.1675897  36.9066381
  13.0715835  23.5751629  42.6424026  13.9722562  23.3556318  42.8807831
  13.0298853  23.4231949  41.6982603  38.1767344  27.3891449  49.2211962
  37.4501109  27.6333475  48.6479473  38.3842492  28.1916213  49.6999454
  17.6107800  16.5595472  21.7282510  17.1778762  16.2579072  22.5268984
  16.9313526  16.5136337  21.0555673  10.4210162  63.7211418  18.7578356
  10.0846124  64.0716839  17.9331028  10.5467355  62.7876043  18.5877466
  68.3876562  49.7605896  29.0458345  67.6451254  50.3160858  29.2831159
  68.7752676  50.1914120  28.2840085  37.6561451  65.4685974  11.9182467
  37.4766612  64.5355892  11.8020272  37.5527167  65.8431816  11.0434771
  66.7215395  63.5743952  14.6061838  67.3874664  63.3813429  13.9462590
  66.3392258  64.4055462  14.3246543   8.5514808  19.4549251  53.3212662
   7.8384584  19.1119564  52.7825594   8.2047170  19.4430590  54.2133665
  24.0788984  50.8739138  10.6046283  23.1707597  50.6733608  10.3781450
  24.1789079  50.5523443  11.5006328   4.1516298  72.4749660  14.6402204
   4.1072056  73.3108521  15.1044965   5.0744975  72.2248793  14.6849787
  55.5546713  22.9625010  48.5024261  55.3116083  22.3298049  47.8265190
  54.8151016  23.5690260  48.5398245  36.3029838  43.6150646  55.6088448
  36.5150070  44.3434381  55.0251055  37.1092725  43.4599018  56.1008358
  30.8720636  36.9369292  52.6475286  30.1882291  36.6418195  52.0462704
  30.4135966  37.0946240  53.4728622  16.6780615   1.3556068  10.5723381
  16.7627811   2.1301836  11.1282921  16.4983475   0.6408712  11.1831474
  16.6637969  22.3015118  66.6997910  15.8641291  22.1885991  66.1859655
  16.9324839  23.2042933  66.5294313  14.9202836  36.8285775  41.8617582
  15.4237568  37.5709105  41.5275621  14.9028587  36.9584298  42.8099489
  75.8792830  65.0125837  28.8211727  76.2971449  65.4226685  29.5784402
  74.9917650  64.8107243  29.1174722  73.6724234  49.4711733  36.2436843
  72.8437328  49.0007782  36.3344336  73.5089350  50.3241920  36.6459990
  33.2804108  20.0351453  48.5161829  33.9440131  19.3454289  48.5285854
  33.4909892  20.5837369  49.2717838  62.4712372  63.5044193   4.5027745
  62.7399731  64.3921852   4.7391832  61.9518042  63.6154652   3.7064761
  65.7900381   5.3512096   5.0003338  65.2369499   5.3848279   5.7808429
  65.7085514   4.4501913   4.6876693  69.7954178  39.4064617  64.9770546
  70.0828791  39.3534112  64.0655804  70.0279045  38.5567141  65.3513622
  22.6727509  31.8804812  34.3943310  22.0573306  32.5193667  34.0347266
  23.5143614  32.3364067  34.4015670  24.0490103   9.2045844   2.1728230
  24.2555857   9.3853021   3.0898282  24.8977661   9.0306824   1.7658818
  43.9136553  36.4141798  65.1926422  44.5454121  35.7866144  64.8415327
  44.1979313  37.2597837  64.8457003  56.0136986  51.1735344  17.6726294
  56.5036726  50.7693291  16.9565475  56.4349985  50.8446407  18.4667122
  73.0207586   5.9485322   3.5413951  73.7477779   6.4528811   3.1762803
  73.3275127   5.0419176   3.5277680  44.4116879  38.4374666   6.9297242
  44.9255705  38.3763385   6.1244792  44.1735601  37.5325084   7.1311641
  50.9416103  40.8043432  60.0556660  51.6736937  41.2542582  60.4774094
  51.3448477  40.3030062  59.3469381  54.6578312  29.9557710  12.7934945
  54.3484354  29.0565038  12.6847589  55.4110336  30.0225377  12.2065890
  50.8874178   6.7623609  48.5334349  50.3867722   6.8704361  47.7247906
  50.7992029   7.6023561  48.9838314  39.0626192  12.5755227  51.6806746
  38.6954069  11.7206621  51.4557314  38.4505224  13.2063580  51.3017082
  40.9492874  35.1032376  32.8538299  40.4513311  35.9196663  32.8123951
  40.2875614  34.4259381  32.9938912  29.2323494  27.8795981  66.6507673
  29.6188068  27.4434352  67.4101400  29.7968411  27.6310110  65.9187937
  63.0759239  10.9413648  11.4204347  63.2163334  11.0881627  10.4850376
  62.8515148  10.0131679  11.4861763  78.6228991  25.3093743  11.3418519
  79.4135427  24.9867773  11.7743433  78.4654140  24.6848083  10.6337929
  65.4607105  67.6733303   6.6026169  66.3201809  67.7895594   6.1976099
  64.8433733  67.7225494   5.8727491  43.2994699  32.5856686  42.3253345
  42.5180483  32.1711588  42.6911116  43.7854958  31.8664837  41.9218683
  73.2752943  38.8398719  36.2924600  72.6751184  39.5749497  36.1672354
  73.2704973  38.6849809  37.2370315  49.2775345  46.7350245  64.6690607
  49.5998764  45.9876633  65.1728201  49.6118498  46.5894270  63.7840366
  64.2544842  65.0238609   6.8930089  64.8028564  64.5857859   6.2421536
  64.6244764  65.9037399   6.9647557  35.2460432  20.7682371  58.1805563
  35.8514142  20.8890462  57.4490070  35.4770708  21.4608812  58.7995100
  75.9635258  69.8657417   9.2263824  75.4776430  70.4628134   8.6574769
  75.4806423  69.8762274  10.0527883  24.9233770  21.4840198  63.9738846
  25.3884220  22.3129249  64.0873671  25.6108475  20.8494377  63.7715912
   1.0540099  74.1194010  42.2884083   1.9533587  73.9270210  42.0230913
   0.8145145  73.3947515  42.8661251   8.9457822  14.8356760  60.4416227
   8.8403392  13.9063990  60.6454802   9.8500580  15.0332761  60.6854963
  11.3956547  37.2291827  44.1799259  10.8879876  37.3153782  44.9868202
  12.1208775  36.6499472  44.4139576  25.4925513  19.5574057  19.7592902
  25.2358890  18.6553001  19.5680785  26.0272980  19.8183286  19.0094924
   1.0965583  53.8998222  48.5666418   2.0137247  53.9363050  48.2951546
   0.6069653  54.1862345  47.7956057  65.1399374  29.4576263  14.0879405
  65.4457474  29.0425825  13.2814360  65.5230713  30.3345346  14.0662038
  37.4365711  31.7415571  59.2137003  37.4442744  31.8054724  58.2586670
  38.3237457  31.9858694  59.4772625  48.6384821  23.8539743  64.4484711
  47.6910877  23.7369919  64.3778372  49.0016222  22.9897594  64.2548418
  41.3045835   1.0649820  55.1813030  41.1603832   1.6359499  54.4266939
  40.4291677   0.7637231  55.4244614  46.3786316  50.8859062  48.0316591
  45.8965731  51.6329622  48.3862877  45.7486486  50.1653957  48.0466413
  74.5803976   9.1637689   1.8893424  74.8825932   8.2664025   2.0294948
  75.2089071   9.5341182   1.2696229  62.2830486  47.4321127  52.1184301
  62.0169687  47.2404528  53.0177069  63.1192684  46.9781256  52.0141554
  57.2998524  27.6592398  45.3877020  57.6194620  27.7813148  44.4937325
  56.7619371  28.4325886  45.5574417  29.0352416  23.6530614  57.1663523
  28.3861065  23.1693268  57.6770926  29.8671794  23.4727645  57.6040792
  40.9630394  15.9522033  -0.3498388  40.4062986  16.3520956   0.3182631
  41.4248371  15.2518082   0.1110531  45.3149652  47.5351715   4.5171830
  45.1324272  46.6605186   4.1738239  45.5901766  47.3848248   5.4215544
  49.2349482  17.0209813  43.9645815  50.1765013  16.9107676  44.0971136
  49.0082550  17.7911818  44.4857693  52.3747015  72.7529573  12.6203704
  53.1130075  73.3554220  12.5299919  52.7774620  71.8858862  12.6673234
  62.9419279  11.1082911  48.7590027  63.2326126  11.0130966  47.8519917
  62.0545340  11.4605129  48.6904049  78.0749083  13.4812260   6.1878818
  77.3720884  13.4450972   6.8367040  77.8847027  14.2648423   5.6721318
  42.1023989  28.6484480  48.7892962  43.0363035  28.8329387  48.8893890
  41.8865490  28.0922890  49.5378494  11.4319205  53.0746555  48.1988430
  11.4511764  52.4043798  48.8819218  11.4837527  53.9034128  48.6749792
  63.3032846  56.9854879  10.2090275  63.6725903  56.9857311   9.3259382
  63.3432579  56.0698366  10.4851043  69.1873646  69.0492249  10.8074546
  69.1637182  69.8388720  10.2669680  68.2695293  68.7927341  10.8970487
  44.6141052   0.3935109  64.4190073  44.1839218   1.0363474  64.9828672
  45.3132629   0.8839406  63.9866972   2.8697389  54.2563725   3.3331665
   3.5588819  54.1820240   3.9933074   3.3285728  54.5246649   2.5370997
  53.1232166   9.9991363  55.9064054  52.2438955  10.3704131  55.9783745
  53.6117125  10.6389749  55.3885174  16.5026164  57.5199032  63.3535480
  15.6826305  57.2318077  63.7546206  16.5792286  58.4415054  63.6005545
   0.0956948   7.5519204   4.3385240   0.7612316   6.9702750   4.7059220
   0.1427530   8.3409387   4.8784006  56.5393639  57.0992517   1.7400341
  56.9714069  56.2797594   1.4992078  55.7497025  57.1215439   1.1995055
  50.7646894  59.7443151  49.4732285  49.8497248  59.9709845  49.6396542
  50.7226896  58.9231348  48.9832020  22.0050669  20.4837871  51.8345261
  22.5239420  19.7554696  52.1759319  21.1028218  20.2650595  52.0676470
  18.8328838  21.8956113  48.7343454  18.4837520  22.6634836  49.1867924
  19.7817206  21.9671607  48.8383770  36.7342353  31.7523766  66.5801048
  37.0161271  32.6654196  66.5242338  36.8856788  31.4008403  65.7027674
  39.8722577  32.2545719  13.6237597  39.6172118  31.8774247  14.4657481
  39.5127010  33.1415272  13.6398506  61.4022207  10.2751732  18.8379228
  62.2391129  10.7217836  18.7099361  61.1375093  10.0058174  17.9583740
  73.6633444  36.3427234  35.2230239  73.4668875  37.1859527  35.6311941
  73.6308146  36.5184522  34.2826533  74.5265055   1.0353544  23.0841208
  74.0205288   1.5773371  23.6894965  75.0155067   0.4374218  23.6494422
  33.9088440   7.3766267   6.3466108  34.8537564   7.5194192   6.4012402
  33.5510826   7.8515327   7.0967460  51.3390493  32.0776391  52.8390026
  51.3169813  31.7742968  53.7466002  51.0608101  31.3188982  52.3260450
  69.4328833  75.6216717  46.8972492  69.2405558  75.9906197  47.7592897
  68.6229610  75.7384157  46.4006329  27.3532844  21.3754225  33.9895082
  28.3095932  21.3567352  34.0263224  27.1400404  22.2800279  33.7604928
  20.0239086  10.0819302  18.6363566  19.6296942  10.7418191  19.2067719
  19.2796183   9.5916098  18.2872880  59.0009069  68.0150747   2.3772873
  59.3309546  68.7320423   1.8357544  58.0575418  68.1687117   2.4291037
   5.7924426  23.1790209  37.9855084   6.2612844  22.3450065  37.9565144
   5.5893564  23.3715653  37.0701313  44.1030598  38.8183427  45.8315849
  45.0111771  38.6994195  45.5533457  43.8268852  37.9501724  46.1252451
  46.9947577  16.7967796  57.1046448  47.4287367  17.4483466  57.6554203
  46.4380217  16.3052607  57.7085400  50.8793783  49.9596643  48.8737535
  50.2100992  49.5522547  49.4235849  50.5956745  50.8696079  48.7857008
  68.7266636  68.8280010  21.1561060  68.5753965  68.2305241  21.8884802
  69.3520498  68.3675194  20.5965734  20.4037237  39.9203038  47.4935722
  19.9093854  40.6799984  47.8013420  21.1280632  39.8385262  48.1139565
  52.2774029  32.1753097  17.5626481  51.4234495  31.8933964  17.8905571
  52.2635078  31.9489503  16.6327012  41.1280966  40.1140261  56.9341993
  40.3003979  40.4251099  57.3007631  41.2271786  40.6031513  56.1173964
  47.2984409  22.1238923  39.0859628  46.4455700  22.3779345  39.4385290
  47.7512836  22.9533029  38.9335108  38.8188910  46.3961554  24.9873948
  38.4808159  47.2704840  25.1810288  39.1546130  46.4617443  24.0934038
  14.1487300  30.9910059   2.0142725  14.4015539  30.1854730   1.5632451
  14.8438287  31.1341286   2.6566011  76.6474295  45.3788424   3.9439940
  76.4209461  45.0661230   3.0681264  76.8714476  44.5858049   4.4309649
   8.6744249  57.5381470  39.0587234   7.7411371  57.4604797  39.2566466
   8.8041699  56.9789648  38.2927537  56.2493467  44.0117168  64.1250324
  56.0903454  44.9498463  64.0207767  57.1988583  43.9195395  64.0465164
  43.2701826  20.3876758  48.4838724  42.6588297  21.1110258  48.3451605
  43.4874535  20.0852609  47.6020718  14.3878913  35.9814286  35.2192974
  14.8598158  35.6260443  35.9724379  14.3415868  36.9225121  35.3879738
  48.7720123   0.4236530   3.4137699  48.1444875   0.9942793   2.9701084
  48.3105937  -0.4092242   3.5119364  24.1894722  26.6760230  30.7562542
  24.6544695  27.2664976  30.1635075  23.2648158  26.8022370  30.5433917
  78.1866741  51.7327881  10.5782211  79.0289259  51.5114641  10.1809001
  78.2665157  52.6583338  10.8089161  53.3860445  14.7065055  49.5973396
  54.3100500  14.5106745  49.4421339  53.0896521  14.0122533  50.1858997
  22.6292109  35.4177165  29.7129893  22.8071284  34.7484970  29.0521407
  22.4269557  36.2052679  29.2079306  34.8848653  38.2542014  66.7721510
  35.8191299  38.3466315  66.9587994  34.4747949  38.9851975  67.2344446
  19.4866347  27.4243402  42.0656395  20.3958106  27.3181581  42.3455620
  18.9703381  27.2137880  42.8436756  36.5332270   7.8860223  14.3124044
  36.0317612   8.6778611  14.1181004  36.7265344   7.5083637  13.4543610
  57.9472923  67.1843195  49.1448355  58.1857777  67.0966959  48.2219696
  57.0235443  66.9356918  49.1781473  49.6360254  11.5921342  64.8786640
  49.4779253  10.6867051  65.1459360  50.1405287  11.5181208  64.0685797
  52.0946217  18.6500716  34.4343066  52.5530386  18.4228122  35.2432799
  51.1664486  18.5734034  34.6553326  68.5418510  57.2942162  21.9006062
  68.4310198  56.5190220  21.3501310  67.8701448  57.9034996  21.5943074
   5.1322782   0.8719746  10.5930257   4.6465197   0.3818094   9.9296939
   5.2899539   1.7265525  10.1916945  46.7268372  30.7585764  38.2779765
  47.1326971  30.4181886  37.4807024  47.4476433  30.8244681  38.9043355
   2.0947585  77.6948118  50.5428410   1.3291636  77.5327158  49.9916410
   2.8352153  77.6733065  49.9366283  53.2258511  35.4145908  58.8684225
  52.6613235  34.9933529  58.2202721  54.1146517  35.1849365  58.5972643
  30.6646681  59.8207474  15.7217121  30.8045650  59.3163109  16.5230894
  30.1972389  60.6045198  16.0105801  82.1589947  14.0710342  45.8986855
  81.7188454  14.9129319  46.0157728  81.4605808  13.4218943  45.9827566
  43.4301472  22.6424003  62.1182537  42.6441240  23.1704354  62.2581768
  43.2126141  22.0817423  61.3735580  35.6941366  56.6652346  63.4630966
  35.8207154  56.2035418  62.6342154  34.8556924  57.1155453  63.3608246
  31.3311791  36.5415835  44.7363806  32.0768166  36.2982917  45.2850723
  30.8037519  37.1169877  45.2904224  13.2124138   6.3217652  16.6176379
  13.8189948   5.9057504  17.2301924  13.6102414   6.1865485  15.7575893
  53.8585663  51.7736769  46.0816431  53.6649799  51.6664743  47.0129156
  53.3112812  52.5091553  45.8063602  40.8764791  28.3723330  21.8498874
  40.8740520  27.5104260  21.4335442  41.0180664  28.9860868  21.1291313
  53.7937164  16.0013831  57.9555655  53.9658928  15.7739806  58.8692760
  54.5607948  16.5064013  57.6857948  11.4512968   6.5746635  10.0673401
  10.5897999   6.9142407   9.8249727  12.0627487   7.0482075   9.5033246
  19.9280214  43.6570644  62.6974821  19.1748428  43.9067698  62.1621323
  19.6749103  42.8228188  63.0927038  32.7813196  26.5810061  44.5485973
  32.3468184  25.9453702  43.9799118  32.0728445  26.9615221  45.0677299
  57.6760006  47.5521231  49.2327881  57.8681898  48.3499765  48.7401199
  58.4785366  47.3743105  49.7232485  23.4235096  40.6407642  43.6701012
  22.6177931  41.0034275  43.3019638  23.6940074  39.9714828  43.0415106
  72.3903942  68.0706692  19.0019834  72.6474571  68.8992023  19.4065630
  71.9298267  68.3270121  18.2029879  26.3393712  16.3532054  49.1723442
  25.5863667  16.8897915  49.4199181  27.0997357  16.8703949  49.4380379
   0.0284647   3.5778227  28.0024457   0.5796206   2.8218278  28.2047582
   0.6482537   4.2830285  27.8159547  43.8063383  35.5379820  56.2280655
  43.4933233  36.3748217  56.5715075  44.7512341  35.5550575  56.3801050
  32.0938396   7.4346387  24.5677900  32.1325278   8.3553135  24.3087673
  31.6074514   7.0076555  23.8625646  21.9307470   7.6123190   4.5324925
  22.2434115   8.0118316   3.7207887  21.4573669   6.8305832   4.2478299
  14.5122182  38.1221676  15.5230987  14.3613231  39.0660954  15.5727148
  14.2640710  37.7941871  16.3874388  81.7178726   1.6104108  54.7200203
  82.5596428   1.4886296  55.1591253  81.1727238   2.0579870  55.3671074
  44.8496675  31.1005068  52.0341063  44.0466928  30.9494853  52.5327635
  45.3312111  31.7499995  52.5464630  38.1308532  36.1514974  57.1898413
  38.0576754  36.9418812  56.6548920  37.2409916  35.9919047  57.5043344
  57.0403767  60.7087135  37.7515721  57.3155642  61.0340834  38.6086798
  57.0403051  61.4837885  37.1898842  49.9172831  57.9781389  31.8592691
  49.0214300  58.2984591  31.7540336  49.9139166  57.1162224  31.4429522
  74.7007608  45.7661963  66.7004585  75.4293394  45.9719944  67.2861624
  75.1021767  45.2791309  65.9808302  29.2575812  45.1076984  63.8725281
  29.3007207  44.5635080  63.0862522  29.7131157  45.9141493  63.6309481
  30.9298420   6.3652378  26.7933989  31.7217159   6.6513914  27.2486854
  31.1552382   6.4180559  25.8646154  68.6991072  30.2324033  43.9943266
  68.5921001  29.6327472  43.2559538  68.9268446  31.0702538  43.5913706
  44.6187162  14.6071625   4.5996884  44.3356991  14.2918932   5.4580235
  43.9191103  14.3396914   4.0036666  39.3316364  19.1289353   9.9489969
  38.5984397  19.7208452   9.7807813  39.8705745  19.1849422   9.1599202
  62.3225784  56.3910151  44.2421627  63.2530069  56.3422585  44.0227270
  62.3025370  56.7843580  45.1145792  70.2244902  68.6368656   0.5539783
  69.5066643  68.3814907   1.1334115  70.7098293  67.8259230   0.4021616
  11.0575175  40.2456474   7.6388854  10.2662921  40.0110865   7.1539366
  11.7681944  39.8232889   7.1564066  75.0397682   2.5509283  10.2180016
  75.9055805   2.6949641   9.8360896  75.2134371   2.3584822  11.1394334
  46.5488291  50.5614901  54.6904421  46.3640547  50.5087090  53.7527275
  47.1792603  49.8591709  54.8502398  45.2587748  38.0891871  55.6772566
  45.1079035  38.9427114  55.2710962  44.9967718  38.2086730  56.5901184
  18.4746170  16.0583866   1.9982691  18.3369243  16.8217564   2.5591063
  18.9105904  16.4077318   1.2210196  60.8884048  49.9090576  60.0464392
  61.7641640  50.1768732  60.3249264  60.9621954  48.9663601  59.8977518
   4.2267174  68.8905001  49.6310902   4.9872315  68.5612154  49.1521072
   3.9295748  68.1438971  50.1512051  48.1362820  58.3153200  49.3286896
  47.7366018  58.6508942  48.5262680  48.2959461  57.3890829  49.1475201
  71.8385506  77.2193193  12.4307442  70.9948778  77.0028687  12.8277302
  72.4431610  77.2785330  13.1704509  81.4128208   1.5381114   4.5992884
  82.2770691   1.5974022   5.0064737  80.7983971   1.6742906   5.3205192
  17.8427005  69.7612286   9.9023354  18.0401945  68.8932180   9.5505011
  17.7610171  70.3200293   9.1294825   0.1508069  57.7571678  14.3375206
  -0.4302132  58.5158062  14.2816949   0.8211985  57.9195690  13.6738682
  16.7449892  22.1711540  50.5579948  17.3490024  22.8854465  50.7609415
  15.8835530  22.5090408  50.8029318  16.4605165   4.4907811   5.2544647
  15.6055188   4.0617424   5.2207297  17.0331860   3.8506857   5.6770265
  53.6081839  65.4671574  55.4742718  53.1745148  66.3065243  55.3205633
  52.8911734  64.8511076  55.6246471   4.9315882  33.0480719  50.0790787
   4.1500905  33.1400657  50.6240845   4.9695608  32.1146631  49.8704243
  72.1982002  32.3926878  55.9245205  71.9585371  33.2781267  56.1980009
  72.4321747  31.9458294  56.7380381  52.6066923  23.4443331  66.4469385
  52.6671982  23.2536960  65.5108643  52.3587418  22.6102257  66.8457031
  59.5893574  66.1770630  52.0707703  60.1767254  66.7679405  51.5995073
  59.9055719  65.3004313  51.8522406  62.6944971  76.2911558  32.3887944
  62.6478338  76.6477299  31.5017128  63.5745478  76.5155077  32.6911283
   7.8885895  58.5342884   0.9648354   7.8277957  58.3289671   1.8977761
   7.7682579  59.4828367   0.9200117  58.9942265  59.0628195  25.8344436
  59.3219948  59.4015121  25.0013256  58.5225058  59.7992897  26.2234449
  32.9617095  55.5770111   0.3083738  32.6918149  55.2047253  -0.5311448
  32.4850368  55.0650311   0.9617429  58.3357954  60.5908728  55.4391479
  59.2371798  60.6468296  55.1219654  58.2446480  59.6879816  55.7436371
  53.9101028  47.8453970  54.8553276  53.5203409  47.9991817  53.9947081
  53.3534718  48.3345699  55.4612207  34.2194915  38.4207749  59.2700720
  34.8502398  37.7223754  59.4450808  34.3902946  39.0734506  59.9490929
  43.9668465   5.3030348  52.0454264  44.4131565   4.8388577  52.7536440
  44.5597935   5.2265334  51.2979031  71.6474962  54.9587822  56.6302919
  71.5582514  55.1187420  55.6907797  72.4661160  55.3928471  56.8704557
  10.1441741  70.6156874  62.1902180  10.7343030  70.0992441  62.7390957
  10.6202269  70.7293034  61.3676023   7.2024816  63.4118366  42.1566010
   8.0669236  63.8158941  42.0810366   6.5980470  64.1507149  42.2269154
  67.4869394  65.9042597  47.9740381  67.1934223  65.7253218  47.0806932
  66.6783428  66.0155678  48.4740496  61.4197016  38.5329366  44.4709969
  61.7804813  37.9438186  43.8084221  61.6369438  38.1168890  45.3052282
  53.3702803  49.9756050  43.3072519  53.6584330  50.4140949  44.1078329
  53.5476494  50.6078148  42.6107740  40.8923864  64.0813637   5.6035453
  41.6998243  63.7773657   6.0181040  40.8959198  65.0289917   5.7385439
  46.3940334  51.8865681  37.7119040  45.7844257  51.9880390  38.4428740
  45.8494473  51.5807629  36.9865489  26.0267425  30.2584028  54.8438025
  26.9629025  30.2934313  55.0402975  25.7655549  29.3683577  55.0800896
  65.2278757  56.0056734  64.5950365  64.5990419  55.8552980  65.3008604
  65.9286976  55.3749704  64.7602272  51.9446611   4.0705338   1.3261606
  52.6855898   3.5048169   1.5434706  51.8968868   4.6922064   2.0524336
  40.3470802  20.7373405  51.9465685  40.3032732  19.8830986  51.5169334
  40.1847982  20.5491352  52.8709459  38.1463981  57.3404551  56.4726162
  38.7493038  58.0076265  56.1445665  38.6256409  56.9126701  57.1822357
  67.4428988  19.4189215  29.7485948  67.4203587  20.3756571  29.7290134
  66.7819977  19.1506600  29.1102552  10.8865929  67.0467186  56.0118961
  11.4687192  67.1218824  55.2557802  10.5368376  67.9293823  56.1335802
   9.7270983  60.8515835   1.1073469   9.9719369  60.3880501   1.9082373
  10.5012453  60.7885170   0.5479260  44.9292278  24.2084026  52.0578003
  45.4767036  24.0169001  52.8192663  44.2699337  23.5144567  52.0562220
  62.9099751  63.6071777  44.9586487  63.2853889  64.4826269  45.0529146
  62.3169661  63.5192490  45.7048702  27.5487590  15.9798920   9.6233541
  28.4403706  16.2710881   9.8143196  27.6566482  15.1016319   9.2583174
  78.0610323   5.3050786   4.3531224  78.2456493   4.4314933   4.0081644
  78.8222122   5.8278894   4.1011131  41.3911057  30.9266257  41.1483288
  41.0678673  30.7051063  40.2750158  40.6042767  31.1506987  41.6452408
  76.3270140  69.1753149  55.1675797  76.6081047  70.0857639  55.0764418
  75.4544783  69.1535521  54.7745895  50.0056887  49.3641233  46.3527822
  50.3860664  49.5874166  47.2023010  50.7600975  49.2547417  45.7738733
   3.5934016  10.3457952  11.3126647   3.5034540  10.8408928  10.4984045
   3.1592032  10.8875608  11.9715977   8.9225161  62.6386118   6.4070845
   8.4460276  63.2289934   5.8234441   9.8452282  62.8360844   6.2463450
  82.8174507  66.1958694  59.8168182  82.5134951  65.4896259  59.2466736
  82.6705373  66.9937754  59.3088770   8.8305670   6.1317599  53.0527496
   9.7174937   5.8068615  52.8977203   8.6007559   6.5945315  52.2469807
   8.2270062  60.6686926   4.3025795   8.2023156  61.6151428   4.1616699
   9.1211390  60.4934597   4.5959255  18.9710653  22.0329738   0.3470221
  19.1490698  21.9507051  -0.5898761  18.3862650  21.3014650   0.5448477
  44.5169926  76.5385056  64.1398287  45.1265383  76.1469889  63.5142088
  45.0709105  77.0640373  64.7170830  47.8600407  62.9759693  32.1478462
  48.5809278  62.3480129  32.1007109  47.1952295  62.5379801  32.6792812
   6.4107621  71.1157465  50.3689003   7.1405303  70.6379080  49.9747705
   5.7898450  70.4344654  50.6268787  47.7138186  48.5263395  66.2228632
  48.2672834  49.1632748  66.6747713  48.2948923  48.1158018  65.5825138
  59.4005585  42.6662016  48.2915354  60.3341103  42.4670506  48.3625793
  59.3538570  43.6203003  48.3526993  53.8054466  63.2248783  23.8272071
  54.5974445  63.1540108  24.3600726  53.0873728  63.0989599  24.4474912
  16.6117823  78.3357000  10.7745409  15.9013247  77.7586126  11.0546362
  17.2506869  77.7495670  10.3689802  53.2042599  53.7790871  48.9146376
  52.2787619  54.0053082  48.8223791  53.2124043  52.8238678  48.9756870
  41.8740082   4.0945414  34.5314312  42.3439360   4.2302382  33.7086391
  41.4030600   3.2708186  34.4052434  55.6326437  69.8839235  37.7655911
  54.7027063  70.0887251  37.8630567  56.0541201  70.7350206  37.6463437
  65.1709175  57.9704475  13.6779535  65.7741690  57.4015093  14.1561043
  64.3449688  57.8998804  14.1565597  63.0007458  25.7935905  63.0424547
  63.5428905  25.0650787  63.3450699  62.1163654  25.4304624  62.9950714
  52.7906179  59.5465088  34.4585776  52.8215933  59.0946150  33.6153293
  52.8378677  60.4758310  34.2341733  80.8767509  15.0553524  64.7142076
  81.3124275  15.8920479  64.8765659  81.5920639  14.4403911  64.5517921
  54.6541309  65.9080458  28.3039331  55.0064182  65.1255369  27.8798914
  55.4266834  66.4246750  28.5330462  68.2411909  45.9749985  53.4404135
  67.9711103  46.6408396  54.0728235  69.1724920  45.8411884  53.6165047
  64.8459291  20.4525971  63.0841494  65.2055359  21.2255120  62.6488113
  64.4668055  19.9330711  62.3752117  62.8137589  48.8291645  66.8161011
  62.8963184  49.3002367  65.9869385  63.4375763  48.1067228  66.7442751
  67.0728445  54.5500374  15.0479198  67.9945469  54.8068333  15.0753617
  66.5935087  55.3582287  15.2303839   7.4321055  16.0929644   9.9916989
   8.0470061  15.4042459   9.7391224   7.4673688  16.1065650  10.9481525
  51.8208218  58.8795996  60.9296179  52.4617767  58.7266397  61.6238880
  51.8356943  58.0766582  60.4087591  64.2377234  41.2062931  53.2153368
  64.9072886  40.5792761  53.4887743  64.1980696  41.1144447  52.2633791
  29.0979934  18.8394547  11.9103158  28.7381196  18.2649028  12.5860476
  29.5173788  18.2446134  11.2886167  52.5840139  46.2292624  60.3177547
  51.8204927  46.2126780  59.7407007  53.2634974  46.6652012  59.8034668
   3.2392028  16.8668997  28.9780068   2.5582018  16.3958657  28.4978032
   3.1605798  17.7726281  28.6784959  59.2730999  22.5873089  54.8435736
  58.8757896  23.1381226  55.5180979  59.0500116  21.6931844  55.1024246
  55.3049755  19.3883300  63.3509827  55.2362204  19.4895375  64.3003321
  54.9311781  18.5249984  63.1744528  32.7417541  69.7211647  41.0572338
  33.5274339  69.4374084  41.5245914  32.1263385  68.9953423  41.1605835
  20.4643750  65.6968212  65.5397415  21.3532829  65.3929758  65.3560209
  20.5833125  66.4474297  66.1216927  14.9041545  57.1664333  47.9986334
  14.1505718  57.7006340  47.7476788  15.2978086  57.6375723  48.7330008
   0.7781406   2.7600935  57.1006203   0.7361602   3.2001311  56.2516022
   1.7138487   2.6377374  57.2609711  24.4522595  37.7928638  48.0082321
  25.1569462  37.6480317  47.3768282  23.8478947  38.3852339  47.5609398
   5.5077684   8.0635279  39.7352457   4.7392967   8.1839556  39.1774106
   5.6136304   8.9035660  40.1817417   1.8896255  31.4966035   7.6194417
   2.7817908  31.7427921   7.3751807   1.6059813  30.9032345   6.9239628
  63.9690876  19.5986974  40.9556770  63.5787773  19.2965090  40.1355743
  64.2194653  18.7954164  41.4120579  54.7563171  54.8934746  34.6808028
  55.4674864  54.7691917  34.0522909  54.7562408  55.8338404  34.8595381
  25.9592700  14.6164334   2.1711625  25.5597353  13.7516856   2.0772758
  26.9011807  14.4460511   2.1740530  24.4025779   6.3775897   2.1717303
  23.7498522   6.8812877   1.6854499  24.2822576   5.4766858   1.8715203
  63.2201433  52.0557404  48.0898046  63.4538603  52.9644585  47.9005003
  63.3940411  51.5885019  47.2726822  73.9764372  48.7891008  -0.0224203
  74.8918882  49.0621520   0.0377565  73.4767500  49.5910741   0.1304870
  78.7092686   9.1156292  28.6495137  78.0855989   9.1871673  29.3721151
  79.0793133   8.2373554  28.7385726  52.7937603  76.7738152  39.0275645
  52.8130341  77.7284002  39.0956545  53.6253643  76.5465260  38.6116242
   0.9385617  72.0238543  60.7895231   0.3342946  72.7661037  60.8021641
   0.5156930  71.3614130  61.3359451  18.6235034  54.8644924  56.6400194
  18.0020130  54.7501135  57.3589754  18.4044087  55.7186365  56.2676334
  22.8922582   0.3634124  13.1778419  22.4271750  -0.4683237  13.2680917
  22.2132516   1.0300195  13.2818425  72.7654886  75.7882309  37.6091385
  72.1710253  76.3348293  38.1230187  73.5771513  75.7746983  38.1163406
  62.6300049   1.8588819  20.0171232  63.3910608   2.4380936  19.9779284
  62.9101038   1.0642856  19.5628178  64.9041367  44.2627954  66.8067169
  64.8416424  43.6798334  67.5633430  65.3929186  43.7590075  66.1559296
  48.3390808  43.2471275  62.4746799  48.3269548  43.7418842  61.6553497
  47.4157143  43.0978775  62.6780319  17.0148599  49.1496515  59.3321514
  17.1285009  49.5183802  60.2081394  16.0723078  49.0017700  59.2549562
  62.9129028   6.5915686  34.8124218  61.9668198   6.4719748  34.7296405
  63.0517960   6.7653590  35.7434106  64.2051172  62.8919458  48.0647278
  64.6597338  62.2047043  47.5776482  64.9035358  63.3728075  48.5088158
  32.9029226   1.1039101  12.2746718  33.1724691   1.6925845  12.9796827
  31.9486475   1.1758202  12.2542858  33.6820030  65.0856638  27.4293518
  33.6683440  64.1786671  27.7349710  34.0809393  65.5748796  28.1488991
  34.8000050  40.2706718  19.9259830  35.3216028  40.9119129  20.4086637
  33.8980889  40.4435730  20.1959515   4.4255117  58.1020975  59.1148233
   4.3170261  58.2708120  60.0507689   3.6796564  57.5486755  58.8831806
  42.9166937  72.9959440  23.2738352  42.2109509  72.5574541  23.7491059
  43.6936760  72.4682188  23.4583282  29.1919255  37.3520398   2.6083237
  29.2728353  37.8615880   3.4145775  29.1240716  36.4443278   2.9044488
  68.5259485  69.3236589  42.4757051  68.9044237  68.7437534  41.8148708
  69.0089035  69.1211510  43.2769394  36.9710183  29.4447803  10.4626310
  37.8512526  29.6163559  10.7972693  37.1123552  29.1123176   9.5762199
  11.1740959  -0.1531171  15.6107473  10.5122459  -0.3170497  14.9389493
  10.8889425   0.6558821  16.0355294  25.0689244   4.0721032   0.8470281
  25.3190207   3.2711920   0.3863484  25.7828903   4.2253223   1.4659062
  10.4041576  36.9301701  48.7836313  11.0841298  37.0502400  49.4465446
   9.9859035  36.1013937  49.0169191  14.6640098  69.5488119  66.3432169
  14.8455238  69.7402239  65.4230881  15.0993001  70.2523804  66.8246126
  30.4572678  48.7998867  66.1009550  30.8980465  48.8129473  65.2513790
  31.0972619  48.4106207  66.6968679  66.0803080  28.1700253  58.1431055
  65.6004858  27.7348018  58.8477898  65.4694796  28.8258314  57.8068876
  17.0403123  25.4821944   3.9576006  17.6146829  26.0449672   3.4383520
  16.2531340  26.0082412   4.0985203   2.4500591  60.4047585  33.0268097
   3.2302693  59.8730850  32.8692436   2.4592577  60.5700636  33.9695835
  46.3289309  67.1598434  26.3311791  46.6642380  66.2909794  26.5522671
  46.1133289  67.1036243  25.4002714  19.9724066  73.1615305  33.8378501
  20.6205797  73.8369894  34.0374899  19.6389127  73.3979511  32.9723334
  23.7487388  74.5963955  65.4535961  23.7780643  75.4165745  64.9609756
  22.8154802  74.4294357  65.5854559  22.6250148  71.7755127  11.9434154
  21.7074084  71.5039539  11.9212711  23.0602765  71.2002993  11.3142037
  29.4482064  56.5262985   5.7953501  29.1916823  57.4212122   5.5727506
  30.3652334  56.5988016   6.0599864  81.0586262  44.5645428  38.8429427
  81.3536835  43.9447021  39.5100045  81.5438747  45.3678894  39.0310979
  59.4020653  75.5499554  53.8521671  58.4472036  75.5700684  53.7883425
  59.6160603  74.6221638  53.9503098  70.1146078   2.6042396  62.6602173
  70.4192209   1.7682976  62.3071623  69.1740561   2.6107726  62.4826097
  73.7191534  35.7610512  43.6398697  73.3169794  36.3242006  44.3011951
  74.4758177  36.2585449  43.3297157  77.2416162  57.6590157  48.9699221
  76.4725685  57.7222633  49.5363092  77.0753288  56.8896437  48.4252691
  73.8849592  61.4735174  64.8614740  73.9340115  61.5489578  65.8144379
  73.4973049  60.6117010  64.7090769  76.3581228  62.2039223  47.9422903
  76.6751003  63.0786037  47.7171421  77.1382809  61.6503572  47.9083586
  53.9164448  69.1535378  58.7851334  53.8738728  69.6993876  57.9999828
  53.9447212  68.2566071  58.4520388  56.0671902  23.9727688  56.4889956
  55.3459024  23.5771227  55.9996700  55.6391001  24.5443058  57.1264267
  41.8295431  56.2486744  48.7295675  42.2461653  57.0978832  48.8761902
  42.3396206  55.6368208  49.2603111  82.4615178  47.8205967  26.2388086
  81.6913135  47.8434515  26.8066955  82.2685059  48.4542561  25.5478263
  17.0663750  71.2218285   5.8548772  17.1337926  71.3908625   6.7946190
  16.2130415  71.5783501   5.6080055  14.7341752  63.5267162   6.6245157
  15.0145602  64.0618896   5.8820856  14.3856955  64.1564035   7.2556150
  41.9063902  32.6970053   0.2871269  41.6766691  31.9642520  -0.2843033
  41.0660219  33.0915952   0.5201821  14.9792123   4.8987401  28.8291621
  15.7675946   5.3286767  29.1605830  14.9965048   4.0278608  29.2260289
  45.2908325  51.8930483  42.9501581  45.1744366  52.1676064  43.8597202
  46.0192966  51.2727594  42.9785633  82.3298393  72.7810335  55.5358315
  82.5135639  73.3813143  54.8132420  82.8686769  73.1037092  56.2581682
  43.0814457  61.9718790  45.7206678  43.9060974  61.5367508  45.9371042
  43.3176088  62.8933525  45.6141472  32.4254179  28.3773994  66.9235039
  32.6067543  27.4934506  67.2428513  32.2192645  28.2594657  65.9962368
  38.4231615  67.5343847  45.5288696  39.1703367  68.0757189  45.2740765
  38.3093262  66.9247961  44.7997046  72.4838352  73.2921982  43.8327646
  73.3314276  73.6797571  44.0509796  72.2433424  73.6960936  42.9989433
  74.9219847  12.9723394  22.9487276  75.0699043  13.4747088  23.7499619
  74.0237999  12.6514709  23.0295968  12.1308339   4.5020124  35.6888700
  11.6358817   5.1633507  36.1724877  11.6277337   4.3659437  34.8859954
  61.2535191  77.4009848  48.4701729  61.7605829  77.8380919  49.1543198
  61.5049076  77.8489876  47.6625061  12.0491672  13.0556893   4.6746263
  12.3898649  13.3372927   3.8255936  12.5418127  13.5710955   5.3132874
  60.8568430  43.9947367  51.8118334  61.6165686  43.6009359  51.3829088
  60.4854155  44.5796585  51.1514235  35.0943685  71.2130737  51.4968061
  34.9738026  71.2181139  50.5472422  36.0438561  71.2028742  51.6176319
  66.4096355  57.5503254  36.6708970  66.9627047  57.9237032  35.9846520
  65.7156754  57.0924377  36.1965585   8.6483872   7.9532629  62.4966955
   9.0698659   8.0764818  63.3472252   7.8992760   8.5489368  62.5120687
  76.9615650  31.9759536  47.9530621  76.1336613  31.7566562  47.5256109
  77.0900679  31.2800145  48.5975695  36.9786739  76.7251587  59.9222612
  37.8124595  76.3845158  59.5982313  36.3153648  76.2562609  59.4159126
  39.1561627  50.2974176   5.8065951  38.5778618  51.0479689   5.9425169
  39.2762756  49.9262190   6.6806734  21.5260077  10.3052211  14.1723561
  20.6844687   9.8640180  14.0566683  21.5344405  10.5673838  15.0929177
  62.2224045  18.5760176   8.9819163  63.0995512  18.9464629   8.8838536
  62.2523451  18.1069815   9.8157871  18.4116721  44.8578262   9.4201750
  18.1387472  43.9855051   9.7044200  17.8444469  45.0552464   8.6748475
  76.8894672  39.1802120  63.6582041  77.1686840  39.4533944  64.5320702
  77.5605011  39.5300674  63.0720758  73.9629793  54.0129185  35.8090639
  73.7434530  53.7174463  34.9254704  74.5564175  53.3415031  36.1456084
  21.5936112   4.3484440  10.1634932  21.3723183   3.4371418  10.3553009
  20.9856653   4.6014237   9.4687724  43.0123568  70.5183840  38.0392408
  43.2552385  71.4128208  38.2784486  42.4653578  70.6189489  37.2601962
  69.7691154  75.2035284  35.6619620  69.3247461  75.9114599  35.1954842
  69.6209049  75.3966427  36.5876913  51.0915756  50.3844404   0.2310502
  50.6529427  50.3539181   1.0812870  51.5014458  49.5240307   0.1419700
  15.9165394  73.9404202  48.7437868  16.3116717  73.8513756  47.8765106
  16.6603923  73.9489985  49.3461514  20.6352282  61.6189194   0.4629527
  20.9920144  62.0265770   1.2520988  19.9116313  62.1898222   0.2046680
   6.7983818  58.9428234  58.1186390   5.9344274  58.7830591  58.4984970
   6.6543251  59.6428156  57.4818563  38.7789202  76.1695719  49.5271587
  39.6457624  76.0795832  49.1312838  38.2112336  76.4337873  48.8031769
  63.3633947  68.8108492  60.2596569  62.4453735  68.5706711  60.1340342
  63.6187363  69.2214823  59.4335747  48.0304193  20.4909873  10.6884408
  47.6959229  20.1640630  11.5235817  47.8111696  21.4227366  10.6908488
  62.7042341  57.1716547  22.2687435  62.3093843  56.7941236  23.0547428
  63.3280373  57.8173923  22.6005936  20.8992648  19.8607075   5.8997798
  20.7067657  19.9244630   6.8352538  21.8542051  19.8131204   5.8544523
  80.4167175  69.5928144  50.8239985  80.0226212  68.9907217  50.1928091
  79.9780512  69.3936205  51.6511202  29.9049139  22.2834992   9.3307811
  29.6144056  23.0515623   8.8389325  29.5215654  21.5410185   8.8638777
  58.9805984  75.9900951  65.2968931  58.4906769  75.9806824  64.4746256
  58.3199978  75.8311892  65.9711266  52.9993391  53.7985992  53.5723305
  53.0181265  53.9092684  54.5229244  53.2466745  52.8845119  53.4326839
  65.7220268  18.2680142  27.0509672  65.1733446  17.9675996  26.3264489
  65.4869413  19.1890442  27.1635365  17.7032721  43.3687735   3.6337075
  18.2348895  44.1422272   3.4456089  17.8729200  43.1802225   4.5566913
  28.1683445  56.9631529  29.3574786  29.1097236  57.1165180  29.4382048
  27.8278494  57.0923424  30.2426934  56.8759489  55.2109957  47.5374317
  56.6371965  55.1926851  48.4641981  57.6116371  55.8216476  47.4916458
  72.5533247  47.0945930  51.9019938  71.8729734  47.5051689  52.4356461
  72.8558779  47.7926159  51.3210773  31.6268659  71.7276144  47.3616886
  31.9181442  71.7507267  48.2732010  30.9625936  71.0387754  47.3399067
  49.0738916   1.5288572  61.6096544  49.0526104   1.0129234  62.4156284
  49.6581841   1.0416399  61.0287476  42.6822948   9.9821621   7.5016922
  43.4332943   9.3898392   7.4645382  42.5608635  10.1567137   8.4349757
   3.0285370  71.3536119  52.8407001   2.1966302  70.9229755  52.6439381
   2.7870855  72.1048784  53.3824825  58.4809971  22.7478242  49.0502310
  57.5455570  22.8304219  48.8648748  58.6657667  23.4540629  49.6693563
  35.1111412  27.1300745  25.3102422  35.7155156  26.5707636  24.8222494
  34.2975068  26.6273236  25.3485870   0.9707781  44.3198490  66.4578438
   0.6024357  43.6781931  67.0651627   0.2076685  44.7495461  66.0715103
  19.1499424  18.0318153  16.3423145  19.2562366  17.6711607  15.4620516
  19.5091712  17.3597121  16.9215071  36.3533998  12.7659023  19.3555605
  36.4008427  13.6401820  18.9687574  36.9344354  12.8081667  20.1150632
  14.1685951  15.7037771  14.5623517  14.5065022  16.1362708  15.3465724
  13.9837670  16.4199054  13.9547086  40.1103163  72.2700024  29.5182776
  40.6314516  72.2678185  30.3211737  40.4853964  72.9755020  28.9911962
  77.8211260  56.7124271  34.5001316  78.4384871  57.3106813  34.0791965
  77.4103260  57.2367859  35.1875353  66.7366743  67.4938202  65.6537676
  66.2732077  66.8571711  65.1096058  66.0801125  68.1610680  65.8536196
  24.8716760  64.1032505   1.4404409  25.5646729  64.5847893   0.9886611
  25.3261590  63.6214018   2.1314567  38.5001421  69.4939518  54.5789289
  39.0947390  69.6681929  55.3085375  38.4511566  68.5391283  54.5326519
  75.4434204  77.2713518  19.9003899  74.7273684  76.8648863  19.4122446
  75.4398870  78.1848764  19.6145606  55.7264805  77.0393324  35.0170398
  55.4017496  76.7748833  35.8777642  55.2449369  76.4885616  34.3997884
  80.6599331  15.9349215  52.8978634  80.2960300  15.1535892  53.3141899
  80.6212807  16.6082656  53.5770893  78.5695601  39.1494584  15.5579591
  78.6311483  39.9976015  15.9973824  79.1242266  39.2403007  14.7831535
  40.4511690   0.2952968  10.8996928  40.6922483   1.0543761  11.4306450
  41.0322237  -0.4027152  11.2019873  51.6215277  64.2696810  43.2046890
  51.1520433  63.5142422  43.5584211  52.5181532  64.1649866  43.5230064
   9.0819800  17.1842682  14.5864451   9.4100642  16.4233637  14.1072607
   9.8655808  17.5895166  14.9578941  77.5278950  48.4828949  46.1937189
  78.2867908  47.9013729  46.2400055  77.4658060  48.7225103  45.2690792
   2.9853344  27.3340321  45.8386087   2.3166186  27.9994392  46.0007286
   2.8935522  26.7197919  46.5669775  14.3634236  44.5175695  62.2317600
  13.4870350  44.1962242  62.0198441  14.8231554  43.7511635  62.5745392
  25.1834488  31.6095543  67.0764923  24.3552184  31.7466259  67.5363588
  25.5920410  32.4749207  67.0558977  73.0133772  33.3032465  38.3131433
  73.5494471  33.4193134  39.0976095  73.6041832  33.5044050  37.5873947
  14.7697961   1.2475555  46.0759306  15.2825093   2.0076191  46.3509941
  13.8846695   1.4285414  46.3922024  67.4230623  42.6780081  62.3291826
  67.8842402  41.8856287  62.0540810  66.8392992  42.8813124  61.5983438
  39.8784089  15.8188653  58.9445257  40.1473045  15.1157129  58.3533382
  39.5337057  15.3660095  59.7141600  54.8905897  63.6089849  63.1355762
  55.4037571  64.3882704  63.3491230  55.4894924  63.0587149  62.6308537
  50.1932621  60.9196806  46.7711830  50.5975628  61.1341858  45.9304905
  50.8587313  60.4106092  47.2340298  48.9752960  55.5451536  54.7581244
  48.0434704  55.5795097  54.5419168  49.3637180  56.2633562  54.2585850
  17.7982616   9.6076959  55.9768534  16.9372678   9.7536492  56.3687992
  17.6993060   9.8926562  55.0684261  20.1874113  62.4039268  51.1072779
  19.8024237  61.7785549  51.7212200  19.5620298  63.1280422  51.0792875
  41.5336895  66.1406469  31.4465714  40.8915234  65.5246258  31.7992425
  41.8411636  66.6293573  32.2100186  34.6187901  74.9122429  47.9963541
  33.7138104  74.7696161  48.2736635  34.5567298  75.0879765  47.0574713
  23.5184097  63.6635876  12.2813845  23.9276433  63.3759165  11.4652932
  24.2045069  63.5641670  12.9414010  69.2556953  64.0237665  56.2882853
  68.3037472  64.1140842  56.3314486  69.4156551  63.5656977  55.4631662
   9.0797108   2.8464425  24.5882058   8.7831372   2.8510666  23.6781192
   8.6598796   3.6118367  24.9808168  14.0256250  15.3947091  10.9815204
  14.5294774  14.7024345  10.5535936  13.2292891  15.4711735  10.4559410
  37.6278877  54.7701263  52.7476025  38.3431077  55.3724957  52.5430632
  37.4804640  54.8834085  53.6865759  59.1865396  62.5116205  49.7316265
  60.0008726  63.0145121  49.7176075  59.2196035  62.0251656  50.5553389
  10.8282363   5.9635538  22.9849625  11.1810970   6.1462170  22.1141267
   9.8971277   6.1742491  22.9151392  20.4631519  67.2243643  33.4415054
  20.7274151  66.9716501  34.3261147  20.1926160  68.1387901  33.5243917
  25.4180217  20.0216413  29.1719460  24.8074794  19.2847693  29.1940975
  26.1911845  19.6786845  28.7238073  23.8962770  40.7049847  58.2521820
  24.8126936  40.7144976  58.5284472  23.9157963  41.0152721  57.3468828
  40.9263611  31.6223049  63.7847662  41.4150715  32.4360967  63.6617422
  41.2292099  31.2862325  64.6283102  72.8754902  72.0022297  24.3311501
  73.0325365  72.5306749  25.1136565  72.4243546  72.5940132  23.7290668
   2.7145323   4.3517569  23.2545209   1.7577165   4.3246353  23.2544041
   2.9792845   3.4636667  23.4941745   9.8868322  13.6722410  25.5347419
   9.1059345  14.1167104  25.8647084  10.3986979  14.3653071  25.1177478
  44.6772718  73.3551693  30.6786251  43.7385273  73.2544041  30.5210328
  45.0543976  72.5125122  30.4257560  13.7244296  61.2431526  42.3237181
  12.8816450  60.8773470  42.0551491  13.5004210  62.0638895  42.7624035
  35.9261537  21.9699240   6.2881738  35.7647753  22.8962159   6.1088192
  35.2147651  21.7119861   6.8743724  55.7157278  37.6914597  14.1775620
  54.9705553  37.4117994  13.6458266  55.9531403  38.5490870  13.8249457
  67.1492767  72.3769331  53.5555363  66.6479206  72.1504974  52.7722073
  66.6352892  72.0206404  54.2801762  10.4428971  34.7358990  65.7865715
  10.8397651  35.4695940  66.2560558  11.1756134  34.3145704  65.3373051
  81.2166214  67.8445053  54.9346495  80.9544373  68.7377834  55.1572323
  81.9308662  67.6465559  55.5403757  47.2989845  49.1790247  45.2295637
  48.2504368  49.1818333  45.3342724  47.0458364  50.0981188  45.3156662
  32.5332546  23.1800938  26.8004656  32.0291495  22.3931742  26.5934205
  32.1502185  23.5021210  27.6164389  72.5769854  31.0323977  53.5633039
  72.5368595  31.4859128  54.4052935  73.1316710  31.5895963  53.0173302
  69.4544077  23.3630395  50.7976532  69.3718052  22.9544497  49.9359894
  69.4343996  24.3033504  50.6197548  69.9584866  53.1934404  43.3910704
  70.2734661  52.3822975  42.9922342  69.0103912  53.1717873  43.2611799
  10.3829598  32.1856928  12.1965063   9.4671476  32.1313190  12.4695706
  10.4757559  31.5028477  11.5321708  35.4150105  57.4223852  13.0501139
  34.9732947  58.2295752  12.7863646  34.7435069  56.7448997  12.9705513
  77.9506746   0.2314924  48.0865383  78.7703958   0.2957891  47.5964832
  78.2057205  -0.1360346  48.9327669  64.9362183  77.4624062  56.8126154
  64.1625690  77.8440952  57.2273493  65.6673670  77.7491522  57.3598146
  12.5122941  55.2142811  55.6415319  11.8775570  54.5358515  55.4111433
  12.0124722  55.8430386  56.1621809  59.8126364   7.4726331   5.4973477
  59.5254469   7.3393065   4.5940334  59.0014267   7.5033712   6.0045201
  27.8866529  77.5880957  38.7263465  27.9744434  77.1879244  39.5914412
  27.6276445  76.8661594  38.1536722  58.8947010  61.0979795  52.0558262
  58.0939150  60.6025791  52.2277164  59.5584345  60.6775904  52.6026011
  67.9657459  62.1482754  48.2564640  67.2169781  61.5519953  48.2622862
  68.3416033  62.0522404  47.3814011  16.4598083  71.3286352  29.7954893
  16.1544466  70.9646893  28.9645100  17.2471511  70.8251953  30.0025487
  26.8310070  62.7617121   3.0879027  27.0657611  62.2402477   2.3203096
  27.6700234  63.0498743   3.4474105  35.9012461  15.7187295  58.1291246
  35.1639724  15.2199078  57.7772236  36.0806441  15.3143525  58.9779615
  38.9838076  52.7023458   8.8220578  38.1404614  52.8720760   8.4023064
  39.6297312  53.0713606   8.2196939  66.5815496  54.7995710  61.3205671
  67.4937677  55.0398731  61.1582518  66.6230822  54.1797638  62.0488167
  55.9384108  69.5949078  23.8630724  55.4539967  69.7585201  24.6722746
  56.6076708  68.9564705  24.1094804  78.7830114  62.1631241  25.0443125
  78.0771685  62.2789240  25.6804013  78.8009071  62.9850769  24.5541048
   5.8853018  48.0408764  47.8027105   5.5578297  47.3212433  48.3422756
   6.3531148  48.6069250  48.4166908  52.4250698  60.0675774  66.9931078
  52.5502586  60.9385920  66.6164160  52.8567600  59.4758272  66.3769007
   1.5122961  47.6810217  38.5368752   2.3134220  48.1185865  38.8249135
   1.1753576  47.2551012  39.3250990  52.0249319  67.8269815  55.6689596
  51.3756847  67.6966524  56.3601351  51.5131903  68.1031847  54.9086523
  10.0687420  42.2694302  39.2031002  10.2389944  41.4561605  38.7278795
   9.4719565  42.0151138  39.9069500  65.1095343  73.7585115  45.1972485
  65.5673313  72.9197788  45.2536488  64.5432901  73.6712265  44.4304562
  68.8979244  37.8998160  54.0370607  68.8619328  38.8310909  54.2553806
  69.8244715  37.6717257  54.1126585  26.8947291   8.8755435  43.4747267
  27.6981664   8.3564013  43.4399319  27.0116472   9.4472563  44.2334795
  72.6123047  46.9735527  38.7378001  71.7116499  47.1468258  39.0117097
  72.5244522  46.5127707  37.9034162  42.7347803  64.1177320  61.9114542
  42.2110462  64.5481491  62.5872278  42.9561472  64.8180962  61.2976789
  13.3496141   7.1180427  33.7790513  12.7135420   6.4038455  33.7394786
  12.8852999   7.8726441  33.4168053  79.8198271  63.7848949  32.2048092
  80.6215858  64.2919397  32.0770788  79.6476650  63.3896828  31.3501763
  78.2226276   7.8176051  60.6859636  79.0311050   7.6546305  61.1718035
  77.5726366   7.2550583  61.1070156  64.3738365  45.9218550  50.4440832
  64.3613482  45.9655237  49.4879627  64.1110754  45.0239134  50.6462860
   4.1920859   3.5727614  20.0404549   3.3987007   3.3732054  20.5373931
   4.6160513   2.7237844  19.9150646  78.7391424  29.9600005  45.8698273
  78.0944157  29.5209455  46.4246178  79.2974138  29.2531300  45.5459499
   6.6373199  66.8252611  59.7479200   7.5120395  67.1540737  59.9552441
   6.3084865  66.4795828  60.5777454  80.4074192   2.4202046  43.3589172
  79.5746517   2.6419809  42.9423189  80.5189610   1.4849478  43.1883764
  14.1368520  70.6577015  13.8636792  14.5574701  70.2637672  13.0993974
  14.2441475  70.0074482  14.5578599  78.1586790  34.7497225  56.5624857
  77.3872089  34.1960907  56.6831350  77.8890467  35.6097770  56.8847275
  31.5078855   0.7895064  46.5840435  31.1918497   1.6762611  46.7573023
  30.8005905   0.3755193  46.0894918  50.7069683   7.5980300  54.2400169
  51.5641928   7.1792996  54.1621208  50.1363325   6.9126612  54.5876884
  10.2596855  19.9850988  56.0423517   9.3529230  20.1301193  56.3125038
  10.4573989  19.0954137  56.3349295  37.5113535   4.8238134  52.1007442
  37.0790291   4.5661819  52.9149628  37.4953222   4.0336984  51.5606546
  48.1786823  29.7110462  54.6384001  49.1210938  29.6565032  54.7968912
  47.9022408  30.4987526  55.1067257  14.1990721  18.2544756  28.1455493
  13.2513022  18.2323289  28.2777309  14.4511378  19.1505456  28.3686018
  16.3726950  28.2768679  17.0380580  16.6532242  27.3659730  17.1264064
  16.9736421  28.7679720  17.5983357  74.9991941  55.2333307  55.4861355
  75.5015707  54.8119688  54.7887850  74.6837473  54.5083523  56.0257053
  31.4421463  13.7842488  66.1262608  31.3382697  13.0078566  65.5761194
  31.7542553  13.4437239  66.9646263  78.8844776   8.4784329  55.2037239
  78.5862780   8.4561753  56.1130142  78.3713722   7.7987647  54.7666836
   7.4206424  60.8172464   7.7796596   8.0297577  60.0820065   7.7116126
   7.8909850  61.5547037   7.3908609  74.5031309  21.1484981  48.9513683
  74.5468187  20.2142167  48.7477922  74.8434877  21.2154078  49.8435068
  60.4516506  60.6271410  61.3884354  59.8744392  60.8558226  62.1169710
  60.9642649  61.4200306  61.2310028  65.1966000  72.2791529  61.2173367
  66.0001469  71.7915487  61.0362673  65.0265789  72.1241093  62.1464682
  76.3453007  64.4254017  43.6058760  75.7877398  65.0553846  43.1492805
  76.8509436  64.9555111  44.2219448  81.9304657  51.8637753   4.9050045
  81.6566372  52.7657080   4.7383726  81.1459732  51.4344692   5.2463168
  71.1875391  20.3898644  48.6542654  71.6674805  19.6806872  48.2265329
  70.3674603  19.9864948  48.9388657  19.6944273   1.5907450  47.5391865
  19.4379675   2.5058141  47.4246931  19.2314363   1.3091733  48.3282280
   5.4431593  47.3930693  65.4470110   6.1140329  47.0897055  66.0586739
   4.6151963  47.1364355  65.8530235  76.1206007  13.3204639  65.3380871
  77.0165777  13.1025040  65.0812674  75.5734253  12.7212870  64.8303318
  61.6025209  69.3032122  47.5391674  61.7820168  70.1637173  47.1602917
  61.2876129  69.4917107  48.4232140   3.2209665  35.1393962  59.9152994
   2.7642432  35.9207201  59.6035767   2.8173536  34.9477720  60.7618237
  23.6088443  75.2620554  31.4864326  24.3273568  75.4956913  30.8987379
  23.3018756  74.4145632  31.1643171  40.2166939  15.0161850  22.7168107
  41.1147785  14.8895109  22.4108243  40.3122044  15.3369999  23.6135745
  37.4585199  35.6034517  13.6877441  36.8555522  36.2670827  13.3526981
  37.1342587  34.7796416  13.3238387  39.1530991  65.5609798  40.2968311
  39.7794628  65.2740240  40.9613276  39.1162038  64.8356199  39.6733546
   7.1933573  72.4779463  42.0793962   7.2006506  71.7083788  42.6485538
   6.5551436  73.0672026  42.4815130  60.4318714  74.5508432  46.1264467
  60.2676630  75.3975153  45.7112217  61.3234472  74.6203709  46.4677525
   3.0448937  52.9065704  36.5628815   3.1037796  51.9628954  36.7120075
   3.5554710  53.0556154  35.7670617   9.1992807  63.7524557  25.3026843
   8.2808930  63.5203409  25.1651335   9.6348530  62.9169178  25.4711652
  48.9826250  34.9401140  51.1925888  49.1242266  35.3449368  50.3368473
  48.1852531  35.3531766  51.5239620  41.4189053   6.9931805  48.1944418
  40.8155632   6.4726251  48.7247562  41.7633581   6.3763857  47.5485706
  27.9484272  25.4199576  38.3588386  28.5468674  25.8998513  38.9313793
  28.5212159  24.9607325  37.7446270   5.3771991  50.7091284  45.0452805
   4.6581975  50.8298874  44.4250488   5.1355052  51.2463951  45.7997084
  31.9219542  27.7786303  57.4215221  32.2257710  28.0561352  56.5572786
  31.8098497  28.5945201  57.9093599  62.5073719  63.5989523  42.0948505
  63.0176210  64.3995523  41.9727182  62.4678659  63.4825802  43.0441284
  71.2332249  14.0241897  24.7325778  71.0414553  13.4516931  23.9898086
  72.1889973  14.0683520  24.7604346  64.7935057  72.6665258  35.1166058
  65.5320549  72.4553061  34.5454955  65.1867867  73.1332016  35.8540177
  79.1084909  71.2027979  24.2032504  78.3618498  70.8004475  24.6469545
  78.8600206  71.2143612  23.2789326  61.0841084  50.6991482  36.8320322
  61.6222525  51.0324812  37.5500321  60.1924419  50.7011175  37.1801138
  50.8230495  77.1636438  40.9876728  50.7091236  76.2538624  41.2625408
  51.3390160  77.1080256  40.1833582  59.5734501  17.7370834  37.5953698
  59.5478201  17.7233887  36.6386104  59.8894405  18.6137772  37.8139782
   5.1765269  21.8607211  15.8677208   4.3428928  22.3158669  15.9865832
   5.7041979  22.4610329  15.3410137  26.1844087  23.2607079  38.3111644
  25.8295441  23.6575890  37.5156856  27.0566750  23.6443639  38.4016633
  71.7905664  12.7470362  55.2737188  71.9138241  13.5853231  55.7190418
  71.5358734  12.1412659  55.9697104  48.7742615  69.2794800  46.1182213
  49.5241499  69.8577929  46.2577200  48.8202906  69.0470791  45.1908064
  46.1877871  67.8558302  58.4593868  45.7124090  67.3018599  57.8402233
  46.6801786  67.2402525  59.0023804  76.9318867  13.7560761  43.0858040
  77.7890921  13.6454737  42.6744652  76.6132307  12.8633749  43.2191324
  24.4344902   7.2180432  65.6268549  24.7458649   7.7175319  64.8720121
  23.6312842   6.7969638  65.3206158  39.9850917   9.6292251  42.5827837
  39.7259188   9.7459912  41.6687632  40.8421612   9.2055315  42.5364590
  18.7676132   1.8853074  52.1881056  18.2578576   1.7816615  51.3845921
  18.8251424   1.0014126  52.5509453  26.3509274  74.4622564  17.9886532
  25.6461048  74.6792889  17.3784447  26.3651848  73.5053492  18.0075514
   7.7238131  75.2876043  38.5654259   8.2100999  74.7023058  37.9847527
   8.0198443  75.0527477  39.4448805  41.4768124  28.2593870  38.5483885
  42.2334051  28.6233091  38.0886459  40.7437611  28.8126445  38.2786345
  65.8887959  49.2079592   9.3447125  66.6132259  49.7805119   9.0924942
  65.1940918  49.4105148   8.7181413  72.6477432  27.6313448  26.1826038
  73.1181383  26.7979670  26.1616945  73.1794262  28.2199955  25.6468463
  11.4459312  10.7565844  49.4552517  12.3782587  10.9604192  49.5290518
  11.2858796  10.7050979  48.5129309  62.2730637  61.2540054  56.1488724
  62.5317764  61.2538004  55.2272987  62.3824358  60.3451347  56.4285517
  71.9249439  72.7401590  53.8015318  72.3832750  72.7637959  54.6415329
  71.2501478  73.4147453  53.8778162  19.2396700  20.3482556  52.4995518
  19.2028964  20.1083422  53.4254694  18.6622190  19.7197938  52.0661736
  73.3039951  75.4077768  29.3804502  72.5651503  75.9136724  29.0421963
  73.3817720  75.6796408  30.2949309  13.7159240  45.9464550  12.3098624
  13.3619380  45.2596998  12.8749204  12.9435110  46.3759470  11.9422400
  15.4487085  49.6702242  30.4437351  16.1390698  49.5889759  29.7856832
  14.6630847  49.8860312  29.9412870  55.1203871  22.6409626  27.7741146
  55.5099344  23.1383753  27.0550418  54.3882322  23.1817126  28.0703688
  42.7354240  74.8238182  41.7985630  42.1627283  75.1259947  41.0936213
  42.2874355  74.0589666  42.1598673  35.1592445  26.9400620  10.1584661
  35.0530028  27.0233369  11.1061001  35.0162220  27.8249717   9.8227394
  19.0341783   4.7892594  43.3598757  19.5009136   5.0223374  44.1624117
  19.3005145   5.4551417  42.7259207  70.2370834  15.4489326  53.5880089
  70.9254694  15.9286678  54.0486717  70.6855297  15.0364161  52.8497982
  74.1064978  37.0892143  49.3917608  73.8306093  37.5369549  50.1915407
  73.5954571  37.5038719  48.6966848   0.9498151   0.8866543  17.4401999
   1.3879140   0.3289221  16.7973697   1.1316426   1.7792864  17.1463001
  43.8198805  58.5808468  45.9267569  44.2593336  59.3536758  45.5720091
  43.4452915  58.8778591  46.7560339  46.3674974  73.5170889  55.5115509
  45.7694721  74.0021372  54.9429369  46.6246271  72.7542925  54.9936152
  62.1721220  64.4817448  32.0122409  62.1370888  65.3740025  32.3570228
  61.9469500  63.9272833  32.7593017  53.8984060  33.6469007   0.3709153
  54.1597700  33.3283615   1.2348904  52.9752111  33.8793278   0.4705326
  17.8384066  27.4250269  55.9530115  17.9057372  26.6917849  55.3414059
  17.5136518  28.1515479  55.4210949   6.1606872  16.9092619  41.2349701
   5.2545911  16.6011465  41.2519026   6.5214556  16.6388071  42.0793200
  60.6609821  32.5958037  13.3402729  61.4742422  32.1902061  13.6408210
  60.7920408  33.5325646  13.4870112  57.7828074  68.4009218  41.4088583
  57.0218325  67.9983807  41.8273163  58.3829880  67.6720905  41.2513256
  25.9822893   9.0207613  27.1798992  25.8727551   8.1251365  27.4994135
  26.9301271   9.1379988  27.1159339  44.8437643  67.4180365  64.3538332
  45.7013369  67.0998621  64.0717554  44.6432495  68.1333113  63.7501717
  40.4664421  71.8719912  24.1316509  40.0709629  72.7409029  24.2010522
  40.2137232  71.5625954  23.2617998  27.4549484  63.7947369  32.3557019
  27.7678251  63.8294125  31.4517474  28.2389116  63.6121130  32.8736615
  61.8701792  58.8927841  42.2084284  62.0396090  59.6648741  42.7482462
  62.6217318  58.3211565  42.3654270  82.4420452  40.2996874  49.9819565
  82.0375252  41.1657286  50.0325871  81.8775368  39.7401071  50.5152750
  27.8175807   1.3215506  37.7886200  28.2614493   0.7791574  38.4405565
  28.5274339   1.7464158  37.3071337  46.0663462  64.1677666  64.6771669
  45.2235889  64.1747046  65.1309824  46.5760708  63.4951639  65.1288462
   3.6917526  51.5011644  31.5017533   4.3256837  51.8177795  30.8582330
   3.4520876  52.2794342  32.0048308  64.6758509  51.9958305  21.3466430
  65.5627871  52.1797943  21.0372257  64.5840454  51.0469675  21.2602830
  77.2874355  74.4913340  61.1340475  76.7605782  73.8406229  60.6701183
  77.3643303  75.2202845  60.5184555  74.4320154  53.8617468  22.6725078
  74.4867802  53.9313602  21.7194152  73.6677837  54.3879890  22.9075718
  27.4002218  55.2673101   4.1108680  26.9265604  56.0883856   4.2439276
  28.2717180  55.4325342   4.4706273  82.8155093  56.2337351   0.8621916
  83.2271101  55.4539013   0.4898004  81.9957545  55.9147835   1.2396897
  67.4227963  40.8455184  67.0035541  67.9414163  41.4627341  67.5196073
  67.4248586  41.2117563  66.1191914   3.4739602   8.4564787  16.5891123
   3.9609173   7.8182060  17.1103716   3.4443119   9.2406625  17.1372068
  69.1178560  50.9324074  63.5546017  68.1762505  50.7861567  63.4639406
  69.4975615  50.0537395  63.5571957  49.8900557   4.1353983  11.8645036
  49.8307991   4.3845871  12.7867961  49.2172623   3.4635228  11.7542279
  64.9443626  55.3293180  28.2891703  64.8365498  56.1419439  28.7833881
  65.4722691  55.5785751  27.5306082  52.4639082  25.3902864  25.2551579
  52.3801327  24.7778463  25.9859991  53.2382536  25.0904775  24.7789907
  78.1211519  16.2906396  51.5668011  78.8833570  16.4468288  52.1243668
  78.2857275  15.4351103  51.1702967  46.1571312  65.7924604  56.4818716
  46.8866396  66.3742733  56.2684679  46.5028000  64.9117422  56.3366652
  74.6126747  15.7336724  18.9548934  74.5219231  14.9047744  19.4249189
  73.7535858  15.8797312  18.5588336  44.8695087  12.0816398  67.4573421
  44.2374706  11.7086661  66.8428040  44.4038200  12.8108358  67.8667831
  74.3767786  62.1780300  39.5168805  74.0052509  63.0102110  39.2241740
  73.8346529  61.5118694  39.0943122  47.5106812  27.8528142  63.7321424
  47.8321886  28.6750054  64.1020966  46.6649818  27.7129889  64.1581440
   6.4690185   3.2709014  38.1124640   6.7143559   2.6036012  38.7533641
   7.2970784   3.5317111  37.7093172  48.6299372   8.9390349  32.8977585
  49.5165777   8.6949652  32.6321816  48.4731913   8.4380150  33.6981606
  33.6148214  31.8755674  13.3416843  32.9278779  31.2549257  13.0984867
  34.3241096  31.7024589  12.7226722  59.0357685  17.6358843  47.4864721
  59.1195774  17.3145986  48.3842373  59.7105551  17.1633661  46.9990063
  61.9128990  20.6368685  17.1883106  61.2551069  20.5553460  17.8788888
  62.5387287  21.2765622  17.5279582  10.8654976  30.3948808  43.0592108
  10.7560885  31.0832238  42.4031258  10.0948179  30.4750037  43.6212301
  52.6599503   9.0447289  35.2828884  52.2348261   9.7460073  34.7892189
  53.5322046   9.3857735  35.4806137  61.3006926  65.7466364  27.3400211
  60.4255295  65.7906342  26.9548178  61.5327454  64.8187685  27.3020029
  39.0907073  38.2259536   6.5638798  39.9541736  38.6384344   6.5411758
  39.1748047  37.5299692   7.2156209  61.1835861  14.2713583  51.5540648
  60.3358650  13.9997220  51.9059277  61.8028450  14.1026568  52.2641993
  32.0388055  15.5715156  23.1224608  31.8398190  15.4097748  24.0446734
  31.6307878  16.4166498  22.9340458  76.6081047  39.3941307  58.1235600
  77.2590446  39.8700476  58.6393213  76.6561460  39.7898173  57.2532988
   3.5401535  62.3601437   1.2249981   2.9929474  63.0961275   1.4990872
   4.4123352  62.7385187   1.1138091   5.2663434  11.9316840  59.0187979
   4.3449208  12.1370637  59.1770124   5.3208774  11.7878664  58.0740356
  68.9210367  67.3182726  39.1850448  68.6666393  67.1069002  38.2868028
  68.7876654  68.2635021  39.2556190  53.7390757  63.4979248  36.8203378
  53.1298304  63.7462282  36.1250687  54.4667435  63.0773449  36.3622475
  43.3144617  12.9916215   9.3993014  43.4814119  12.1016026   9.7095037
  43.0974483  13.4843457  10.1907301  23.1201530  23.5689068  37.2351122
  23.5498405  24.4059539  37.0591879  22.6082492  23.7246037  38.0288029
  80.2238655  63.3397722  13.8988507  80.4314518  63.2004118  14.8228180
  79.7359800  64.1631794  13.8845325  66.7955065  49.2044020  11.8680024
  66.3389969  49.0168142  11.0478556  66.5773010  50.1163244  12.0604134
  13.1482863  17.8369403  52.0801210  12.2430897  18.1306612  52.1829796
  13.6600256  18.6451733  52.0467615   0.3196833  12.4950397  64.8394871
   0.5599342  12.1700954  63.9717770   0.9685096  13.1726182  65.0296021
  35.6436634   7.1670711  19.1000795  35.5001497   7.9459059  18.5624433
  36.2699485   6.6432369  18.6004829  35.1810360  49.4072866  17.9442000
  35.0501180  50.1908922  17.4102998  34.4313431  48.8489914  17.7380311
   1.8490776   8.8606203   7.3362392   2.7238473   8.9607179   7.7117264
   1.8079439   7.9432678   7.0660472  54.8533726   1.8069647  37.3730493
  55.1613379   0.9690473  37.7184224  53.9340210   1.8510117  37.6358867
   1.7415304  77.0277739  46.0005474   1.7584522  76.1636877  46.4120102
   1.4678916  76.8584585  45.0990534  21.4611292  31.6043687  31.3989305
  20.5139971  31.4838767  31.3306880  21.5666342  32.3278141  32.0167732
   0.8201706  62.4277258  21.1498475   0.9454444  61.4843369  21.0471201
   1.0587190  62.7950954  20.2987504  20.3527331  22.5245285  43.7129307
  20.0137758  23.3319330  44.0995026  19.7441030  21.8456006  44.0042353
  44.2350864  14.5939934  50.2110720  44.1053057  15.0112057  49.3594122
  43.3757925  14.2376673  50.4366493  38.3219624  25.4792929  37.3944807
  38.7047577  24.6033335  37.3455763  37.6083112  25.3938580  38.0266452
  29.2926979  43.4911013  24.6488309  30.0562167  43.8448668  25.1050353
  28.9764237  44.2178154  24.1120887  82.1041012  52.4465132  36.5443373
  82.5685120  52.7553892  37.3222566  82.7414131  51.8979931  36.0869575
  30.6614923  24.0158629   4.9701786  30.2789307  24.6369553   4.3504024
  29.9617696  23.8447642   5.6005329  12.1686554  26.0969019  64.9393082
  11.9139457  25.1772332  65.0139046  12.8874385  26.1977291  65.5633402
  33.6053848   4.2824367  33.6675930  33.6640334   3.3776906  33.3606291
  32.6678085   4.4752628  33.6669922  80.5361652  50.5528927  26.9587541
  81.3990784  50.9585905  27.0425320  79.9309683  51.2906313  26.8831897
  26.2330341  31.9027019   4.1726413  26.3766026  31.4890528   3.3214578
  26.7584705  31.3846469   4.7823691  31.5071678  12.2961211  45.8872652
  30.9910798  11.5523767  46.1982822  30.9929037  13.0646348  46.1345577
  62.4081469  75.5818748  39.6680903  62.6401520  74.6554708  39.7327256
  62.0875740  75.6865644  38.7722635   1.4451216  40.9483698   0.5806022
   2.1568583  40.5346840   0.0922113   1.4433621  40.5006881   1.4266592
  57.9132318  63.5008097  67.3301411  57.9030704  64.4430590  67.1619463
  58.8422728  63.2781124  67.3895121  18.5487688  19.7663617  55.0508261
  17.6106834  19.8353183  55.2282333  18.6759889  18.8555825  54.7852564
   8.8738203  48.6098719  40.1053762   8.6418980  49.5009899  39.8439169
   9.1739941  48.6961985  41.0101843  56.5000105  76.0864305  22.4790525
  56.2268925  76.6589165  23.1959224  56.2413836  75.2091217  22.7613187
  20.8058524   6.7882323  24.1218185  21.0959363   7.3977560  24.8004699
  20.0722599   6.3189149  24.5190811  70.7461502  76.9898251  29.7903705
  70.0791015  77.6381995  29.5647860  70.8540751  77.0767884  30.7374835
  29.0531754   1.1794072  52.7490091  28.9302063   0.5190395  52.0670843
  29.5977950   1.8503144  52.3372984  61.5969133  61.0406399  32.2182035
  61.0044670  61.3594770  32.8990722  62.4212503  60.8758211  32.6759529
  24.9500084  67.3272514   7.6252413  24.0720201  67.6063919   7.8849548
  25.2932143  66.8707514   8.3933890   0.9937628  11.1225355  30.3146958
   0.5948091  10.6599808  29.5777345   1.7762500  11.5318012  29.9453092
  34.9917340  68.1965733   0.3672844  34.6185398  68.1932259  -0.5141620
  34.2450571  68.0354452   0.9441257  41.1098719  19.2298949  18.2856894
  41.7501831  19.6817958  18.8352537  41.5328741  18.4025145  18.0560231
  56.8787050  15.6170774  23.0983353  56.1927128  15.7629156  23.7497807
  56.8829536  14.6694994  22.9630184  15.7900035  54.3280554   6.9906837
  15.4345322  54.6742105   6.1721188  16.3717985  53.6185312   6.7180640
  44.3037271  12.1923840  39.0609980  45.1175213  12.3443162  39.5415115
  44.1510296  11.2507689  39.1402149  35.6236529  68.2907343  49.8203039
  35.9915185  67.5698042  49.3092632  36.0556698  69.0727425  49.4767141
  20.7091713  58.4509802  43.8466644  20.0125957  57.7957439  43.8876772
  21.3034964  58.2136011  44.5584631   8.4313834  17.2183371  28.2649446
   8.3988941  16.8029499  29.1267037   8.6974829  18.1202650  28.4436870
  71.3534260  29.8024750  18.6689210  71.7551279  30.3719306  19.3251109
  71.8774557  29.0018415  18.6935472  29.5000744  16.4677525  57.9020309
  29.8132515  16.8594229  57.0867109  29.7156286  15.5387759  57.8197527
  31.2593365  19.8036325  40.7302284  31.0144496  20.1506090  39.8724008
  31.4465404  18.8787055  40.5699253  63.5681677  54.8798561  50.8716965
  63.6175728  53.9914894  51.2246752  63.6561537  54.7667789  49.9252796
  46.0313129  24.2757535  49.1227674  45.8044577  24.4818544  50.0295687
  45.7749557  23.3599663  49.0139532  58.9538908  66.6416740  32.4375987
  59.6125746  67.0038939  33.0301905  58.1193066  66.8119764  32.8742886
  42.5416040  60.9500647  37.4628901  42.4177170  61.7156363  38.0239487
  43.4897089  60.8897734  37.3458886   6.3666648  75.0650167  18.8066220
   6.8376136  74.2579508  19.0141904   6.8170518  75.7418442  19.3118799
  46.1075735  34.3678880  65.9591770  46.8939543  34.9124122  65.9226131
  46.4258146  33.4773421  65.8112526  22.9522943  41.4002657  28.5873652
  22.2791409  41.8628597  28.0882645  23.4499454  42.0946503  29.0191126
  42.8799915  11.6168845  32.7179599  42.8586340  12.1141028  33.5356069
  42.5149775  12.2139955  32.0649242  40.6954288  10.0440955  28.2506466
  40.0898790  10.7753801  28.3721638  41.4975834  10.4495335  27.9214048
  76.0150290  69.3065882  67.4138880  75.6246996  70.1349878  67.6925087
  76.4130020  69.5026302  66.5657043   6.5387440  46.2740326   5.7183057
   6.5353644  45.3228092   5.8250588   5.8254421  46.5804243   6.2782657
  42.4697828  45.0725365  55.8729219  42.3465157  45.2088118  56.8123150
  41.5856552  45.1075315  55.5077744  35.9476757  22.5575757  47.3123789
  36.1813903  23.4849405  47.3523951  36.6597223  22.1111393  47.7705431
  11.9283772  70.6561565  48.8545132  12.7556694  70.7300377  48.3787394
  11.5185153  69.8666334  48.5010958  40.5848360  16.6826904  25.1374793
  40.7495737  16.6460204  26.0796833  41.1234331  17.4110961  24.8283339
   1.2013996  59.5621490  43.1030273   1.1501734  60.3396368  42.5470448
   1.1167701  59.8994255  43.9948320  56.2578154  33.4811020   9.9878883
  56.9063091  33.6336064  10.6752229  55.4483747  33.2879543  10.4608929
  33.5188437   1.3009562  55.1724577  33.2186627   2.2089636  55.2130270
  34.4409657   1.3644311  54.9236774  49.7496462  24.5112658  35.4946041
  50.2013063  23.7476444  35.1352787  49.3847036  24.9557090  34.7294092
  22.6874423  49.1875267  45.1524353  23.1233692  48.4194660  45.5215979
  23.3155417  49.5392895  44.5215702  76.3107967  55.4586887  47.3952818
  76.0647011  54.5420647  47.2709131  75.5657148  55.8465767  47.8542185
  59.3841410  69.9026728  43.4495354  60.0551367  69.6051216  42.8351593
  58.6025190  69.4046402  43.2102442  10.7652509  30.0576019  23.7687302
   9.8254830  30.1980543  23.6532259  10.8400357  29.6253157  24.6194768
  34.6784353  19.6326447  32.0167518  34.1954184  19.4519126  32.8231406
  34.2545247  20.4098248  31.6527152   1.8567473  22.5713658  33.0605388
   2.5096297  21.9706249  32.7012515   2.0312886  22.5798321  34.0016532
  11.4140821  74.2763042  11.6536760  11.4663446  73.5347414  11.0506952
  11.2086511  73.8817930  12.5012589  78.2785130  60.9229612  13.4687710
  79.0505123  61.3093662  13.0553234  77.6906633  60.7242823  12.7399445
  38.6326051   0.3202624  43.7370062  37.8667855   0.7751851  43.3865786
  39.2831302   0.3719978  43.0367374  17.4410915  35.5430055  58.8480949
  17.7282584  36.0631132  58.0975914  16.4852512  35.5812454  58.8143396
  12.4107039  67.9631090  66.4989090  13.2856679  68.3471489  66.4424849
  12.2297144  67.6483679  65.6132364  76.2993622  30.0515747  65.8492374
  75.6369781  29.3688989  65.9561491  75.8606577  30.7333851  65.3404093
  26.4106441  19.5586014  35.7189894  25.4841542  19.4372010  35.5113506
  26.7174792  20.2005434  35.0786805  38.9826226  12.7908385   8.1383020
  39.6064711  13.0688930   7.4676818  38.5312271  13.5953188   8.3938074
  27.1876526   1.8760774  29.9412727  26.2341118   1.8934846  29.8594975
  27.3993325   2.6626614  30.4439759   2.5104955  62.7018881  62.3318720
   2.2721039  63.4253693  61.7522383   3.3608946  62.9536915  62.6919413
  12.6776338  68.6342144  34.6951389  12.2826183  68.0551910  35.3470016
  12.4228108  69.5146465  34.9710751  28.5928988   0.9942733  61.4838552
  29.3974519   1.2276345  61.9469643  28.8889360   0.4752951  60.7360220
   2.0954187  75.1066542  14.2050803   2.3456405  74.6093655  14.9837482
   2.8602177  75.6485319  14.0109527  22.9244804  77.4439859  28.6750340
  22.6714659  76.6621923  29.1659689  23.8345933  77.2853708  28.4245014
   2.5359702  60.9867525  35.8072138   1.9906364  60.3510332  36.2705755
   3.3474666  61.0204601  36.3137388  16.1166155   9.0888709  50.8396912
  16.7055106   9.5190471  50.2197075  16.6978002   8.5999024  51.4222431
  52.0696354  20.9664941  18.6234999  52.4428701  20.5842805  17.8292453
  52.6505995  21.6977358  18.8332617  77.8938961   6.4604008  36.8120360
  78.8510132   6.4676780  36.8220353  77.6424313   6.9936919  37.5660920
  19.2482209  63.0159426  26.2621927  18.7832105  62.7991390  25.4541111
  18.7472236  62.5795937  26.9512725  22.1909881  66.6903257  35.7676244
  23.1213784  66.5642452  35.5813146  21.9755864  65.9971428  36.3915896
  16.1701560  15.9644556  42.6422310  15.3435051  15.7925582  42.1913052
  16.8240786  15.4831147  42.1353483  41.8697214   7.1565765   4.6222728
  41.8298674   6.3289636   4.1430029  42.4525404   6.9781262   5.3603172
   6.9247299  67.9506969  35.5927944   6.7372692  68.1012821  34.6662879
   6.0628372  67.8811359  36.0033226  45.1753139  11.7426801  53.4782076
  44.6777534  11.7316866  54.2958498  44.5503378  11.4529669  52.8136015
  12.7885568  43.0982494  39.3497515  11.9600928  42.8089905  38.9673781
  13.3934760  42.3747158  39.1860223  20.1755762  72.8661680  52.7601147
  19.4781995  73.0508041  53.3892441  20.8411217  72.4034834  53.2692337
  47.2804403   3.7023088  16.9486058  47.1149874   3.5609698  16.0164678
  46.4225101   3.9181778  17.3141062  41.1928177  67.5513077  36.8574834
  41.5758896  68.3943605  36.6150999  41.9460201  66.9901514  37.0419240
  57.7957773  76.4474535   0.4981324  57.9720354  75.9979439   1.3246351
  57.0638323  75.9646273   0.1142467  53.0024242   7.9288137  45.5622482
  53.2966852   7.7465272  44.6698284  53.7957096   7.8639573  46.0939693
  20.7786012  74.5357800   5.2519345  19.9196684  74.2288303   5.5421913
  21.1690927  73.7781191   4.8163918  13.0356467  15.5548131  47.0715952
  13.0918062  15.3823292  48.0114460  12.1707094  15.9467828  46.9512796
  57.1265888  58.3641863  10.9784651  57.0970535  57.7144051  11.6807079
  57.9580212  58.8201904  11.1088979  63.6951542  13.4572256   3.0063492
  63.9936590  13.8232255   2.1737812  63.9747763  14.0955198   3.6625674
  53.2178879  49.2074537  57.4057341  52.3069811  49.3101788  57.6812744
  53.7218332  49.2673683  58.2173252  41.9094944  70.1653099  13.4729838
  42.5780296  69.7625446  14.0271306  41.6798687  70.9766579  13.9259923
  51.9028521  33.0841088  22.3079085  52.6251745  33.6529326  22.0415998
  51.2113571  33.2604957  21.6699767  48.7395048   4.0321800  38.2486606
  48.6488199   3.9662701  37.2980475  49.0728569   4.9171653  38.3966732
  67.6358747  44.8222589   4.7549310  67.1323204  44.5880604   3.9753067
  66.9900656  45.1980066   5.3532457  20.8575654  70.3136826  33.8806009
  21.5802693  70.3410435  33.2535601  20.5740762  71.2245512  33.9592314
  59.1472435  42.6735306   7.7691430  59.8797941  42.1547365   8.1014913
  58.9998674  43.3383083   8.4418845  31.0694814  15.3153217   3.3177072
  31.1078191  14.8815787   4.1701323  30.2524090  15.0048614   2.9275310
  66.8032742  75.9447193  45.9905624  66.0507298  75.8333015  45.4096174
  66.4218044  76.0170174  46.8654823  38.7174916  53.9454460  62.4741030
  38.6577582  53.3066320  63.1844378  38.0520034  53.6669779  61.8449640
  62.1064472  35.4162550  14.4189942  61.7930698  35.2458000  15.3072345
  61.4491415  36.0005355  14.0411115  65.9699202  42.6395559  60.0122643
  65.9687948  41.7476892  59.6646976  65.1287842  43.0046844  59.7376776
  58.4571648  49.9319363  51.6517115  57.7742290  49.5743132  52.2191048
  58.3441353  50.8806753  51.7095900  82.3566818  21.3483119   6.8228239
  82.5883770  20.5856776   6.2927908  81.7419147  21.8403792   6.2786162
  48.7778282  16.9649327  61.2995672  49.3142176  16.2037301  61.0780096
  47.9841661  16.5944660  61.6856861   4.3991157  48.8360643  32.9824138
   3.7603337  49.3653154  32.5048351   4.6511978  48.1497049  32.3646760
  42.8517485  41.5239859  59.2193842  42.3276854  41.0415316  58.5799932
  43.7480068  41.4638519  58.8887167   9.9399447  44.4808912  15.4486609
   9.3364376  43.8853264  15.0044584   9.4626093  45.3087759  15.5033135
  76.0410166  16.2352169  64.8884916  75.6687975  16.6175306  65.6831741
  76.2759590  15.3419697  65.1397705  46.4967966  15.2273369  44.1329002
  45.9748220  15.1870668  44.9342442  47.3169756  15.6411171  44.4018412
  64.2729664  68.5115528  51.1876059  65.1978445  68.4461641  51.4254284
  64.0244484  69.4022179  51.4349651  81.4706898  58.2893705  58.4193754
  81.9852638  57.9928255  59.1700459  80.5719852  58.0358839  58.6298752
  47.9252052  29.5251465  43.9031219  47.3437309  29.8906493  43.2363939
  47.3637772  28.9471078  44.4197416  45.7719517   9.4194126  10.3380072
  45.3606224   8.8656807   9.6743673  46.7015076   9.4166386  10.1096332
  26.1813641  69.1054678  27.8613520  26.6018701  68.8165236  27.0514655
  26.0393262  70.0437260  27.7359414  79.8088503   7.1296579  45.5347681
  79.5175266   8.0341476  45.6499243  79.0644264   6.6885179  45.1255512
  77.3045397  31.1427355  24.6132541  78.1692171  30.9177876  24.2697954
  77.4628830  31.8902063  25.1898360  49.3714619  12.6931417  38.3883381
  49.5310974  12.5422633  37.4566817  48.5944128  13.2516396  38.4108281
  44.2357779  34.7940588  51.4931631  43.4976339  34.6310234  50.9059715
  44.8880529  34.1387105  51.2455988  43.1284666  15.0872648  22.3215222
  43.1424379  14.1348612  22.2268438  43.9784431  15.3022683  22.7056432
  21.9327617  17.9337215  44.6685219  22.1676445  18.8503563  44.5241499
  21.8016076  17.8661752  45.6142855  49.2353582  21.8765426  57.2459984
  48.3111572  22.0717072  57.4008894  49.5793724  21.6460156  58.1089878
  13.4004974  61.9348478   1.6180171  13.4467113  61.9290924   2.5740835
  14.2864263  62.1634579   1.3367735  44.9179649  19.6029890  57.5077868
  45.5535746  19.0972781  57.0013380  44.0919638  19.4888806  57.0377493
  47.6588869  23.0664539  51.4140415  47.0674515  22.7290416  50.7412910
  47.9616928  22.2868514  51.8796206  36.2459397  58.2415581  38.3984876
  36.7228198  58.1304693  39.2209697  35.4865265  58.7753391  38.6321521
  41.1930561   5.4799265   7.7133298  41.9867992   5.8960187   7.3770750
  41.5118837   4.8047638   8.3122754  45.7057333  18.5960758  61.1468506
  45.9879255  18.8342452  60.2637482  45.9518766  19.3466151  61.6875315
  55.1637268  17.2532761  14.4483423  56.1014271  17.0774627  14.5260930
  55.0017738  17.2764063  13.5052264  77.4261475  36.6759539   1.2952936
  78.0467987  37.0664740   0.6800591  77.9748344  36.2052345   1.9226669
  78.6909866  51.1327553  32.6983452  78.7704229  50.1839828  32.7970886
  79.5928288  51.4525461  32.7237415  20.7527709  27.6787877  47.9450607
  20.7498407  28.1176710  47.0944118  19.9617553  27.9959011  48.3809090
  56.6277647  77.5754738  49.7066784  55.7097101  77.6683426  49.9612141
  56.9005442  76.7434502  50.0934076   1.2443206  15.5488467  54.8911667
   1.1743084  16.1600935  55.6244516   0.9367606  14.7142518  55.2448463
  23.9394498   3.0743328  61.0169029  23.9095330   3.9842886  61.3123989
  24.7454643   2.7253276  61.3973856  50.7177734  25.8247399   5.4468626
  51.3597107  25.3938794   4.8825020  50.1512671  25.1153517   5.7502997
  38.5687399   5.0734186  36.5096307  37.7775764   5.5282623  36.7984366
  38.4666467   4.1812870  36.8411565   8.0277276  14.6642756  54.2347670
   8.2285219  14.4396853  55.1433229   8.6076593  14.1064441  53.7163687
  75.6647825  66.0827541  31.8801713  75.8490896  65.1448631  31.9314289
  76.5133905  66.5017891  32.0233703  48.7195921   3.3775797   8.1910467
  48.6854410   3.0433586   7.2947419  49.6397972   3.6028832   8.3277583
  37.0555472   1.4617252  62.6840687  36.9112730   2.0730746  61.9618034
  36.1985064   1.0631946  62.8353548  77.2640514  60.2760315  35.8984113
  77.6301575  60.8319902  35.2105832  77.9572964  60.2208757  36.5561342
  79.0460587  62.8490448  47.0819187  78.6851645  62.0488691  46.7002058
  79.9800014  62.6657343  47.1837950  48.1380835  63.3471049   0.7654911
  47.4561873  64.0188183   0.7725578  48.7951437  63.6792530   0.1537853
  23.8942742  33.4074664  50.8908129  24.1174126  34.1385531  51.4669657
  24.5656347  33.4264469  50.2087975  21.4107108   4.3614730  47.8026009
  21.7017412   3.7202400  48.4509468  20.9913111   5.0501657  48.3183861
  35.8794069  12.5302780  47.3033285  35.6331015  13.1521344  46.6185951
  35.0503731  12.2867250  47.7151728   6.6934448  59.3008184  26.1221242
   5.9928089  58.6502981  26.1686492   6.2798482  60.1184940  26.3988447
  14.2967248  24.9011350  18.8689566  14.0727234  23.9890361  19.0537047
  15.0528240  25.0800371  19.4280088  73.3227396  57.7613354  28.8356876
  73.8904381  57.0345116  29.0919685  73.7897158  58.1882429  28.1174183
  36.0124660  14.8021126  37.6488113  36.2771988  14.6660876  38.5585618
  35.5201888  15.6229043  37.6627803  82.2696590  61.2094879  50.3100014
  82.8589344  60.4861069  50.5237913  81.7031574  61.2916756  51.0771799
  25.4592967  70.7011032  23.1738377  24.7040057  70.9133816  22.6254725
  25.2728939  69.8241568  23.5091829   7.5462860   9.1680622  28.0005646
   7.5234795   9.9713850  27.4805808   8.0575430   8.5551614  27.4721718
  54.0716457  33.7828851   7.7481782  54.1124153  34.1523266   8.6302686
  53.8166094  34.5188546   7.1918172  70.8066273  16.9006348  48.2600307
  70.1731539  17.4604547  48.7089682  71.6598368  17.2309399  48.5413933
  26.7471576   7.4720097  49.9568510  26.9759631   7.3618591  49.0339518
  27.5285316   7.1903217  50.4326057  38.3412528  21.3623214  38.8962269
  39.0603662  21.8426585  39.3065739  38.2450199  21.7659879  38.0336595
  65.8294058  73.4397650   7.6004958  65.1906681  73.8381338   7.0092672
  65.4457378  72.5942135   7.8330314  38.2684755   5.1216877  40.4881430
  38.5243940   5.1545542  41.4099121  38.3499074   4.1982347  40.2497435
  34.7415662  26.8465924   6.5479338  34.7241592  26.1204028   7.1712929
  34.4176292  26.4683604   5.7304764  55.0324678   5.5958498  14.0929317
  55.4140711   6.1090332  14.8051476  55.7360077   5.0081080  13.8175714
  19.8521042  67.5508165   6.4769763  20.7304978  67.1984720   6.3337708
  19.2700946  66.9268560   6.0431927  79.3943644  56.3478184  64.7291613
  79.7371483  56.7684269  65.5177164  79.5218658  56.9965553  64.0369749
   4.2820582   1.1893062  15.8554721   3.6238796   0.4943276  15.8615875
   4.2510787   1.5406968  14.9656415  63.1730461  46.0559130   1.7036788
  62.4751425  46.4117622   1.1536494  62.9465151  46.3374281   2.5900567
  16.1580610  34.2028022  62.0429420  17.0096886  34.6057892  62.2119522
  16.2362921  33.3184791  62.4008322  51.6650200  40.3029680   7.2305495
  52.3934460  40.8032608   6.8626797  52.0819235  39.5661640   7.6772535
  68.6530399  68.5549402  47.4132538  67.9556084  67.9813337  47.7307463
  68.3209419  69.4403791  47.5613546  34.2286730  26.8168235  55.3266382
  34.0342569  26.6410542  56.2472582  33.3709931  26.8510985  54.9030304
  10.5000973  53.3615541  41.4843750  10.2958012  54.2855406  41.3403416
  10.5603993  53.2750702  42.4357510  42.5198603   8.1139088  18.3979535
  41.6467285   8.4171557  18.1491232  42.3916864   7.6817214  19.2423570
  19.8126853  13.9091337   5.8185869  20.7300663  13.6368942   5.8415502
  19.7397614  14.5640826   6.5128171  42.3029089   3.6559683  63.3873081
  43.0072403   4.0017354  63.9355707  41.7882967   3.1054038  63.9774656
  47.6177931  26.9307947  45.0557327  48.3523417  26.9067144  44.4424677
  48.0251789  26.8712616  45.9198618  18.0614126  68.8001108  34.7917366
  17.7531362  69.1629457  33.9613461  17.6658618  67.9295015  34.8342586
  77.6338339  44.6098804  45.5281591  78.2067060  45.3759336  45.4932737
  77.7889729  44.2340517  46.3947153  69.6217251  61.9521809  32.8114080
  68.7106180  61.9738150  32.5187588  70.1273537  62.2063923  32.0394278
  79.5489216  11.9216442  36.7756581  80.0672340  12.6310945  36.3958335
  78.6502504  12.1103978  36.5054870  20.5560851  74.4024372  21.1850882
  21.4068866  74.3293476  21.6175580  19.9278605  74.0961599  21.8391228
  47.9372692  16.6226125  25.0308704  47.9382372  17.5100923  25.3894949
  48.3030653  16.0812175  25.7303834  10.2845073  26.4328170  39.2447448
  10.4576755  26.7379308  38.3541536   9.5204860  25.8627033  39.1582918
  71.0642052  24.1154504  37.9834676  70.5196238  23.3671641  38.2278609
  71.7833281  24.1047740  38.6151171  47.0654917   4.4140735  47.6012754
  47.2406626   4.9611270  48.3669662  47.7382231   3.7339258  47.6338911
  32.4729443  25.6206775  59.0742874  33.4102488  25.4312181  59.1166878
  32.4078393  26.3786554  58.4933710  51.8308592  28.9133453   2.2419757
  52.6068735  29.3593812   2.5812152  51.2208366  28.8997459   2.9794845
  27.6129246  30.9397388  31.6629481  27.2689009  31.7146182  31.2186003
  28.0053067  31.2793183  32.4672842  33.4144735  24.4305706  20.6858754
  32.7045298  25.0717092  20.6519127  33.9130664  24.6665215  21.4681554
  74.0903759  53.6064720  27.3763847  73.7470579  52.7646112  27.6757598
  73.3777046  54.2256308  27.5344086  43.1609726  51.0015440  24.3119240
  42.6200342  51.5204477  23.7166405  42.7228785  50.1515341  24.3542027
  53.6946440   3.5646003  50.2133417  53.2891941   3.6584732  51.0753393
  53.6935139   2.6215190  50.0495529  42.2825766  27.0095468  65.2473116
  41.5256357  26.9799733  65.8324575  42.7398729  26.1836267  65.4053259
  13.8011217   0.6565414  16.8030357  12.9308641   1.0551178  16.8074989
  13.6379886  -0.2764000  16.9417417   8.0853158   1.3511486   5.5052304
   8.6567020   1.9906716   5.0800711   8.0822295   1.6083632   6.4272189
  19.6111417   8.1193399  44.6951485  19.9033427   8.5768986  43.9067984
  20.2079415   7.3752719  44.7753048  25.4326892  33.2594156  45.6570387
  24.5098400  33.5023546  45.7316065  25.5807805  33.1671453  44.7158766
   2.1182196  10.2050221  52.5159073   2.8514844  10.3137648  53.1214905
   1.7126471  11.0709858  52.4729156  14.1704476  20.4558110  52.4793768
  14.5058620  21.3170338  52.2303295  13.5216367  20.6388044  53.1589270
  15.9437251  24.1383600  56.3970232  15.6734276  23.3749771  55.8867073
  16.8843007  24.0181994  56.5278292  27.6077437  74.6535397  33.7820101
  28.3550477  74.6092463  34.3785048  26.8807006  74.2809963  34.2808604
  12.5430334  67.1661425  63.9764738  12.3358965  66.2642765  63.7316084
  13.4897768  67.1645975  64.1175604  21.6059399  28.7268829  31.7347312
  21.6432786  29.6761250  31.8520999  21.8243432  28.5907674  30.8127737
  37.1342731  42.1316004  29.8884773  37.4831820  42.1324110  30.7798219
  37.8929305  42.3142767  29.3341327  26.6173792  23.7437487  12.5247848
  26.1503386  22.9096031  12.5727856  27.4486399  23.5288191  12.1016490
  76.7060328  77.2469521  50.7891989  76.5744257  76.7398643  49.9880934
  77.4374199  76.8138742  51.2293625  73.5793304  58.5249996  20.3282309
  72.8814030  58.7971973  20.9240818  74.3882036  58.7344599  20.7952237
  55.8281279   3.5084334  40.3337288  55.4499626   4.3704760  40.1602221
  55.3741884   3.2012951  41.1184788  25.8527827  72.7095461  50.5554152
  25.2405787  72.0118284  50.3216839  25.5999184  72.9625845  51.4432573
  24.6327472  77.5886583  35.3117824  25.5229139  77.9087448  35.1655722
  24.0826654  78.1549597  34.7705340  58.9033604   4.5976314  61.8178082
  59.4322920   5.3869063  61.9340372  58.1541109   4.7235295  62.4000502
  42.8299856  13.4235668  30.6559539  43.3022690  14.0631306  30.1229095
  43.1806231  12.5765753  30.3804755  53.1659365  22.4325371  57.6899433
  53.5805988  21.5839839  57.5342369  53.1785059  22.8654909  56.8363476
   9.3856949   7.9156220  20.7244372   9.3792099   8.8671923  20.8279014
   9.8632485   7.7666795  19.9083555  18.9141834  32.9913974  58.3047390
  18.2118976  32.6167846  57.7730465  18.5611010  33.8253450  58.6147308
  16.4935696  74.6305847  19.3342984  16.2264574  73.9851332  19.9887264
  17.3977709  74.3977976  19.1234410  29.3018389   7.5319213  43.5623598
  29.1690087   6.9654924  44.3224525  30.2459550   7.5064212  43.4067202
  49.9253654  60.3021812   4.2476854  50.7713985  60.6740046   3.9982709
  49.3204784  60.6087971   3.5721579  34.6146560  17.2225153  62.0766592
  34.4821239  16.2824619  62.1990013  34.7681665  17.3224819  61.1371517
  46.8662357  32.6365209  53.7223339  47.5449181  33.2024741  53.3544779
  47.2157621  32.3636580  54.5706320  13.2196081  66.9939280  54.4740915
  14.0640950  66.5475559  54.5359659  13.3690095  67.8467655  54.8822308
  78.2775116  73.7830353  29.5291996  78.8296938  74.1154814  28.8215208
  77.4021292  73.7307024  29.1455412  14.8785210   4.9974334  35.2830172
  14.7515595   5.6535661  34.5977426  14.0555072   4.9992245  35.7717657
  57.6752567  34.7457361  21.4786673  58.2552910  34.0556931  21.8005872
  57.0380878  34.2869592  20.9311509  60.9691811  32.0597410   8.9328969
  60.5491829  32.8689599   9.2244405  60.2733088  31.5752912   8.4887099
  13.3975291  40.8505583   1.2242290  13.8004994  40.4855156   2.0120050
  14.0680158  41.4267445   0.8572275   1.3039371  75.9015512   7.5441158
   0.6449895  75.8928728   8.2383382   2.0391953  75.4066133   7.9055882
   2.8168443  40.8532381  35.1067138   1.8600661  40.8630133  35.1333833
   3.0834168  41.3014555  35.9093785  10.3178716  18.9675009  51.1532593
   9.8997086  19.0730977  52.0077896  10.5717421  19.8548627  50.8995485
  78.2147694  48.5358143  52.0258093  77.8674173  47.6608801  52.1992111
  78.9788437  48.3842611  51.4695263  44.3923998  56.3185978  35.2499938
  43.7566090  57.0306063  35.1789212  45.1155615  56.6926098  35.7533669
  50.6294346  63.4448528   4.3906835  50.0188780  62.7569294   4.6556628
  50.9643841  63.7982655   5.2147812  30.3483200  27.1214271  25.0715637
  29.7435188  27.2236419  25.8064103  30.2681279  27.9387760  24.5798898
   9.0347183  61.6575384  56.4683247   9.2185324  62.5904703  56.5782309
   8.7167346  61.3734865  57.3253107   4.2123356  54.7274971  21.4882708
   4.4373828  55.0321722  20.6092024   3.2727361  54.8929214  21.5658593
  57.1010399  46.1036015  17.9232812  56.9196272  46.9602203  17.5365877
  58.0562735  46.0433102  17.9344547  48.3574247  62.0150089  21.0385227
  48.9072657  62.7978182  21.0051751  48.7566614  61.4706230  21.7171121
  35.6014895  16.6029942  46.6960907  35.7631469  17.5397086  46.8086338
  35.9851861  16.3943624  45.8443403  37.9168081  17.7652705  52.8371429
  37.4114895  17.8626871  52.0300531  37.7787685  18.5877681  53.3069038
  42.6672077   7.0192581  39.8781824  42.1537590   6.2254322  39.7283697
  42.4689531   7.2657973  40.7815933  73.7602663  59.6534872  60.0612593
  72.9932928  59.2456341  60.4632998  74.1470003  60.1788425  60.7617378
  32.3756719  18.7963426  12.7058649  31.8912959  19.1057456  11.9404352
  33.0892205  18.2722485  12.3419893  38.6056280  31.2783933  62.3496628
  39.3077922  31.4965200  62.9625368  38.8909531  31.6518426  61.5157795
  29.8401213  36.6988182   0.0918442  29.6914268  36.9690323   0.9979934
  30.4167080  35.9378433   0.1603766  39.5802617  17.7285230  56.9286537
  39.6917748  17.2074473  57.7238131  38.6594296  17.6134038  56.6940308
  41.1699200  16.8754411  62.4184656  41.4120150  17.7866971  62.5834894
  41.9682646  16.4738572  62.0755243  13.0354655  19.4824255  35.9855127
  13.9822197  19.6233785  35.9900880  12.7030265  20.1096964  35.3434467
  64.4143820  29.1405511  21.1526608  64.0867758  28.9398074  20.2759576
  65.0476742  29.8452067  21.0161638  37.1677303  21.8188405  56.3225603
  38.0932355  22.0540786  56.2566900  36.7258906  22.4126291  55.7155800
  49.8402166  46.6222286  62.1228647  50.1763391  46.0465908  61.4359188
  48.9861441  46.9083548  61.7989397  10.2947164  23.3505702  56.5505409
  10.3159714  23.3161592  55.5941963  11.1463463  23.7119770  56.7961884
  74.9245548  57.7921915  14.2097366  74.1653919  58.2324600  14.5919240
  74.7501230  57.7876806  13.2685757  64.4151163  16.3282835  22.0878506
  64.3260574  15.7831669  22.8696108  63.5192490  16.5893805  21.8745899
  34.0697765  67.1337271  65.7359123  34.8119831  66.5315819  65.7886457
  33.9207911  67.2486353  64.7973871  13.9056528  58.8251543  36.6996384
  14.3092561  59.1558456  35.8971572  14.2552626  57.9393244  36.7961264
  71.1537838  24.7419882  35.1924443  70.3963709  24.1733217  35.3309226
  71.6586161  24.6700096  36.0025001  22.1957064  31.0978675  51.1174393
  22.7763867  30.6580520  50.4964685  22.6727080  31.8872190  51.3736105
   7.2352004  50.8135223  19.9495816   7.8604239  50.3594637  20.5145240
   6.8609786  51.4961386  20.5065584  14.8333299  66.4581966  14.1536427
  14.6777225  67.1788883  14.7640729  14.1131878  66.5164185  13.5257590
  45.1040506  23.0584097  39.9976182  44.3735361  22.5981212  39.5844460
  44.8262882  23.9740539  40.0235415  15.7659245  21.1623859  55.6634331
  15.9731257  21.1966729  56.5973091  15.6654596  20.2294135  55.4744816
  30.4507446   9.6110588  28.8396597  30.3965163   8.8436496  29.4091988
  30.4313111  10.3565407  29.4397521  65.8811760  60.5988598  48.1661892
  66.2681198  59.8311329  47.7453518  65.0555563  60.2810287  48.5316610
  33.3583379  32.7459240  60.0247192  33.3595181  32.1050310  60.7356930
  33.6090994  32.2438765  59.2492819  18.6289167  65.9030151  30.0755954
  17.8772438  66.4792681  29.9372125  18.2724011  65.0190353  29.9877858
  35.0130367   7.6895797  40.3429604  35.7252574   8.3240056  40.2624893
  34.5917177   7.9066753  41.1745787  65.9268188  27.0551252  52.5385904
  65.0749111  26.7858601  52.1951056  65.7460260  27.3331261  53.4365129
  62.9149961  75.0340843   7.0212698  63.2883596  75.6968355   7.6022977
  62.8029156  74.2634010   7.5777936  16.2142253  27.9012656  53.7824869
  16.0799897  28.8459277  53.7061501  15.7183409  27.5291777  53.0531836
  58.2566547  27.6479292  57.5434732  58.5842180  28.4345961  57.9794693
  58.0727720  27.9297161  56.6473627  31.3386774  74.1780138  52.7380896
  31.5150642  73.2402515  52.8137493  32.0931458  74.5977497  53.1514025
  26.4475346  15.5533850  25.1412988  27.1663308  16.1854732  25.1465058
  25.6657481  16.0782969  25.3130913   9.4943935   8.5576302  30.2091193
  10.2982426   8.2204080  29.8137212   8.7953424   8.0408293  29.8085237
  66.0625219   7.6707029  30.6230307  65.5473328   8.4741378  30.5501771
  65.8233833   7.3094064  31.4765596   9.5626777  46.0325861  46.8246269
   9.3827391  45.3866386  46.1415386  10.3508461  45.7076645  47.2598839
  64.0366983  59.7319937   7.5052130  64.7562122  60.3462315   7.6509774
  63.2535458  60.2818346   7.4811798  81.6218281  36.3200521   2.2853552
  82.2290230  37.0271993   2.5032708  81.3789845  35.9436822   3.1312889
  32.8269625  22.8076959  54.4122028  33.7452841  22.9763007  54.6231270
  32.3535299  23.0203891  55.2164745  29.9709582  11.3817132  48.1282663
  30.3023243  11.5232599  49.0150547  29.0261626  11.5169036  48.2011986
  54.3608952  26.2823510  47.2872353  55.2881908  26.0934782  47.4310732
  54.3436289  27.1970701  47.0057726  54.4688606   3.7793785  33.1480360
  53.9675856   3.6512083  33.9533496  54.5952177   4.7265905  33.0927563
  11.2424433  73.2061720  43.0621624  10.5368483  73.0345821  42.4385262
  10.8486426  73.7831259  43.7165928  35.9465432  61.4744234  38.0118656
  35.7241559  62.3718262  38.2597375  35.6961036  60.9473181  38.7705946
  20.2282476  15.3188431  61.4459944  19.3303633  15.6496966  61.4698792
  20.4900312  15.2699757  62.3654032  66.0841799  57.9327345   1.8239908
  65.7915688  58.2365990   2.6832211  65.8446264  58.6402130   1.2253921
  34.6998787  65.8537531   5.8568692  35.5376959  65.4479742   5.6340718
  34.9380732  66.6835928   6.2702191  38.1911278  27.7371073  22.6244950
  39.0793967  27.6000977  22.2951913  37.9621077  28.6204100  22.3354292
  18.7659943  70.1705837  30.7815266  19.1805112  69.4113779  30.3716350
  18.8605273  70.0166655  31.7215300  19.4186842  55.6099510  50.6756592
  19.1089487  55.5667210  49.7709894  20.2955723  55.9882259  50.6107759
  11.4572430  42.0609426  15.8321381  10.9446621  42.8391647  16.0509264
  10.9606218  41.3337564  16.2073636  34.1823983   1.2838255  35.5555058
  34.2551970   0.3529789  35.3446579  33.8515234   1.6861433  34.7524524
  32.8689098  19.3634975   1.5019304  33.0642796  19.6958232   2.3780712
  33.3236456  19.9638450   0.9111431  24.1326761  42.3048592  17.4510229
  25.0068951  42.6648712  17.3014820  24.1713619  41.4216614  17.0840120
  32.8233242  18.5392702  17.4601591  32.5774240  18.9506471  16.6315854
  33.7802935  18.5242879  17.4454093  35.4744887  36.1313057  51.0712290
  35.9957647  36.1560488  51.8736553  34.5669270  36.1584401  51.3742590
  65.6217241  74.0602160  16.9127405  65.1327896  73.3605528  17.3459148
  64.9569654  74.5573044  16.4360499  36.9569016   5.8220226  32.3670483
  36.7861009   5.8674490  31.4263082  37.0496750   4.8868167  32.5487494
  60.3712940  59.1340256   1.3651581  60.1223898  58.3044386   1.7726615
  59.8422432  59.7912169   1.8173137  29.2306042  36.5286207  42.8320932
  29.8098230  36.4965034  43.5934782  29.6142888  37.1995425  42.2673988
  21.6001558   6.1716682  55.0372744  20.7307482   6.5127534  55.2470875
  21.8338680   6.6013610  54.2144871  38.2649946  15.2383029  53.8269234
  39.0393233  15.3428495  54.3798399  38.2152915  16.0535240  53.3277464
  34.8131299  43.0285931  11.8163610  33.9946318  42.5649738  11.6393089
  34.5429969  43.9264774  12.0088828  25.8453441  69.4533491  51.6203642
  26.3100648  70.2071095  51.9838381  25.0030828  69.8065948  51.3339329
  52.4283648   2.8693986  13.8300991  52.3050547   1.9231519  13.9052224
  53.0717611   2.9721683  13.1288767  22.4261045  25.4070544  56.9785595
  21.9598699  26.2306070  56.8349743  23.0814362  25.3781366  56.2814713
  40.4598761  32.5250459  53.2224560  40.5127335  33.2625484  53.8303423
  41.3700485  32.2629690  53.0841255   3.3951062  43.3729410   5.3862923
   2.5542066  43.5996819   4.9891669   4.0468636  43.6545992   4.7443324
  46.8975782  11.4609778  49.7019720  46.8816614  11.7278123  48.7828541
  46.3363075  10.6863606  49.7362423  60.0616550   4.8180690  55.7572412
  59.3247843   4.3319520  55.3871822  60.5754852   5.0897551  54.9967146
  31.0291147  20.0565219  37.7497435  31.3008118  20.9015989  38.1078696
  30.2242517  20.2480149  37.2683287  38.0774784  33.9127016  44.7642279
  37.2148204  34.3271756  44.7804832  38.5547638  34.3247104  45.4844236
  26.0099602  28.2224941  44.0697098  25.7857132  27.3192286  44.2934465
  25.6768537  28.3385944  43.1798840  55.8805799  35.4794836  59.0045023
  56.2128496  34.7927475  59.5826244  56.2194395  36.2925816  59.3790388
  49.4685221  18.8674188  35.1362729  48.8690472  18.4017575  34.5531583
  48.9291954  19.5463896  35.5416846  12.1037197   8.3536750   7.4543208
  12.0761156   8.8572466   6.6407573  12.9829097   7.9756075   7.4722749
  66.2678432  27.8677464  64.5139122  66.0854816  26.9902372  64.1778278
  65.5627155  28.0361652  65.1389408  52.2809887  13.8858509  60.0826359
  52.7416039  14.1478658  60.8797646  52.6489449  13.0297208  59.8638153
  48.7502623  19.6409631  55.8169985  48.7157488  19.0162921  56.5414476
  48.8576174  20.4928041  56.2401676  29.4645047  22.5452232  48.0871725
  29.1715980  23.3304477  48.5496283  29.7425461  22.8629136  47.2281075
  59.9115181  28.7197351  44.4512892  60.1769161  29.6384001  44.4943285
  60.0638151  28.4688663  43.5401869  15.2468288   4.4529754  18.3562493
  15.7309413   4.8161936  19.0978289  15.8587599   3.8409168  17.9474020
  31.7684317  42.0388556  22.7709198  32.4689293  42.0139551  23.4227753
  31.8086481  42.9244184  22.4098229  27.9522252  27.4917507  41.4171362
  28.6080337  27.5841522  40.7260418  27.3147511  26.8727541  41.0611820
  58.4822798  55.8361197   5.6320357  58.4495592  56.1474514   6.5365982
  57.6023054  55.9969139   5.2914160   8.2654864  42.7602959  13.8322020
   8.4178525  43.4427214  13.1785107   7.3363674  42.8389740  14.0484893
  69.8575783  56.7522430   5.5498469  69.4012260  56.3743734   6.3016361
  69.7554970  57.6977968   5.6581903  28.8790250  27.9167962  47.9816246
  28.7913084  28.6522317  48.5879850  29.7863507  27.6293397  48.0834341
  18.9344847  68.2086039  27.1598625  18.8576031  67.2710896  26.9827104
  19.4768071  68.2599497  27.9469347  43.9103889  38.8868117  64.1843462
  43.3709908  39.3045545  63.5129547  43.7857533  39.4289780  64.9632883
  35.2973890  43.7647486  62.7260303  36.2103367  43.6270046  62.9785872
  35.2592802  43.4944057  61.8085909  41.7112112  18.7875283  45.4147863
  42.6016474  18.5280442  45.6514788  41.2354136  17.9612637  45.3303051
  71.0733414  29.6589136  62.8002214  72.0280361  29.6825433  62.7351236
  70.9015083  29.3292856  63.6822939  64.6769524  59.0442944  22.8283453
  65.1984024  59.7040176  22.3710895  64.9176455  59.1448641  23.7493157
  68.2987547  30.3337717   6.3351524  68.5433102  29.8829556   7.1433520
  68.8062143  31.1452389   6.3505697  23.5123134  19.5950937  47.2605228
  22.8127551  19.0099359  47.5511074  23.2681608  19.8348439  46.3665771
  40.0296497  30.9998155  38.6756301  40.5989742  31.7682290  38.6350441
  39.1602516  31.3339424  38.4548616  81.4628792  62.1809578  62.8772783
  81.8679333  61.8954611  63.6962080  81.9257927  62.9871988  62.6494312
  27.6229811   6.7347395  61.3077402  27.3426628   5.8439225  61.0977411
  26.8306375   7.2635376  61.2139559  43.8181400  24.6524096  42.9822683
  44.1014051  23.7408876  42.9106951  44.4709492  25.0622249  43.5498285
  61.3402557   3.7210548  38.9181352  61.0983706   2.7988029  39.0028381
  60.9879589   3.9839479  38.0678368  14.4353151  34.0221572  50.3495264
  13.6394441  34.4996905  50.1154709  14.6761417  33.5521460  49.5512009
  36.0898209  35.7290578  45.0026035  36.7194486  36.4111924  45.2360392
  35.2398968  36.0923290  45.2513885  15.5929554  60.3885460   9.1510695
  16.3043022  59.7520304   9.0799028  15.9807897  61.1302280   9.6155369
  47.0019770  39.0395665  44.9986362  47.3095512  39.0270901  44.0922832
  47.4947500  39.7501898  45.4090261  15.5487490  48.3912039  23.4138465
  15.2323043  48.6598730  24.2763495  14.8867774  47.7769423  23.0965066
  25.1018882  73.3442497  40.7720709  24.6507907  72.5570488  40.4670191
  25.4209924  73.1144428  41.6447639  62.7690649  26.2507391  33.6747980
  62.1827030  26.9471383  33.9705062  63.6474943  26.5814972  33.8624024
  62.7827072  75.2797413   4.2190275  63.4295607  74.5954370   4.0471774
  62.5580359  75.1703501   5.1430339  40.4816294  21.7475367  62.4338770
  41.0493708  20.9782243  62.4792671  40.1713848  21.7631698  61.5284824
  30.5920458  28.2716870  45.5444670  29.8481250  27.9243684  46.0365915
  30.2234840  28.9873314  45.0265408  52.1811342  12.7132738  51.0255337
  52.0221615  12.2743857  51.8612003  51.4814711  12.3988605  50.4529572
  32.6529169  35.1898909  60.8619404  32.8409600  34.4671941  60.2631235
  33.5141206  35.5291748  61.1057568   3.7809458  52.9888439  18.7167871
   3.9451501  52.6158953  19.5829153   4.5115098  52.6803446  18.1807494
  42.7489090  35.2334809  13.7554276  41.8175602  35.2322531  13.5344672
  43.1733847  34.8156023  13.0061436  27.7860522  37.7463508  49.1092730
  27.1423841  37.6436329  48.4082937  27.9628563  38.6866951  49.1361904
  16.6743839  31.2895346  63.2151890  17.5124621  31.6407132  63.5160685
  16.8998826  30.4610586  62.7920914  36.6628408  36.5556979  35.0999451
  36.8520164  37.1987700  35.7832456  37.3705530  35.9151649  35.1713109
  15.8024439  77.0147922  14.3789375  15.8990368  77.9319497  14.6353042
  16.1749682  76.5213364  15.1096630  21.2830114  13.5178447  45.4752874
  22.0878839  13.8216770  45.8949280  20.6357002  14.1918492  45.6825066
  61.9681501  20.6940413  48.6804676  61.0165739  20.5905700  48.6753559
  62.1978951  20.7510424  49.6079397  30.5069733  13.5360217  28.3839846
  29.6691298  13.0946827  28.5235310  31.0304642  13.3042407  29.1511011
  56.2887621  67.5517845   8.8018095  56.0796881  66.6282654   8.6616862
  55.4493570  68.0033731   8.7140554  58.9428234  65.3473330  26.2649369
  58.4069443  66.0247040  25.8523369  59.1336012  64.7297621  25.5589366
  39.9715114  27.8427386  47.1165037  40.8032179  28.1188893  47.5015211
  39.3484116  27.8772473  47.8423071  48.0244732  52.3660135  65.5626488
  47.8064537  53.2970810  65.5200911  47.7669621  52.0998240  66.4452934
  52.0544434  19.2011118  45.7179737  52.8046894  19.2803836  46.3071060
  51.9479322  18.2583249  45.5913210  33.2364011  31.6292119  43.1727600
  32.6605296  31.1330318  42.5910330  32.6406193  32.0919514  43.7619591
  24.9706101  67.3399973  39.3083692  25.6417012  66.6934252  39.5270348
  24.2108130  66.8184614  39.0496373  43.9660883  10.8510613  42.2574615
  43.4643364  10.4082668  42.9418659  44.5474911  11.4446175  42.7327442
   8.1252146  50.6556034   6.3674074   8.5373670  51.5181208   6.4165962
   7.3867780  50.7080555   6.9741958  57.5085735  26.1127615  47.4776411
  57.3435688  26.6649079  46.7133522  58.3443880  26.4259505  47.8234148
  25.3525209  25.4802728  36.9410825  26.2184501  25.7583523  37.2395277
  24.8076963  26.2628531  37.0245147  28.2671452  19.2852151  30.9734583
  28.2305050  20.2321815  30.8387661  27.4278426  19.0683806  31.3793969
   8.6717790  63.1965399  44.6961975   7.8752291  62.7713823  44.3784285
   9.1298091  63.4713268  43.9018869  48.9932489  21.3309121  63.6912966
  48.4423876  20.5556941  63.8000250  49.8355293  21.0814619  64.0715122
  26.7170596  25.9859419  51.3421679  26.3718653  26.7319393  50.8516979
  27.3325944  26.3728142  51.9648075  54.0674305  66.1808777  17.3841870
  54.0028954  67.1249151  17.5286198  53.2975388  65.9659624  16.8575883
   2.3932593  71.2229443   8.6073720   3.2344908  71.4088964   8.1902587
   1.7422536  71.5797806   8.0031437  54.1822147  34.1708112  46.2590027
  55.1215792  34.2294455  46.0846710  53.8067770  34.9251080  45.8047867
  26.6493964  11.0587287  35.7435060  25.8687973  10.6035590  35.4277253
  27.2188711  11.1179626  34.9764204   4.9487549   8.2460147  25.9658813
   5.0786364   7.5125277  26.5670133   4.2788923   7.9391825  25.3548431
  10.9337699  63.8479471  66.8324280  10.0239623  63.6956406  66.5769196
  10.8804250  64.5005369  67.5306511  19.1224062  16.5435612  47.3845959
  18.6921299  16.4721298  46.5325451  18.4332728  16.3444078  48.0183649
  80.1972771  41.5051413  43.8849115  79.2425871  41.5053225  43.8155890
  80.4859543  40.8855915  43.2147980  81.2326145   8.3779323  40.8903742
  81.8183899   8.4175259  40.1343775  81.2800217   7.4676913  41.1826849
  80.0512600  76.8640947  27.8213096  79.8660278  76.8788004  28.7602997
  80.2038574  75.9404516  27.6217222  46.6503620  22.2461891  43.8084126
  46.4793539  22.7153683  44.6250248  45.7827187  22.0018268  43.4863663
   6.7361099  12.0767164  44.7210646   6.4624238  11.9122839  45.6234407
   6.1667919  11.5175509  44.1924381  28.0614662  32.0458651  61.0155201
  27.1849203  32.3909521  61.1852741  28.0081320  31.1232948  61.2650204
  63.4305954   9.7577190  53.3225012  64.2817068  10.1727712  53.1825972
  63.6316872   8.8274968  53.4248686  57.3002338  31.5174961   2.8694028
  56.4957333  31.9955301   2.6681715  57.8861713  32.1789145   3.2374182
  32.1668053  14.9374354  43.8196993  32.2344398  15.8922338  43.8155746
  31.4740562  14.7436619  43.1882095  32.2185993  22.3167801  38.5187960
  32.5623512  23.1222081  38.1323385  32.6877356  22.2300768  39.3486309
  55.2637291  12.7596045  37.6527786  55.5182362  12.3093772  38.4582305
  54.4852972  13.2613993  37.8946018  62.9464436  26.5396905  57.3790979
  62.3762321  25.7976580  57.5802851  62.5213528  26.9749546  56.6401291
  49.5657635  31.1305499  18.0030441  49.0450668  31.8287039  17.6059437
  48.9929438  30.7553840  18.6718953  41.3609457  14.3999255  44.0364981
  42.1399069  14.8033881  43.6535311  41.5017128  14.4569767  44.9815702
  49.0628290  28.8602781  49.1110897  48.1459093  28.8440275  48.8368034
  49.4013309  27.9990268  48.8663578  71.9201899  24.8957801  57.8911400
  71.6695023  25.8044028  58.0578613  72.8762388  24.9150658  57.8484440
  17.7776301  45.3899527  51.1133480  17.4494302  45.9055042  51.8500471
  18.7179053  45.5683327  51.0962057  75.4137754  70.6051683  13.8461328
  74.6951771  69.9740601  13.8066506  74.9832106  71.4508629  13.9712226
  42.8706551   7.1221381  22.8736234  42.5665951   6.4231873  22.2946167
  42.4894762   7.9198599  22.5067759  78.9820576   7.3069221   6.0861379
  79.4984150   7.4922377   5.3017479  78.2571173   6.7657673   5.7733452
  42.1841383  32.5860763  36.3453388  42.0141459  32.7181602  37.2780156
  42.3106909  31.6414595  36.2563729  57.6854706  42.7106667  44.5888615
  57.9708338  41.8034077  44.6969557  57.0382261  42.8423262  45.2816629
  45.0324678  38.7904882  51.4736843  44.4984961  39.5418358  51.2156534
  44.5963621  38.4425378  52.2514868  63.3371496   6.7014992  56.0102558
  62.8713512   5.9757882  55.5947924  64.0304708   6.9273961  55.3901720
  75.2783632  50.6996155  29.4287968  76.0305405  50.8770418  28.8640070
  75.4037762  51.2758493  30.1827598   4.4057056   9.8413122  30.8282089
   4.6093559  10.2692711  29.9965787   4.6770611   8.9320403  30.7024217
  68.1934786  51.1606550  22.4513292  68.3402681  50.3801775  21.9169688
  67.3523378  51.0026979  22.8800082  45.9759855  55.3002501  50.2810717
  46.5011835  54.7126818  50.8243608  46.5933561  55.6464481  49.6366835
  43.5768509  69.8002958  25.0104070  43.2670069  68.9599609  24.6726727
  43.7056875  69.6492767  25.9467983  52.4377394  55.8436966  27.9770827
  51.9712162  55.5991364  27.1778464  52.8501463  55.0316858  28.2716775
  70.4389811   8.6007136  30.2187252  70.4500341   9.5439422  30.3812957
  70.1346779   8.5169709  29.3150568  72.4547958  51.2396860  26.1706614
  73.1313992  50.5677176  26.0876012  72.5773716  51.7990923  25.4036760
  53.3253241  45.0318813   4.0133789  53.6976624  45.0260592   4.8951751
  53.7050962  44.2631006   3.5879558  37.5685787   5.5278742  18.1757176
  37.6242113   5.1427752  19.0502667  37.3879552   4.7860432  17.5984025
  49.9607515  46.2133694  58.4930897  49.7902489  45.3706980  58.9138889
  49.2352772  46.7717743  58.7725496  47.6535654  71.1443186  64.9859142
  48.1384659  70.3546000  65.2256012  47.6981878  71.1719370  64.0301514
  11.5787220  37.9284143  59.4623470  11.4128578  38.7995458  59.8226929
  10.7075489  37.5659657  59.3013430  17.5703394   2.4715507  29.3589568
  17.1637309   1.6383490  29.1208911  17.1969974   2.6845282  30.2142286
   1.4472081  43.5400677  32.7727008   1.0798240  42.6579380  32.8284788
   0.7758399  44.0509796  32.3205209  31.6438651  30.4040289  58.0025291
  31.8083024  30.7743239  57.1353102  30.8378696  30.8291435  58.2955837
  19.5574617  55.1076412  30.1379728  20.0648928  54.3890429  30.5152798
  19.0890896  54.7104359  29.4037485  45.7281685  14.6374595  46.8595982
  46.4285946  14.1899502  47.3343229  45.0330067  14.7495544  47.5080013
  77.7284861  54.7523642  32.4688864  77.6740122  55.1898003  33.3185410
  78.3929110  54.0742016  32.5907993  66.4772940  53.8786936  47.5921726
  66.2598372  53.4810972  46.7490482  67.2044134  53.3524418  47.9247141
  59.3565941  54.0399075  57.8793955  60.2793741  54.2645550  57.9987526
  59.2074013  53.3117580  58.4825373  70.5874157  32.3977351  42.7543640
  69.7466183  32.5215864  42.3139572  71.0062408  33.2576370  42.7171564
  70.5133581  59.3886137  59.2246008  70.3426695  60.2913904  59.4930983
  70.8598709  59.4645929  58.3355618  47.7022696  48.5749960  50.8707142
  47.9813719  48.3137560  49.9931669  47.9206085  47.8254414  51.4245415
  59.1989326  46.3973379  42.3823452  58.8023090  45.9053040  41.6634417
  58.6275816  47.1567535  42.4967098  78.4143591  70.6868458  34.5687461
  78.0085564  70.9097767  33.7309766  79.3082380  70.4309273  34.3413234
  77.1972990  42.7789927  26.8444371  77.5876331  43.6097813  27.1158528
  77.5956202  42.5937271  25.9939957  78.6519957  76.4847279  30.3128290
  79.0036583  76.7391539  31.1659598  78.3811522  75.5738211  30.4273987
  21.3011742  15.1731765  38.5741758  22.0572567  14.8283005  39.0491819
  21.3893795  16.1239290  38.6414194  73.7870407  62.2688007  32.4318600
  73.5542727  61.3413858  32.3877192  73.2595444  62.6141167  33.1520963
  56.1688709  77.7351475  42.4319124  56.0684395  77.9519510  41.5050125
  56.2920427  76.7859793  42.4438953  59.6397352  58.5294008  57.4442244
  60.0535774  58.2004642  58.2422018  60.0213671  59.3979692  57.3170376
  15.3861701  53.7078667  19.5364106  16.2665260  54.0769672  19.6069133
  14.9464917  53.9816666  20.3413606  42.7034378  21.7857885   1.8232103
  43.5375309  21.3205886   1.7591096  42.3770142  21.8172526   0.9239384
  50.8733225  55.5416250  30.7949543  51.4736843  55.1071167  31.4007592
  51.3298988  55.5273342  29.9537873  77.7261162  44.0563345  62.8061771
  77.2995901  43.5987902  62.0816374  78.3684587  44.6268892  62.3841667
  72.1163130  41.2126541   3.2274613  71.3070679  41.1254978   2.7237162
  72.0616961  40.5235338   3.8895473  23.2084298  12.1077311  21.4094138
  23.0020547  11.1734796  21.4379549  23.4272242  12.3324227  22.3137760
  29.0866494  14.0037048  32.1124387  28.5035992  14.7315466  31.8967295
  29.4577599  14.2381012  32.9630661  47.5411081  50.1035643  58.0635881
  46.8829012  50.0238466  57.3731995  47.6522017  51.0470438  58.1808090
  65.1255035  66.7995691  34.1217065  64.5291376  66.6260529  34.8500419
  65.8881092  66.2493134  34.3002725  12.3378038  31.1483312  14.7356570
  12.2156918  31.7949772  14.0405524  11.4625835  31.0226250  15.1022887
  34.0926719  13.2821858  55.8631229  33.9592361  13.4840775  56.7892265
  35.0284481  13.4234464  55.7196045  67.7642918  11.2666047  63.7527418
  67.0662498  10.6894028  64.0622711  67.5188303  12.1336973  64.0754366
   0.3776665  53.0944157  41.5760660  -0.0664417  52.7124596  42.3331070
   1.0317671  52.4412966  41.3274288  20.4401565  51.6336012  27.7936578
  21.0477638  52.3537445  27.6250219  19.6062136  51.9343281  27.4326420
  45.9531116  18.1610882  55.0226736  46.2009954  17.5048435  55.6739235
  46.3889456  17.8775215  54.2190123   1.4053257  21.0682201  59.4442034
   1.2535128  21.9182134  59.8573542   0.6672379  20.5287862  59.7278786
  56.3409615  21.7862582  12.2969997  55.5153799  21.9200993  12.7625465
  56.7069483  20.9901881  12.6824319  82.4122741  62.3941040   1.9652322
  82.4245105  61.8373394   1.1867127  81.7323049  63.0431986   1.7848198
   7.6711977  73.1680775   0.9792800   7.3222458  74.0509319   0.8566813
   8.1018281  73.1972456   1.8336444  41.3480806  52.4767590  62.0276642
  41.3696003  51.9146681  61.2531853  40.5405569  52.9821777  61.9344282
  72.8675461  56.2763262  46.2125969  72.7796650  55.6457186  45.4978657
  73.0510378  55.7400608  46.9839478  70.2757263  53.6054516  46.3118792
  70.1939249  53.7822056  45.3747034  70.0019741  54.4197702  46.7339849
   8.8274658  45.3420734  28.1976795   8.5428238  44.4895267  28.5268736
   8.3089441  45.4778910  27.4046326  40.1473011   6.5652788  -0.1156563
  40.0275816   6.4751804   0.8297449  39.3305554   6.2382495  -0.4927534
   2.6860431  73.3174753  54.5758915   2.4585143  74.2398548  54.4589090
   3.1064656  73.2815981  55.4350710   6.3233125  21.9886208  51.8442869
   5.8550125  21.5011835  52.5220251   5.9780145  22.8791022  51.9078684
   1.3742808  26.3146687  62.8665876   2.1591103  26.2107635  63.4046221
   0.8720242  25.5141139  63.0185223  73.3452415  63.9966440  30.0659537
  72.4338007  63.9486599  29.7774959  73.4368992  63.2773113  30.6907701
  74.9911642  41.9596148  37.0968866  74.2620897  42.0065880  36.4784431
  75.4941797  42.7577782  36.9352174  74.2972946  68.4765482  36.9219375
  74.8843050  69.1823387  36.6508031  74.4714355  67.7686119  36.3016725
  53.9969158  69.4529915  66.4328432  54.0590477  70.2127934  65.8539915
  53.9046478  68.7071562  65.8400154  40.6818008  62.0419502  67.1998310
  40.6483173  62.2310352  66.2620926  40.6684542  61.0862684  67.2520876
  49.6715689  63.0065966  65.7778025  48.8303995  62.5505638  65.8043480
  49.8018885  63.3210182  66.6724443   0.0705579  44.4999552  48.0511618
   0.3729032  43.6972570  48.4760141   0.8438843  45.0634766  48.0258942
   8.7586629  59.5357752  22.7073264   7.8209430  59.5449018  22.5154161
   8.8473016  58.9260197  23.4398365  71.6771841  53.3231735  40.3272343
  71.6161251  52.5842142  40.9325743  71.8396282  54.0806007  40.8895063
  82.2934894   3.8990277  20.5104256  81.9904798   3.7882861  21.4116216
  82.7494426   3.0818778  20.3089213  68.3872652  68.3036470   2.5727054
  68.2811022  67.3601437   2.6942289  69.0317488  68.5591269   3.2327083
  81.7289162  70.7488632  24.9290967  80.8372211  70.9273815  24.6303606
  82.1818066  70.4243135  24.1507721  53.8656664  55.7648373  39.8247743
  54.5998240  55.9787893  39.2490411  53.2675552  55.2608252  39.2729902
   3.2658908  50.6704855  26.9902396   2.5140619  50.5682039  27.5737834
   2.9040006  50.5575371  26.1113143  53.8038969  71.1565495  21.0554218
  53.2834005  70.6704283  21.6949534  53.1821299  71.7613268  20.6506038
  71.2638378  74.0099525  62.3404551  71.6731310  73.1576204  62.4896002
  71.4213610  74.1924763  61.4141130  65.0406885  59.9013424  25.4034114
  64.2969465  60.4650784  25.1906157  64.8851299  59.6310329  26.3083816
  64.8005438  44.2164898  41.3558340  64.0155554  44.2354012  41.9032574
  65.4572439  44.6945715  41.8622017   5.7966125  74.9125290  42.7789974
   5.2215809  75.1323414  42.0460176   5.2430177  75.0063419  43.5542154
   1.0289157  35.0050521  18.4520829   0.1121302  35.1100492  18.1976986
   1.2455503  35.8182216  18.9082181  66.2080622  46.2984419  45.5249071
  66.6789484  46.9259739  44.9765444  65.6671715  46.8406868  46.0990524
   5.1859188  55.9063578  24.5279670   4.4412485  56.4116955  24.2018795
   5.2120471  55.1301432  23.9684629  71.9505548  56.5949488  33.9550376
  72.1112537  57.2164011  34.6651149  71.2388468  56.0418940  34.2772675
  79.0539122  59.8957825  37.6894689  79.9800110  59.8015213  37.4665713
  78.9714193  59.4837570  38.5495067   5.8300680  32.6935744  27.5968933
   6.4272934  32.8884983  28.3190823   5.0327867  32.3796082  28.0235076
  43.0048561  43.9429045  64.1887236  42.9888296  43.3859968  63.4103727
  43.8448715  43.7490463  64.6046829  68.4733152  76.1031914   8.6699367
  68.2070732  76.9394636   9.0520287  69.2481756  76.3137913   8.1489098
  59.7885418  71.7073250  29.9040055  59.3740702  70.8469200  29.9683905
  59.2529535  72.2733784  30.4598475  65.6882524  76.7810678  22.3289490
  66.6168499  76.8842411  22.5370002  65.2681017  76.6322994  23.1760454
  79.5541096  58.0576277   4.1789410  80.1654148  57.5732470   4.7338390
  79.0149879  57.3811150   3.7691674  12.6508045  60.7837057  61.7080212
  12.8233325  61.4687729  61.0621548  13.4820902  60.3161335  61.7890930
  28.3555388  59.3585634   3.5498670  28.4387922  58.7358570   2.8276920
  28.8582492  60.1223326   3.2667094  74.8963165  21.8502402  56.5451097
  75.6411409  21.5860271  56.0050535  74.6499300  21.0556483  57.0185518
  48.2594919  43.8091898  58.2027006  47.7224112  43.0169344  58.1924105
  49.1331720  43.5095501  57.9514456  79.0373516  76.4521217  40.4896975
  79.3936014  75.6460571  40.1161003  79.2608023  76.4044762  41.4192343
  68.0762434  52.9645014  34.2702842  67.3303795  53.4050941  34.6774697
  67.7417898  52.1005917  34.0293956  78.5959005  44.9920845  22.5285769
  77.9803610  45.5717230  22.0798349  78.3927202  45.1001072  23.4577060
   3.3920416  53.5604572  41.3685513   3.5042092  54.0205050  40.5366802
   3.6715806  52.6634216  41.1857510  79.5481348  65.9963846  28.7678909
  79.2473602  65.1330328  29.0514231  79.7197962  66.4695168  29.5820856
  72.1180868  47.2957754  28.0226159  72.6427650  46.7542934  27.4329162
  72.6621437  48.0656481  28.1885338  43.0865669  28.6031795  23.7250352
  42.5105047  28.8011336  22.9866576  43.9706898  28.6800885  23.3663750
  69.6682358  61.6036844  37.3651147  69.2980099  61.3976336  38.2234311
  68.9118433  61.6354370  36.7793703  54.7969580  57.3081112  48.3943081
  55.6773233  57.5278473  48.6991072  54.4873238  56.6468096  49.0132093
  78.9280367   8.0496752  42.7696180  78.4506607   7.9054433  43.5866499
  79.5068359   7.2911257  42.6932907  10.5297792  44.4160557  41.0158730
  10.1406884  43.9101505  41.7292452  10.6034923  43.7930727  40.2928972
  43.4190130  58.7232971  49.0534592  44.3106651  58.5468292  49.3535471
  43.1475258  59.4952297  49.5500946  68.0129671  52.0428133  37.8897738
  67.2886515  52.6234865  38.1230450  68.7946558  52.5885391  37.9756808
  73.8831758  39.0519214  28.4818530  74.4544172  39.8149443  28.5696888
  74.0178204  38.7542272  27.5821424  78.6488914  75.2342653  33.7309337
  78.8631535  76.0762691  33.3292389  78.4109926  75.4524279  34.6320677
  79.4767094  36.4736986  32.2218156  79.4364643  37.4289155  32.2684264
  78.6100674  36.1833048  32.5061274  76.5654421  48.1110859  31.6111779
  76.1182165  48.2808590  32.4402761  75.8587790  47.9414368  30.9882188
  75.5815220  47.0741749  38.1986713  75.8289146  47.9845047  38.0364323
  74.6464682  47.0404530  37.9967403  69.1745377  46.8609047  63.7393808
  69.8116016  47.4079514  64.1988611  68.3406210  47.0526123  64.1683960
  56.0992718  41.5876389   9.7980994  56.4315319  40.8337069   9.3108416
  55.3972435  41.9370794   9.2492121  10.6056452   3.1529564  59.8999357
   9.6859640   3.4178284  59.8837757  11.0044813   3.7128684  60.5660105
   9.8755735  67.4389887  45.2128458   9.9138892  68.0178595  44.4514847
   9.5811015  66.5990973  44.8605633  61.0186386  56.6667128  27.3529625
  60.2170563  56.9628906  26.9217157  60.7341623  56.3918924  28.2246161
  63.2009888  27.0231986  22.3735070  63.5053062  27.8480363  21.9949985
  63.6703348  26.3475466  21.8841815  52.1045542  54.6700811  45.3610086
  53.0568695  54.7601986  45.3956985  51.8335485  55.2604961  44.6580172
  62.4433899  28.7429810  53.0302715  61.6437054  28.2372403  53.1750584
  63.0387735  28.4526968  53.7212753  16.5007472   3.3095473  46.1496162
  17.3919213   3.6521116  46.0811329  16.2517583   3.4700146  47.0598316
  77.2588968  25.1439500  40.1070452  76.6621351  25.7844472  40.4941797
  77.8223658  24.8729300  40.8318090  78.1454945  39.9482965  66.0049725
  78.0222750  40.7946348  66.4348030  78.3932257  39.3538308  66.7131186
   9.4059420  46.0874271  38.8746858   9.3071425  46.7994976  39.5066857
   9.5528024  45.3089762  39.4119716  39.4029903  66.7220354  20.3847122
  39.8324585  67.2423410  21.0637331  40.1229286  66.3721418  19.8598385
  81.5270901  75.0406837  32.2508931  80.7476521  74.8429537  32.7701306
  81.9452190  75.7668638  32.7135587  76.1401653  45.7946396  43.3293295
  76.3904810  45.3481627  44.1381741  76.9228077  45.7516003  42.7799177
  63.8492060  20.1814413  57.0859909  63.5059023  19.2917824  57.1689653
  63.0856943  20.7453084  57.2098494  14.6080256  12.0490873  41.0456228
  14.8000586  11.8236876  41.9558716  14.6683395  13.0039716  41.0174847
  66.8582487  25.9869218  21.9755220  65.9509373  26.0716343  21.6825390
  67.1351480  25.1294374  21.6525960  59.5159864  18.8356614  61.9627619
  59.3835926  19.7170818  62.3117638  59.6631765  18.2913888  62.7362823
  31.3377118  41.2483597  60.3274059  30.7218361  40.5384922  60.5091143
  31.6668725  41.0607386  59.4483805  49.5323229  36.2486720  62.3862553
  50.3946686  36.2499738  61.9708157  49.1837311  37.1239734  62.2172546
  78.3133936  59.0941238  20.4250741  78.0354404  59.1313553  19.5098758
  77.5695181  59.4436264  20.9157181   8.3857119  72.4096870  30.9026289
   8.5879743  71.5248299  30.5987453   7.4309969  72.4277020  30.9691691
  55.3361845  66.2134838  67.0687437  56.2891054  66.2052727  66.9786930
  55.0149488  65.8364201  66.2496805   1.7401527  71.4999390  46.4429235
   2.6869440  71.4496183  46.3114452   1.5747906  70.9478188  47.2071552
  23.5542774  24.9276805  16.0864818  24.3284988  24.3958974  15.9020400
  23.1848383  24.5449281  16.8822503  76.9502783  68.9583206  44.1742516
  76.9413805  69.0290117  43.2197094  76.0685778  68.6624432  44.4007397
  81.4491463  59.0281248  48.7553453  81.9541454  59.8105574  48.9767170
  81.4154053  59.0275431  47.7987385  70.1604176  39.1748857   6.9490993
  70.8936834  38.5698390   6.8374300  69.4164467  38.6124253   7.1644640
  58.0357265  73.9576197  13.8432729  58.7171221  74.6218061  13.9471269
  58.1526995  73.3750916  14.5937455  20.5258632   9.6806383  42.7910519
  21.3992357   9.5766598  42.4133778  20.4845738  10.6014776  43.0490875
  67.9620218  57.8368950  49.3548107  67.3016930  57.4586344  49.9354267
  68.7796974  57.7731133  49.8483372  24.1916370  77.7327919  61.5006590
  24.7808361  78.4408760  61.2404919  24.0016103  77.2677660  60.6858778
  75.4907846  55.2936602  37.9405999  75.9532261  54.8252487  37.2456431
  74.6294260  55.4839993  37.5690341   5.9324527  46.3914013  23.4942412
   6.8131578  46.7210865  23.6728382   5.9179080  45.5201960  23.8905025
  20.5453563  40.1523113  57.4548101  19.6932364  40.1405525  57.8906822
  20.3660011  39.8352265  56.5696430  53.9935875  25.9895396  19.8094523
  54.5263720  26.6267943  20.2851391  53.7378931  26.4431071  19.0062547
  57.0061922  48.9656973  58.5405540  57.0191193  49.0251303  57.5852871
  56.6978073  48.0777121  58.7211323  58.3546591  54.2971992  35.7364678
  58.1570864  54.4384432  36.6623449  58.0003071  55.0693178  35.2954483
  47.4898720  53.5674620  52.1246576  47.9072714  52.7236319  51.9515610
  48.1502056  54.2159081  51.8803120  25.5740023  71.4993811  30.3731894
  25.6260872  71.9204044  29.5151353  26.2957382  71.8821526  30.8720040
  46.8865633  52.0891905  45.6088543  47.1453714  51.8050385  46.4855003
  46.1545658  52.6877928  45.7574654  54.6114922  56.4085388  57.0208836
  55.4420710  55.9960127  57.2579336  54.1147566  55.7148361  56.5869904
  51.9085217   6.3075858  51.9706345  52.6043749   6.9032270  51.6927195
  51.1204290   6.6445351  51.5444803  46.6814899  45.4707432  64.5430803
  47.2467613  44.9888754  63.9393377  47.1402502  46.2974453  64.6925211
  28.3618069  49.4411898  33.0451441  28.1017828  48.6213970  32.6249504
  28.4294009  50.0684023  32.3252392  44.2766953  47.8979635  51.3725281
  43.3959866  47.9126501  51.7471838  44.8243237  48.3251858  52.0311737
  10.4251683  76.1347818  59.1029549  10.6710041  76.3568306  60.0010014
  11.2593150  76.0193729  58.6478615  16.7434084   3.5541511  14.6548629
  17.3484087   3.6001715  13.9145327  16.1051857   2.8872752  14.4015241
  54.8441172  71.4723444  12.3533046  55.3876400  71.1558723  11.6317391
  55.3212881  72.2263336  12.6997745  29.3161917  33.0840516  11.0241055
  29.1821671  33.6598253  10.2712750  28.7909508  33.4758902  11.7218280
  48.8217545  62.6921988  48.3208036  48.2307005  62.9285479  47.6059437
  49.4197559  62.0518398  47.9353571  75.1814365  52.4356365  24.8255754
  74.7193289  52.9414797  25.4940176  74.9883890  52.8898478  24.0054178
  19.0918779  11.1317384   5.1678538  19.0689206  11.1002207   4.2114481
  19.1978395  12.0603573   5.3744191  55.9491539  52.4941874  61.1372566
  56.8722868  52.7458000  61.1098433  55.5711031  53.0447340  61.8229723
  56.1156559  58.8253641  66.7219639  55.2490473  58.5294914  66.4432526
  56.1778593  59.7237253  66.3974524  21.6483402   6.2854511  39.9239802
  22.5561404   6.2942255  39.6205783  21.5163612   5.3985876  40.2590704
  12.4625480  34.7674584  23.7467337  12.2639966  35.3330421  23.0004621
  12.4419498  33.8805604  23.3872604  57.8724003  48.6331749  41.7325258
  57.3876905  49.2710209  42.2563934  58.4315825  49.1643143  41.1655760
  28.5499954  17.8863406  49.6809769  29.1032600  18.0406308  50.4466963
  28.9454651  18.4164524  48.9890099  81.8075466  46.0099030  50.4292631
  82.3358631  45.6394100  49.7222614  80.9028053  45.8865118  50.1421165
  52.8698015  16.6140461   8.6163956  53.7410212  16.9546127   8.4133637
  52.5253105  16.3195145   7.7733016  56.8287373  49.0365124  19.5676541
  56.0429764  48.5605478  19.8364854  57.4208975  48.9633560  20.3161359
  58.4393978  61.3802576   9.0054834  58.9430237  60.9031773   9.6650195
  57.5815487  60.9556007   9.0057540  60.5343676  73.5849714  50.7909584
  60.9345055  74.3055868  50.3042984  61.2718201  73.1377220  51.2061262
   8.5083622  33.4543872  28.0223775   9.1282111  34.1818428  27.9692078
   8.0927569  33.5559440  28.8786411  52.6589584  61.5528345  49.0189791
  53.2928514  61.1861086  48.4026003  52.1197701  60.8064318  49.2804956
  26.4443564  73.8514280  43.3955574  27.1839213  73.8003445  44.0010881
  26.1913705  74.7745562  43.4038115  69.1693211  55.6459093  57.6233101
  70.0256014  55.3619814  57.3033094  68.6657953  55.8288336  56.8300676
  69.4256163  72.7827454   7.4477577  70.0212908  73.5310459   7.4096125
  68.6561012  73.0636930   6.9526398  25.4708123  27.4312210   4.4136801
  24.8197889  26.7807746   4.1503984  26.2148237  27.2743654   3.8322362
  74.2434835  69.5639563  58.3882236  74.3624258  70.5051804  58.5154009
  74.0370083  69.2285872  59.2606544  79.3833065  19.9038219  51.0666275
  79.4635868  20.7595325  51.4879894  79.9569511  19.3313015  51.5759325
  43.9400339  53.4806967  38.9224982  43.6001921  53.7061501  38.0565286
  43.6005497  52.6018524  39.0916634  66.4264774  38.1333971  67.1986866
  66.6113472  37.6891756  66.3712025  66.9283247  38.9471006  67.1510363
  52.1859312  67.0150089   1.9057146  52.0710230  66.3708925   1.2070438
  53.0970812  67.2967768   1.8242343   0.5398526  68.0252171  23.3666778
   1.2531671  67.4615812  23.6662292   0.9367554  68.8927364  23.2885170
  82.6422977  65.5363846  43.1315756  82.1681023  66.0100126  43.8149834
  83.2064152  64.9281168  43.6090899  27.0991230  56.8854666  31.7752576
  26.1483216  56.9958639  31.7706585  27.4047947  57.4702883  32.4686408
  23.6330414  62.4424124  53.5749578  24.3436790  62.1107531  54.1238022
  23.0885386  62.9553032  54.1721916  51.0534000  53.1847286  12.7637470
  50.9798241  52.3200369  13.1676340  51.3632011  53.7529278  13.4690177
  63.8827848  52.6541567  41.4480305  64.0500689  53.5543823  41.1690331
  63.9181185  52.1424484  40.6398582  10.9439838  15.8253074  51.9398594
  11.7755413  16.2927079  52.0191097  10.3862119  16.2127757  52.6143932
  48.5950899  56.3513470  36.1072707  48.7070417  55.4405975  36.3797235
  48.9019108  56.8644238  36.8548298  72.4099684  72.2844028  56.6065741
  73.2610607  72.1859121  57.0333958  71.7739391  72.1872520  57.3152733
  73.4715223  55.9863949  58.4906435  74.2980814  55.5739021  58.7414074
  72.8612947  55.7425022  59.1866112  51.3438845  13.4491134  54.7080564
  51.5311480  12.5108874  54.6781254  51.3083982  13.6565971  55.6418228
  81.5318593  67.9867220  34.5548463  82.2806274  67.4012184  34.6678066
  80.7770537  67.4012470  34.4938779  12.2652483  49.9443483  61.1480474
  12.5387716  49.5106697  61.9563389  12.4810243  50.8666182  61.2862206
   6.0690355  50.8761930   8.0686808   6.6043055  50.5586863   8.7959421
   5.4947013  51.5327358   8.4627891  10.6182957   0.4073544  43.0331993
  11.4751792   0.0963869  42.7411699   9.9929959  -0.1808795  42.6098633
  49.7159958  52.3581743  49.2018414  49.2106581  52.9283190  48.6223602
  50.1815605  52.9595041  49.7831202   6.2092227  50.6423426  34.0779352
   6.9098479  49.9901676  34.0730906   5.5079365  50.2443218  33.5621738
  69.4674540  37.6526713  51.3950062  69.2797470  37.9011679  52.3001289
  69.8605585  38.4351349  51.0084200  10.6616724  70.3622246  32.3412061
  11.0900915  70.9150410  31.6876912  11.0270071  69.4898891  32.1935964
  71.3225985  53.2958269  33.5307455  72.2469854  53.5117579  33.4077978
  71.2757969  52.3510599  33.3842659  67.9405308  74.6442413  43.4159088
  68.1405354  74.0372610  44.1285181  67.7962160  75.4847431  43.8506079
  51.7403269  57.6311779  47.9480743  52.6205444  57.7113485  48.3155251
  51.8126488  58.0041981  47.0695210  23.5339236  74.2722654  20.4043579
  23.4097242  75.2186728  20.3328133  24.4807291  74.1491318  20.3363156
  57.0480585  40.1590395  65.6506872  56.9615030  39.8384476  66.5484428
  56.5481138  40.9752131  65.6385756  23.7695193  51.5757132  38.1092572
  22.8938508  51.1908102  38.1451154  23.7254333  52.2045422  37.3889351
   8.5365719  60.2378988  19.7458017   9.4768381  60.0619602  19.7114897
   8.3546352  60.3877258  20.6735301  47.9394007   9.0468335  26.9828129
  47.9821968   9.3076539  26.0628271  48.2726097   9.8051840  27.4625087
  26.2947345  70.5117130  12.9307187  27.2011948  70.2257347  12.8176856
  25.8558416  70.2409840  12.1243012  55.0366974  68.7972546  21.5389037
  54.8421621  69.6816730  21.2287474  55.4012203  68.9253330  22.4146605
  70.0063992  58.6092758  37.0218563  70.2427769  58.9270020  37.8932953
  70.5214500  59.1491079  36.4222431  62.0071316  10.4731119  26.2678146
  62.7490234  11.0312557  26.5008569  61.9898891  10.4848421  25.3108406
  57.2568178  53.0992937  45.9104919  56.6721725  53.7656069  46.2716627
  56.8091631  52.7891111  45.1233292  62.9829502  54.7711802  37.9835248
  63.3936834  55.4523659  37.4510574  62.0435810  54.8941755  37.8468299
   0.1460138   1.6197117  36.2442970   0.8823741   2.2109371  36.4006877
   0.5140739   0.9142765  35.7122016   4.4068861   4.0960228  42.7219439
   5.3143889   3.8374788  42.8826427   4.4343799   4.5587087  41.8844461
   2.5628087  53.0503273  61.4307785   2.7577418  53.9839840  61.3500738
   2.2925198  52.7852154  60.5516386  58.3497286  70.1350117  58.0801201
  59.1661835  70.1619101  58.5790348  57.8347397  70.8649158  58.4240103
  30.4809141   6.1554742  40.1804447  30.6930923   6.1906016  41.1131716
  30.7786226   5.2902120  39.8995113  12.2908723  57.9670095  54.3698931
  11.8333125  57.8920126  55.2072954  11.9127142  57.2748804  53.8275051
  64.5786524  61.3382149  42.2461748  64.6465206  61.0453558  43.1549406
  63.9139223  62.0266914  42.2654104  62.5053501  39.7994661   2.3980638
  63.1955671  39.7114468   1.7407322  62.8647232  40.4091501   3.0425519
  58.5910034  51.3543463  37.7531505  58.0978775  52.0075893  38.2494688
  58.0508804  50.5651140  37.7933478   9.3187940  35.0848222  53.4552526
   9.1506505  35.3112650  54.3699551   8.6664641  34.4149017  53.2505417
  73.6144257  71.7728376  60.6823683  73.7568474  72.4331713  61.3605309
  73.7446785  70.9371805  61.1306381  30.4502463   6.6053355  12.4385369
  31.2532163   6.9347399  12.8422260  30.6968021   6.4184242  11.5327191
  47.6105881  58.0875111  14.6627092  48.4687185  58.1844807  14.2498636
  47.4068880  58.9600229  14.9995494  51.7106152  26.2156606  59.4838858
  51.3453102  25.5003381  58.9632082  51.0596561  26.9145846  59.4207001
  75.5341005  68.5703850  21.8944383  75.5678749  69.2215776  21.1936951
  75.2876091  69.0692329  22.6732993   0.9379821  58.9658976  37.5768018
   1.2720782  58.6576223  38.4191680   0.2728611  59.6149921  37.8059816
  40.3496075   4.1864485  57.8162003  41.2770033   4.0201584  57.9850817
  39.9323201   3.3297548  57.9066277  10.5374265   1.8536785  45.3078604
  11.2845552   1.6899812  45.8833885  10.3517771   1.0036904  44.9087524
  78.8615322  74.5095825  54.9905109  78.6996222  74.0463209  55.8123446
  79.6638298  75.0067329  55.1498508  13.1444740  39.5996141  11.5825200
  13.7998283  39.6022606  10.8848548  12.3060596  39.6528983  11.1237669
  42.3819685   4.5111555  21.7816806  43.2943392   4.4162020  21.5081859
  42.3517895   4.1203585  22.6549482  12.3733747  33.7571335  45.3270817
  11.9069695  33.0105162  45.7029247  12.5109768  34.3501043  46.0657835
  69.7602081  42.9413271  47.5837469  69.8206806  41.9891405  47.5068331
  70.1444912  43.2720852  46.7718601   7.0170057   4.9898446  47.9362726
   7.7744687   5.3930545  48.3604240   7.3323005   4.1337791  47.6464939
  63.1302500  70.7237959  34.0795636  62.2942543  70.9801388  34.4689679
  63.7238455  71.4443827  34.2908192  77.8771925  14.0825462  45.6407499
  77.0233774  13.8099349  45.9767771  77.8088522  13.9690650  44.6927643
  -0.1012953  42.2871876  62.3757601   0.1940927  41.8521976  63.1756067
   0.1041950  43.2115030  62.5159216  60.8991194   3.0308613  60.6653500
  60.3099966   2.2781500  60.6144524  60.3228474   3.7745577  60.8415747
  56.5042067  60.7974911  43.3224106  56.0956001  60.7133818  42.4608994
  56.1785078  60.0451136  43.8164520  71.1661577  17.2651756  30.6358528
  71.4824581  16.6498315  31.2973189  70.2418804  17.3925173  30.8496928
   1.6264775  32.9006886  38.6345148   1.6233742  31.9477582  38.5442662
   2.0994841  33.0624247  39.4508123  45.6999016  23.3936143  26.8490505
  46.1323452  24.2454863  26.7895460  45.6181288  23.1025600  25.9408474
  36.9029045  75.6730461  28.3451223  37.7882004  75.7022953  27.9823184
  36.5821648  76.5715027  28.2668209  34.6512389  46.7652607  37.1056271
  34.2504168  46.0662794  37.6223445  34.9061298  47.4243689  37.7512598
   6.1735827  48.3881044  51.0780478   5.7751834  48.7326241  51.8773031
   6.9767469  48.8978815  50.9718132  53.8211250  46.0208035  57.1166086
  53.5474014  45.2854204  56.5684128  53.4311676  46.7888737  56.6991949
  13.4523392  62.3246574  65.7875156  12.7168500  62.8880215  66.0281658
  13.7780678  62.6936436  64.9665499  78.6064529  69.0970373  37.8727198
  78.3053732  68.3560991  37.3467970  79.4571543  69.3263245  37.4986005
   9.5698261  50.4749393  36.0756350   9.7844642  49.5557356  36.2344670
   8.7038237  50.5897427  36.4669061  62.6918221  44.5140076  13.7668037
  62.9843426  45.1171780  14.4500649  61.8259907  44.2261171  14.0560961
  56.6517115  71.1963320  30.2087116  56.2716484  71.3239050  31.0779142
  57.0851135  70.3443861  30.2594972  13.2705188  47.5556707  65.6533003
  13.8373852  47.0461416  66.2323332  13.8342321  48.2536316  65.3196764
  79.7571468   9.7740513  17.1530616  80.6200409   9.4738430  16.8675554
  79.7726011   9.6766752  18.1051695  25.0855541  18.9895415   1.3022934
  24.2386580  18.5458767   1.2558161  24.9709415  19.7802842   0.7752047
  67.2054434  76.1557388  60.4859304  66.9860077  77.0833254  60.5734730
  67.6061058  76.0851336  59.6194935  64.1867676  39.7727568   0.5160623
  64.5348278  38.8958605   0.3543859  64.5893374  40.3185354  -0.1594347
  45.6463718  21.0567880   1.6702197  45.7369566  21.8985057   1.2235242
  45.8869505  21.2404418   2.5783080  35.3218412  54.3990088  67.0788717
  35.4646444  54.2272615  68.0096483  34.8457217  53.6307001  66.7638397
   4.8280147  32.1453047  45.7423496   4.0742651  32.3221564  46.3052130
   5.0180405  31.2174630  45.8810377  45.7775688  62.8016376  40.0638294
  44.8457098  62.9404593  40.2329445  46.1152697  63.6724091  39.8541832
  53.0257416  44.3232727  65.1346493  53.1826305  44.5233488  64.2118359
  53.2463741  45.1323986  65.5960226  64.6542072  72.4512339  19.0123260
  63.8100767  72.8427029  19.2368841  64.5366764  71.5161419  19.1797137
  73.6077118  29.0349221  28.6932516  73.8408947  29.7670865  28.1224704
  72.9951668  28.5129070  28.1750607  51.3513565  65.8903742  30.7322145
  50.8315086  65.7993889  29.9336433  51.7439651  65.0271130  30.8620834
  20.9041858  75.1124573  65.8830023  20.8913088  74.3344688  66.4405012
  20.0114250  75.1791620  65.5442429  29.0811419  26.0049891  55.7413197
  29.0307283  26.6843939  56.4137030  28.6991954  25.2305126  56.1542797
   6.7542946  18.4425437  39.2479205   7.6067609  18.1074190  38.9700270
   6.4411283  17.8011620  39.8857188  25.6225228  10.4486489  57.9481459
  24.8726892  11.0259509  58.0920267  25.2359700   9.5840478  57.8093147
   2.7169868  72.1271753  31.3642836   3.1994429  71.5583229  31.9641805
   1.9169161  72.3523378  31.8390679   7.1799886  36.9892168  46.8005180
   7.3312461  36.0938144  47.1031857   6.9490385  37.4740744  47.5928640
  63.8048792  65.0755501  15.5474448  63.6803484  64.7559261  16.4410686
  63.2654476  65.8647299  15.4979897  30.1583982  27.2353435  39.5530772
  30.6269836  27.9922199  39.9049282  30.7467461  26.4963102  39.7077036
   0.5287187  70.9636307  29.2031860   1.2511623  71.1705971  29.7960377
   0.9429167  70.5063057  28.4713936  24.8322177  -0.3156962  51.0429859
  24.6376300  -0.1628416  50.1183224  25.0980115   0.5411932  51.3766432
  75.4169941  29.8121309  39.5129228  75.9175062  30.4810762  39.0457726
  75.0753164  30.2639055  40.2845383   9.6661806  12.2423196  12.3829055
  10.2295375  13.0136883  12.4449527   9.7973180  11.7826259  13.2121921
   4.4091693  12.4446714  19.5566285   4.7084713  13.1506252  18.9836717
   3.6423403  12.8059089  20.0012779  10.6680834  32.6109767  40.9846592
  11.4509702  32.8231978  40.4764462  10.5943394  33.3234048  41.6196728
  75.0090361  74.4203424  44.4369602  74.8455381  74.9206305  45.2364635
  75.7637119  73.8708067  44.6484089   1.1281209  57.5417662  47.0450687
   0.6257688  58.3406067  46.8846607   0.5032983  56.8320179  46.8964767
  44.5035744   2.9583186  11.6509748  44.0193796   3.5137188  11.0399771
  44.4382572   2.0789421  11.2786007  10.2513921  53.1645679  44.2399883
   9.3699336  52.9147625  44.5172262  10.8087277  52.4452209  44.5368910
  59.2668200  11.2807119  11.4563024  58.5153055  10.9393573  11.9410002
  59.0226603  12.1801853  11.2382054  50.3819418  29.2438102  43.0308056
  49.4607162  29.3439889  43.2706928  50.3617525  28.8004661  42.1827078
  74.8452806  67.0979261  34.6276569  75.0335073  66.8625021  33.7191534
  74.3646193  67.9234314  34.5665073  25.2731013  60.9885454  51.6243887
  24.6744657  60.9428167  52.3698902  25.8443832  60.2276659  51.7289305
  75.7890177   6.9728422  11.7335641  75.3645229   6.8235707  12.5784016
  76.4987373   7.5853038  11.9270170  58.1963015  73.4638071  32.0035768
  57.3171473  73.8046885  31.8388796  58.1110859  72.9636431  32.8152466
  61.1265612  49.4685030   7.8927267  60.2236938  49.2600012   8.1327021
  61.6053724  49.4483519   8.7213182  31.2583160  54.0603781   2.2132680
  30.9224248  54.6728182   2.8677365  30.5503845  53.9809990   1.5739214
  23.3263493  10.9392774  29.2249346  23.3831429  10.0135541  29.4616699
  22.5017262  11.0135055  28.7445998  71.8650293   5.8719832  34.1432858
  72.2391224   6.2692094  33.3568406  71.0003662   5.5663282  33.8691163
  60.2421808  13.3986127  32.7041268  59.5476770  13.6802769  32.1086740
  60.1310778  12.4501729  32.7700925  14.4138861  52.9271317  41.3111734
  13.7103283  52.8438616  40.6675053  15.1947904  53.1129646  40.7897472
   7.9403287  35.0115967  38.3203149   7.9855609  35.8184218  38.8333678
   7.1412426  35.1023316  37.8012204  14.0395713  50.8922529  55.8491611
  14.4725442  51.4549446  55.2071762  14.7420132  50.6157780  56.4376926
  61.0236597  63.2523966  65.3191471  61.6640997  63.3706427  66.0206366
  61.5139580  63.4255743  64.5155001   6.3272458   3.9725888  53.0489063
   5.9838861   4.5656300  52.3806000   7.2670329   4.1531822  53.0693722
  81.4216232   4.7081813  18.1758702  81.8557549   4.3146774  18.9327836
  81.3866520   4.0049395  17.5274408  14.6615815  60.3466702  27.2570562
  14.1590393  60.5384207  26.4652777  15.5004489  60.7870960  27.1208382
  79.3429470  57.3911095   8.8331866  78.6251736  57.9622889   9.1066593
  80.0250912  57.5326633   9.4895941  61.9734097  45.8332825  57.3200130
  61.8197823  46.4691353  58.0188131  61.1074257  45.4725742  57.1297693
  14.2885625  50.5867243  32.7271152  13.8114059  49.8059845  33.0081844
  14.5419133  50.4000854  31.8231153  20.8656955  24.9194717  47.6600313
  21.2153983  24.5941663  48.4895611  20.9505868  25.8709478  47.7209997
  12.1801913  61.7263937  22.8844619  11.5095365  62.3880291  22.7150798
  12.9779124  62.0901442  22.5003266  21.4284039  58.6967516  32.2152877
  21.1472893  58.1311941  32.9345608  22.3736596  58.7864017  32.3364758
  37.2310758   1.3553452  29.2443967  36.5780544   1.9494405  28.8744664
  37.8907180   1.2662001  28.5565329   9.0325040  64.4532156  29.4019890
   8.2763636  63.9134216  29.6324325   9.0144932  64.4949865  28.4458709
  24.0097966  34.5228898   0.1301676  24.9221386  34.6976745  -0.1007265
  24.0614523  33.9880836   0.9223467   4.9778074  68.9587259  23.0407000
   5.0720370  68.2553196  23.6830163   4.9724591  69.7608614  23.5629821
  61.3210058  68.1365395  10.5571938  60.5750132  68.0757666   9.9605113
  62.0152044  68.5357714  10.0328505   8.4157848  35.4248238  11.3932395
   8.9505863  35.8005905  10.6939411   8.4854674  36.0531306  12.1119928
  56.3424158  76.9545889  25.2358365  56.2795401  76.2033796  25.8257174
  57.0934296  77.4516010  25.5601716  27.5097656  32.8513861  27.1306992
  27.5564241  33.8065600  27.0894861  28.4109330  32.5612521  26.9894481
  49.6680880  14.1955090  62.4446678  50.5947161  14.3031490  62.6591635
  49.6399927  14.2137396  61.4880562  63.9892530  76.1416626   9.4400704
  63.2481098  76.0123158  10.0318599  64.6343899  75.4916811   9.7185564
   0.0171407  33.9791322  40.6029987   0.4399426  33.8160324  41.4461279
   0.6528790  33.6777258  39.9539804  25.1804209   1.1313782  58.6608887
  24.2569041   0.8811001  58.6874723  25.6362438   0.4118147  59.0975666
  44.0760088  11.0371244   2.3670113  43.3991432  11.3146901   2.9842997
  43.8762283  11.5146363   1.5618384  75.8636904   7.4556059  51.2061548
  76.2334919   7.6981348  52.0550680  75.2456474   8.1581920  51.0046005
  65.6093884  56.3002729   6.8418741  65.4537201  56.1524391   5.9090590
  64.7439003  56.4954233   7.2011495  53.2031202  58.2061338  28.7927651
  52.8229523  57.4134731  28.4140992  53.8908625  58.4596109  28.1771421
   3.7279725  74.5097542  49.1210318   3.4407479  74.8941851  49.9492502
   3.8542098  73.5817432  49.3187475  53.1145096  66.3335943   9.8391145
  52.3663712  65.8169651  10.1384747  53.8410568  66.0454130  10.3916645
   6.5089393  67.9439116  45.0341320   7.3767412  67.5457478  45.1020622
   5.9241718  67.2118139  44.8384047  76.3673973  49.6431684  36.9435811
  76.7297029  49.7146225  36.0604835  75.4212427  49.7210741  36.8213201
  36.0888433  27.9410362  44.7683573  35.3526425  27.6051641  45.2796602
  36.5688491  28.5007119  45.3787565  43.3631325  56.1518097  44.9157953
  43.7986898  56.3438129  44.0853405  43.4155035  56.9707012  45.4086542
  57.1013689  63.6441040  59.8511171  57.3197746  63.0358553  59.1450262
  56.9474173  63.0832291  60.6113482   4.7080293  32.2524858  38.4058380
   4.9121743  32.8388476  39.1343546   4.0997961  32.7511072  37.8602552
  42.7969122  53.0390024  50.9679890  42.1547031  53.1978083  50.2761936
  42.3169088  52.5429201  51.6311121  51.3033867  61.8677473  28.0154943
  52.0176172  62.0808601  28.6160660  51.2563515  62.6183367  27.4233460
  13.2392788  10.4537272  24.8827982  12.3762774  10.7057774  25.2113295
  13.8264620  11.1391997  25.2015090  60.4160309  76.7736435  44.5608616
  59.5452118  76.9416618  44.2007637  60.8646011  77.6174784  44.5064783
  72.2932053  35.1181817  50.5237484  71.9976759  35.5854201  49.7423506
  73.2486153  35.1436520  50.4710340  18.6043894  58.5718584  50.6940889
  19.1935563  58.7200022  49.9543810  18.6469007  57.6282167  50.8488989
  79.9379921  12.3285162  46.2339878  79.3916130  12.1321929  46.9950151
  79.5062351  13.0728900  45.8147860  11.1904716  78.1396532  54.9775076
  10.9610975  77.2380972  55.2029228  11.4925134  78.0903339  54.0705490
  74.1077709  44.2597342  28.7901878  73.3674574  44.3447351  28.1894064
  74.7795391  44.8359060  28.4255195  26.5180397  26.0429740  22.5046730
  26.6328549  26.9481707  22.7939248  27.3194504  25.5993056  22.7823997
   7.2046018  58.9335728  53.5874844   6.8152583  58.2242870  54.0989113
   6.4717603  59.5169401  53.3903646  23.3767486  71.8890953  31.7714500
  24.2887545  71.8214941  31.4887667  22.8679705  71.6320372  31.0024929
  19.0792739  66.2121296  40.9315109  19.9658155  66.5726519  40.9141684
  19.1887176  65.2950001  40.6802654  73.7204266  72.1826315  10.5421376
  73.4960175  73.1127119  10.5707479  74.6566916  72.1559668  10.7394481
  13.3976460  67.9394341  45.9517765  14.2661512  68.2028151  46.2560129
  13.5340726  67.6674318  45.0442362   8.6444706  11.7412651   7.2022128
   7.7280557  12.0141530   7.1580857   9.0526855  12.1484578   6.4381540
   5.8895892   8.6794013  11.3297856   5.2203310   9.2484361  11.7099488
   6.6586214   9.2419738  11.2385011   3.1370601  53.1398392  66.2942696
   4.0187711  53.3445597  66.6055679   2.6787215  52.8153133  67.0694065
  78.6907959  72.5425625  66.6929626  78.0402374  71.8509483  66.5717983
  78.5191107  72.8816366  67.5714731  47.5683355  59.2227221  30.9844947
  46.9891071  59.2729664  31.7448878  47.2783709  59.9353600  30.4150200
  20.0117159  34.6634746  42.7653122  20.7995605  35.0063777  42.3434734
  19.9021554  33.7885094  42.3929310  49.0386009  16.4521670  10.8627522
  49.1227245  15.5751705  10.4885411  48.0974722  16.5672541  10.9941208
  53.0224752  47.7943945  44.6970797  52.3285294  47.3267794  44.2323160
  53.2130718  48.5518169  44.1437101  19.4172919  15.9527183  36.1374164
  19.5075071  15.6582642  35.2311110  20.0183535  15.3950846  36.6313815
   5.3771681  39.8945498  42.9727983   5.2410525  39.4039345  43.7833548
   4.6264154  40.4861736  42.9219818  16.4286387  29.4413757  41.1332226
  15.5929840  29.0742111  41.4214993  16.1979878  30.0202942  40.4066658
   2.7637255  71.3483047  17.2665918   3.1446952  71.8752718  16.5641689
   2.1408212  71.9351292  17.6953804  57.4653101  68.1165743  36.2950110
  56.7533970  68.7191486  36.5102220  58.2413960  68.5108280  36.6931176
  49.2540359   3.5978779  22.8061843  49.4561768   4.3755203  23.3264184
  49.7583485   3.7109596  22.0005083  14.6317673  24.1028881  29.2359376
  14.8677373  23.3636975  29.7964239  13.8918400  24.5150018  29.6819234
   2.8075850  57.4696398  29.4266343   2.2225294  57.0921516  28.7697887
   2.4589789  57.1616173  30.2631903   8.1765556  31.7374325  60.5057716
   8.5149509  30.9738922  60.9734535   8.8443291  31.9305897  59.8477459
  82.2420502  22.2144246  26.3118505  82.9777718  22.7046180  25.9448910
  82.4714756  22.0920062  27.2330499  52.3232746  74.7481632  43.7483549
  51.4877415  74.3768549  43.4650755  52.9043531  73.9923954  43.8343859
   0.3858128  37.5225186  40.8907127   1.0942133  38.0441689  41.2679148
  -0.2391311  37.4134016  41.6074896  48.0233049  67.9556513  55.6619406
  47.6600313  67.9338789  54.7766209  47.7850485  68.8198996  55.9974098
  13.7623060  50.2944422  28.4633946  13.3540750  51.0470295  28.8914061
  13.0301499  49.8085213  28.0838442  66.2050390  73.3334589  37.2870111
  66.9693851  73.1556892  37.8351021  66.3138533  74.2439032  37.0122719
  13.8872063  69.5668173  55.3945255  13.6647451  69.7355890  56.3100910
  13.2568479  70.0860453  54.8952484  76.6368389   1.3476270  25.6329560
  77.1519136   1.7749533  24.9486160  76.5472412   0.4423303  25.3352284
  64.6305752  47.8632879  47.4218941  65.3349018  48.2660818  47.9297495
  64.3079615  48.5674095  46.8594313  75.1864386  48.6391544  43.2156897
  75.4617357  47.7349567  43.3669090  74.9210835  48.6581373  42.2961998
  18.1619453  15.3106844  40.8419275  18.2485223  15.9534609  40.1379585
  18.7309527  15.6395483  41.5378523  35.0097752  72.8084898  58.8578987
  34.4650507  72.6467276  58.0876160  35.0878859  73.7615585  58.9001465
  35.3859949   1.9217135  37.8286219  35.1566863   2.8489649  37.7665496
  35.0209260   1.5310362  37.0346904  25.4627562  72.8754282  62.9272509
  25.6577730  72.7526522  63.8562965  25.2679491  73.8089561  62.8447390
  26.3484526   7.0153826  46.8815279  27.1341372   6.7152244  46.4245415
  26.0882878   6.2713414  47.4246168  23.2041073  14.5970774  47.6095724
  24.0995502  14.2652893  47.5437450  23.2734084  15.3616655  48.1812668
  32.4872494  53.7677765  15.5547583  31.8766356  53.6220074  14.8321700
  32.2362590  54.6194696  15.9123194  75.4228687  75.0164938  24.2251086
  75.7028818  74.4524622  23.5042119  75.1397181  75.8259392  23.7998319
  72.3965216  38.2073379  38.8942623  71.5220690  38.5162544  39.1311955
  72.9652929  38.9632630  39.0402317  12.1706843  26.9958901  14.4168472
  11.5333211  27.1128368  15.1213491  12.8070748  26.3743734  14.7703397
  26.4964724  74.9354410  52.7648640  27.2185135  74.8694515  52.1399355
  26.9210768  75.1184654  53.6029863  10.0514352  64.0294313  47.1576309
  10.8416450  64.4440889  46.8114281   9.9137896  63.2681847  46.5938997
  28.1560016  73.1692505  21.0742855  27.8607154  72.3233843  21.4112520
  28.4664392  72.9792404  20.1889849  49.1425562  32.2560978  49.8176527
  48.3900404  32.1399903  49.2375851  49.0029716  33.1121039  50.2226257
  76.3418150  23.1588078  47.0567036  76.1710787  23.3811069  46.1414623
  75.7780886  23.7497783  47.5558996  20.3352427  38.5453606  14.2211223
  21.1373234  38.4690475  13.7043321  20.6300020  38.8598251  15.0757921
  70.3581667  71.5301561  18.8268292  70.3706789  71.4119768  19.7766221
  69.4836044  71.8710995  18.6393952  16.5996659  62.9629421  35.3242421
  16.7378652  63.3937120  36.1677885  16.4068639  62.0526695  35.5488944
  29.8980141  43.5678673  61.1813021  29.3243885  43.0291653  60.6363392
  30.7709217  43.1981993  61.0485983  63.7681198  22.6802897   7.7681041
  63.7088299  23.2250404   8.5529393  63.0617666  22.9951859   7.2040641
  20.2648425  54.5068550  13.2380641  20.3563023  55.0546169  14.0176940
  19.3697131  54.1710329  13.2849550  78.2984161  12.6730883  19.3606830
  77.7483130  11.9208074  19.5790696  78.0759573  12.8767967  18.4522521
  13.5585392  26.9844770  24.5242715  13.4344625  26.2415099  23.9336467
  13.5826826  27.7477741  23.9471865   1.5787062  43.6267471  37.5290728
   1.3737169  43.3888149  38.4332848   0.8417726  44.1709948  37.2516704
  19.0232241  64.3954849  55.3519583  18.8962436  65.3277206  55.1757669
  18.1431055  64.0215921  55.3091812  27.7662492   4.1461307  31.1795163
  28.2525349   4.8827115  30.8090997  27.5572538   4.4217008  32.0720482
  36.7047262  50.2208471   8.5347873  37.1873236  50.0244093   9.3377453
  36.8998933  51.1409330   8.3570606  11.1986268  68.9748049  26.2390399
  11.2586141  68.1021309  25.8503580  10.6118309  69.4567442  25.6562591
   5.8396989  62.1273613  11.9595218   4.9773964  62.0655060  11.5486205
   6.4413255  62.2830391  11.2314832  77.7801275  63.4805202  61.2805653
  77.1206141  63.6330318  60.6037998  77.2742748  63.2582617  62.0621967
  29.0627560  77.2012000  29.9867177  29.8706993  77.2445218  30.4981637
  28.4147629  76.8416330  30.5925655  47.6506281   2.7406183  20.4657245
  48.0441284   2.9362050  21.3160968  47.5000858   1.7954916  20.4831648
  49.6210337  38.5100675  11.8640089  49.7496653  38.3266068  10.9334028
  48.6851168  38.3706856  12.0084751  31.1557317   6.0636330   9.7996414
  31.8710327   5.4885668   9.5278412  30.8996296   6.5220147   8.9993107
   5.3834879  63.2596016  39.6177316   5.0896841  64.1541481  39.7900677
   6.0329562  63.0853844  40.2989578  36.8936419  61.4117813  29.6598053
  37.5438786  60.9107161  29.1675115  36.6995215  60.8676100  30.4229736
  39.2684174   6.1630470   2.7535552  39.5020938   5.7796574   3.5989186
  38.3180523   6.2700063   2.7935675  39.0331149  22.3438764  44.6845007
  38.8105559  23.2482719  44.4636631  39.9664879  22.2713614  44.4850254
  61.3359976  16.5060961  43.7602234  60.5701447  16.7452431  43.2381964
  62.0782280  16.6356564  43.1698513  29.4764280  59.8530245  38.5051680
  28.9348602  60.4441833  37.9822278  28.9943027  59.7492361  39.3255424
  40.9242868  75.6560564  39.6254969  40.9167671  75.5036688  38.6805344
  40.6163979  76.5568781  39.7252893   0.1660632  64.5151472  55.3288317
  -0.0354060  64.5423460  56.2641954   0.1844513  63.5823584  55.1148176
  55.7598591  16.8663514  42.7018690  54.9765110  16.4856768  42.3047733
  56.4788103  16.3194835  42.3852062  80.0244904  35.0648594   4.5177945
  80.1862335  34.1604042   4.7861809  80.6348801  35.5831242   5.0422496
  22.1736908  55.2958679   7.5691801  22.8377604  54.6173286   7.6909536
  22.4964380  55.8177614   6.8345416  69.5053577  73.5516644  27.6653361
  69.4738865  73.8037825  28.5881996  70.2074528  72.9027700  27.6181269
   7.7934372  72.3454618  55.8197451   7.0781660  71.9213963  56.2938643
   7.4404985  73.1984806  55.5667067  14.2689037  74.5188713   4.6198124
  13.3442783  74.2810106   4.5510924  14.2981005  75.1654959   5.3249741
   2.5751486  77.0818424   5.3494048   2.2190741  76.6469288   6.1241925
   1.9056678  76.9583654   4.6765149  13.7441790  30.2837777  55.3572226
  12.9874587  29.9609637  54.8679399  13.4835482  31.1558557  55.6535101
  38.1140208  27.8131700  58.2087278  38.9643693  27.3852062  58.3086443
  38.0779243  28.4448481  58.9269972  25.9243107  39.5597291  42.0501947
  25.3699112  40.1914501  41.5921545  26.1555171  38.9149451  41.3815928
  34.6123528  12.0510125  27.7951574  33.8826013  11.4576888  27.6172209
  34.3051267  12.9058218  27.4932551  26.3305616  73.2329512  13.8827503
  26.2563157  72.5277996  13.2397258  27.1160889  73.0170774  14.3853188
  50.9851503   4.5411760  45.3900433  50.9797907   3.5869712  45.3145695
  51.3172293   4.7098315  46.2718058  24.0395761   4.7314352  53.9164591
  23.6890459   3.9226633  53.5433006  23.7116241   5.4225218  53.3410645
   1.1959158   6.9170266  42.1056700   1.5624678   7.7747285  42.3206520
   1.2574951   6.4190882  42.9208374   9.8100179  30.0449276  40.1665974
   9.8734623  30.9763217  40.3780460  10.6792867  29.8139095  39.8391294
  81.3282490  40.1594448   7.7942055  81.6966534  39.2775750   7.7411079
  81.1061764  40.3810978   6.8898898  13.5196900  72.2201681   7.9351699
  12.8434062  72.8541803   7.6966262  13.3604431  71.4721298   7.3595721
  68.6741018  49.7087669   0.9212361  69.4137239  49.8911953   1.5008156
  68.1278706  49.0973186   1.4151962  25.5737376   0.7316883  10.0802612
  25.9076118   1.1954963  10.8481419  24.8522258   1.2766957   9.7662210
   9.2533082  67.0407867   1.9273874   9.3302023  67.9733515   1.7257862
   8.3480984  66.8217993   1.7063197  37.9940596   0.0663351   3.4496847
  38.7186769   0.6889366   3.5090724  37.6426545   0.1911758   2.5681180
  26.6840625  76.7398310  13.8094902  27.3800564  76.2026548  14.1879988
  26.8585253  76.7295313  12.8683805  41.0412073  66.8523884   9.6929491
  40.1075506  66.7862606   9.4925863  41.2604713  67.7667284   9.5136648
   2.1323889  74.2531395  22.2900677   2.0243478  73.3454370  22.0061016
   1.7070588  74.7703218  21.6060710  51.2872887  27.2541761  28.2900620
  50.3418636  27.1274257  28.2104588  51.5062618  27.8692532  27.5900888
   9.0478843  62.9655790  64.0046263   8.5789073  63.1842089  63.1993341
   9.4399613  62.1102524  63.8287735  68.2547665  23.3942199  58.5847473
  68.5317087  22.5110197  58.8286543  67.3696613  23.4744406  58.9402580
  56.1517000   9.3624365  37.5925207  55.8052301   9.8896551  38.3124042
  57.0634747   9.6414411  37.5085425  80.5628777  77.2913504  36.6704416
  81.0157681  77.9553795  37.1902299  81.0549736  77.2524118  35.8503485
  45.6450272  72.7519178  36.0832047  44.9090338  73.3313417  35.8861804
  46.0700417  72.6085711  35.2376008  49.6896076  19.0880203   6.2496299
  49.6638298  18.1587839   6.0214031  50.2097464  19.1231430   7.0524102
  52.9731989  11.6444552  47.7231312  52.0805883  11.9211555  47.9303026
  53.2597971  11.1605299  48.4976721  80.1724148  20.7282329  48.4684849
  79.8674917  20.6978106  49.3753052  79.3938351  20.9586692  47.9615927
  44.4162369  19.4657087  36.2539220  43.5811806  19.1728973  35.8889842
  45.0025368  19.5174193  35.4990649  35.2174234   4.9131814  13.7181497
  36.0246062   4.9755710  14.2288303  35.4571891   4.3884408  12.9543495
  47.0828104  17.2478843  17.4902880  47.1477699  18.1854618  17.6718390
  47.6757288  16.8400621  18.1214452  31.6672230  17.1025264   0.8866908
  31.2289667  16.7859125   1.6765766  32.0896769  17.9176295   1.1575600
  16.1154997  28.4109259  44.4214344  16.9142473  27.9229641  44.6217537
  16.4229763  29.2034268  43.9813948  23.0380988  33.7878609  27.7195549
  22.3659539  33.2007432  27.3735094  23.6558485  33.8972378  26.9966078
  26.7551184  14.1598630  22.4789190  27.5349188  13.6213887  22.6137733
  26.8042278  14.8279715  23.1626225  29.4557118  25.5959582  22.9182673
  29.9482751  25.9643769  23.6516714  30.0874782  25.5585885  22.2001410
  45.8268070  55.0447512  19.2076397  45.5942726  54.1165924  19.1815448
  45.4249191  55.4145432  18.4215283  26.8441129  75.9392071  36.8163753
  26.6888189  75.0141573  37.0071507  26.0934663  76.2033510  36.2844086
  56.6891146  32.8260231  19.8740256  56.3342905  32.0273995  20.2645779
  57.1857119  32.5211024  19.1146517  14.5274365  70.9811306  31.5972900
  15.0507307  71.0654640  30.8002448  14.4688857  71.8726397  31.9408178
  45.6815910  26.1587667  27.5524998  45.0215721  26.0453629  28.2364178
  45.3798485  26.9166875  27.0517612  28.4774065  65.1153994  17.5407922
  29.0240717  65.1580191  18.3253765  28.9902139  65.5618334  16.8670297
  26.1458969  55.7263136  11.0476077  26.3355303  55.7472229  10.1096129
  26.2269759  54.8033047  11.2878406  27.4158454  47.4276400  31.6619492
  26.8168926  47.2815514  30.9297276  26.9195938  47.1580076  32.4347782
   0.2290606  17.4642324  29.2480636  -0.2466260  16.9276452  28.6140060
   0.7519931  16.8373430  29.7478461   8.0030060  18.2015491  19.3848050
   7.7548975  18.7822878  18.6654890   8.9526969  18.1129205  19.3044019
  44.5457602   9.0488398  36.8546820  45.3453255   9.2976642  36.3909841
  44.6562386   9.4108665  37.7338648  30.8153343  27.3408532  -0.1099974
  31.5163589  27.1792865   0.5214237  30.9485459  28.2466841  -0.3892009
  40.4039288   6.9474423  36.9444370  41.0518980   7.0478469  36.2470984
  39.8651052   6.2069541  36.6659045  49.4554472   7.9535204  22.5725102
  49.0772104   7.0784509  22.6586723  50.2947617   7.8977102  23.0293155
  43.4998226  65.7579088  10.8688617  42.7221966  66.2155724  10.5493784
  43.5821962  66.0341167  11.7816353  38.9229369  12.1694624  28.9025807
  38.0851769  11.7625284  29.1234803  39.0345240  12.8586102  29.5574522
  51.5787983  35.4649663  18.4737480  52.4941540  35.3390169  18.2237542
  51.1505604  35.7646298  17.6718462  50.4466629  72.4433661  47.3283672
  50.9959126  71.7011452  47.0760393  49.7634315  72.4743223  46.6586876
  23.4651041   6.9440091  45.6903410  23.4918714   7.8203189  45.3061581
  24.3468165   6.8074250  46.0369778  43.3571720  21.9354987  35.5432343
  42.4861240  21.5495467  35.4507494  43.8591385  21.2804365  36.0281587
  27.5124454  61.6021299  37.6607108  27.7526498  61.9647980  36.8080640
  27.8097582  62.2573233  38.2920289  73.8573313  20.4564404  45.6832933
  73.1894970  19.7992682  45.8791256  73.6722231  21.1739707  46.2891960
  30.7996416  26.0937405  51.1581135  31.5022683  25.5502200  51.5146685
  30.9500885  26.9593096  51.5380907  59.6757317  33.7564945  66.7156410
  59.9147224  33.2988262  67.5216532  59.8663044  34.6767831  66.8972540
  48.8945532  20.1170611  17.9346502  49.4814682  19.9282169  17.2024620
  49.2064333  20.9526014  18.2822657  16.4147246  15.0803125  33.5808039
  16.9369102  14.5106626  34.1456509  15.9538043  14.4795954  32.9952073
  77.9904795  32.5279307  66.7819405  78.8831902  32.3053241  67.0460463
  77.5846148  31.6858578  66.5759897  68.3500195  43.2877874  54.7296381
  68.1180477  44.1004562  54.2802095  68.0599403  43.4218645  55.6319189
  17.8162706  75.6821823  31.1757851  18.3768308  74.9224567  31.3333297
  17.9039872  76.2128592  31.9675636   8.4366068  77.6538423  53.4800291
   9.0019068  77.9162289  54.2065430   9.0359148  77.2841386  52.8316641
  30.1577210  63.9509726  34.2684340  30.1183438  63.0899668  34.6847868
  30.1650047  64.5699549  34.9985290   3.1581551  32.7851939  58.2142258
   3.4001321  33.5704279  58.7052298   3.4580544  32.0589614  58.7609243
  43.9619970  74.4919395  15.2843308  43.0236912  74.3907690  15.1244044
  44.0614128  75.4038715  15.5576944  44.6976566  26.7576766  20.1470470
  44.1870880  26.7620301  19.3373966  44.4715500  27.5823283  20.5772281
  71.0839033  23.3155680  40.9534883  71.7827654  23.9616013  41.0557842
  70.6479263  23.5615134  40.1376009  55.1415491  52.9013586  58.1339598
  54.3135309  53.1115341  58.5657501  55.6991339  52.5654697  58.8357496
  29.2709589  77.9528713  63.2443285  29.9880052  77.3909712  63.5381699
  28.8170338  77.4342680  62.5800753   8.2278359  44.9959421   2.0369896
   7.7043736  44.4203806   1.4793645   8.6683404  45.5860758   1.4254920
  30.7261848  33.4502959  29.0534496  30.9429073  33.6591125  29.9621081
  31.3192105  33.9939213  28.5347724  39.2852330  22.3602748  16.0383713
  39.4310832  22.3699546  16.9843447  39.2925406  21.4321423  15.8043873
   6.4408383  77.9895673  27.6127839   5.5185470  77.9207605  27.8595233
   6.4766821  77.6434244  26.7210817  24.5190835  21.6036773  53.2074976
  24.0893936  21.0722041  52.5373220  23.9495182  22.3661017  53.3101368
  11.8536341  74.5790482  39.9504685  10.8993316  74.5047855  39.9455643
  12.0847380  74.7566700  39.0387273  39.1253495  11.4776874  33.1761122
  39.5557356  12.2233570  33.5944128  39.5774221  10.7113242  33.5290289
  43.9730740  71.9954634   6.9923335  44.6860504  72.5443363   7.3188877
  43.7909794  71.3878202   7.7091640  31.1699891  65.5859566  26.4650440
  32.0824933  65.7670307  26.6903830  31.2098837  64.8039770  25.9144521
  75.0849056   2.8877470  18.3924174  74.1625214   2.6458248  18.3092976
  75.4103708   2.9037395  17.4923897  82.1889782   9.4053173  49.0886211
  81.9616890   9.4587362  48.1603336  81.5585899   8.7846893  49.4542265
  50.6706142  12.9452908   8.2565850  51.4951086  12.8994763   7.7724975
  50.4459906  12.0318985   8.4340429  53.1280327  30.4752493  20.5333614
  52.7694988  31.2686467  20.9311104  52.9838228  29.7925997  21.1886668
  22.1105862  66.6762161  41.6108894  22.9780269  66.2887287  41.7276382
  21.7919278  66.8228531  42.5014973   7.8130919  32.6722383  33.3064723
   7.9244429  33.4197378  33.8939047   7.6159197  31.9379258  33.8879704
  71.5719748  77.9061222  22.6832509  72.0848131  77.4076843  23.3194804
  70.7452965  78.0866909  23.1307220  42.4825859  30.4997325  53.0548191
  41.8246222  29.9785376  52.5947428  42.8191519  29.9151945  53.7339878
  76.6960621  65.7415628  14.0349591  76.7269325  66.1552095  14.8976147
  76.5766954  64.8100615  14.2201269  80.9214211  35.7866263  48.6485672
  80.2692032  35.1323056  48.3981514  80.9747124  35.7190394  49.6018887
  38.6473441  60.5188227  44.1170597  39.5598984  60.6169033  43.8452911
  38.1526256  61.0460186  43.4897184  70.1342201  14.1903877  39.0636444
  70.1064062  14.7325885  39.8519826  70.1100588  14.8173547  38.3407617
  36.2023854   3.6351708  11.4530921  36.9032884   3.9740863  10.8962226
  35.5445194   3.3096901  10.8386755  69.0791225  55.7051039  64.5578051
  68.6589432  55.5937862  65.4106188  69.4634628  54.8495483  64.3666601
  63.4012699   7.1795911  21.8009853  62.7044868   6.6722244  22.2172809
  63.9567900   6.5233570  21.3802886  39.2806053  75.1539850  36.7541218
  39.0253210  74.2589188  36.9775510  39.9628234  75.0499678  36.0908055
  78.2038879  30.8034396   6.8033546  78.2501936  30.6426811   7.7458215
  77.6735497  30.0828195   6.4632386  10.1687288   1.7126772  52.6656389
  10.7918251   1.1976138  53.1781721   9.4658709   1.9202331  53.2813835
  11.8986130  64.4843817  29.8742986  10.9666872  64.6779442  29.7729111
  12.1470737  64.0647697  29.0506315  62.8940058  18.2868850  25.4330873
  62.6092339  17.3749983  25.4930997  62.2183895  18.7799191  25.8985949
  55.8551168  24.2611194  45.0409937  55.8536768  23.3820486  45.4197550
  55.8916998  24.8474693  45.7966948  64.9060059  34.5477915   6.6792405
  64.8285007  34.3679523   7.6161939  64.1759348  34.0722585   6.2828845
  45.8003139  21.0275173  62.4954271  44.9416971  21.4468241  62.5518799
  46.3189077  21.4505434  63.1797791  52.5753355  51.2403202  18.7035954
  51.7000246  51.5743208  18.5073674  53.1455088  52.0057821  18.6314511
  81.7406750  19.7211802  28.0915403  82.0885754  18.9492548  28.5380077
  80.9880829  19.9851370  28.6208463  81.8134594  51.6797161   0.1221965
  81.5207386  51.3985777  -0.7446957  81.0088730  51.7479753   0.6362110
  45.9276056  62.0094395  12.4055755  45.9206629  61.5818024  11.5492392
  45.9433079  62.9454184  12.2057652  49.0285873  35.6661630  57.9964066
  48.6893272  35.6534982  58.8913822  48.2955122  35.3676915  57.4581289
  13.8265169  73.8296175  32.3754191  13.0916429  74.4345379  32.4767160
  14.2015314  74.0490246  31.5225101  45.1151609   4.6047306  21.2446594
  45.5786562   5.1809746  21.8523979  45.5497646   3.7571824  21.3395953
  40.1417732  68.3392239  22.5738692  40.0401735  67.9065418  23.4216309
  41.0778141  68.2767344  22.3837256  34.7779012  10.5498171  19.8287618
  34.4452691  10.7461584  20.7045698  35.2509928  11.3404858  19.5694172
  62.6709318  34.7936296  52.2144985  63.1341791  33.9969659  51.9557381
  63.2558537  35.5056667  51.9554663   4.9025425  74.1850710  37.8836346
   5.2242291  73.5778713  37.2172546   5.4316300  74.9737930  37.7644110
   2.7682140  27.7566409  16.2453187   3.2560736  27.7868009  15.4223263
   2.3187786  28.6006689  16.2883985  34.3653250   8.1045020  10.3395343
  34.4598126   7.1607888  10.2102673  35.1650262   8.4782141   9.9693322
  41.8420219  10.3512526  35.7754397  42.3184395   9.7404724  36.3377595
  41.5013933   9.8071843  35.0653744  67.8583193  11.8284357  21.9712830
  68.2813549  11.5830743  21.1484385  67.3935938  12.6403987  21.7688608
  37.6645422  54.8516846  39.5598412  38.1282282  55.2063131  40.3184319
  37.3543334  53.9933777  39.8484778  48.5451666   0.4819845  37.2244954
  47.6968017   0.9229444  37.1790671  48.4454098  -0.2875830  36.6640949
  48.7736034  11.2553537  28.2363343  49.2680454  11.9858658  28.6079669
  47.8641748  11.5539086  28.2425261  80.5741978  51.8721819  59.4569826
  81.3733006  52.3467016  59.6860981  80.7080460  51.6023302  58.5484123
   6.6550332  10.3961587  25.4186797   7.3048496  10.0793338  24.7913122
   5.9388357   9.7636670  25.3617024  65.3332806  29.8310494  25.6398058
  65.1999092  29.5915556  26.5569139  65.8521032  29.1127634  25.2777004
  38.8608050  13.5066593  44.7222662  38.8246369  12.5589359  44.8516655
  39.7957921  13.7068450  44.6780396  17.6095521  70.4944134  20.7428050
  17.0745718  69.7045898  20.6640244  17.4633181  70.9655523  19.9225152
   2.1649353  65.3688812  64.5439482   1.3701525  64.9427509  64.2230654
   2.0224971  65.4633427  65.4857635  57.8420019  61.4010143  40.3109026
  57.5465918  62.3015976  40.4447603  58.7333632  61.3870192  40.6594896
   1.8512957  72.3356485  50.2539778   1.8599348  71.5352440  49.7290850
   1.5022118  72.0620489  51.1022186  11.5201116  73.5351562  49.1088486
  10.6443703  73.3643103  49.4554329  11.7660618  72.7219152  48.6679554
  30.5876827  64.1056776  37.8777432  31.3600707  64.5590830  38.2154846
  30.2166581  64.7105932  37.2353625  29.7030401  66.5013504  58.8278961
  30.0283051  67.4011612  58.8557291  30.4927850  65.9625387  58.7808561
  50.9993267  10.7572615  57.3574305  51.7648554  11.1636424  57.7636957
  50.6788397  10.1396704  58.0147743   9.4670361  38.1070709   2.4767852
   9.8280835  38.9779043   2.3108840   9.8930639  37.5440454   1.8304625
   7.0724362  32.5420570  19.8400426   7.2647864  31.7484546  20.3394675
   6.4395702  33.0166984  20.3789568  38.9315104   8.4325778  48.9507627
  39.6035504   8.1513721  48.3298635  38.1234431   8.0362904  48.6248541
  54.8126698   3.1012931  24.7410059  55.4086399   2.5539494  25.2523446
  54.0228033   2.5693968  24.6439004  25.3438711  25.1411343  25.1627398
  25.4218650  25.3889012  24.2414570  25.9532642  24.4103265  25.2666378
  47.0968628  68.4314299   7.3360592  46.6108465  67.8279257   7.8980237
  47.9723358  68.0492926   7.2748649  35.3891182  17.1320832  15.2145720
  35.1376104  16.6834629  16.0218608  35.5187535  16.4276993  14.5795369
  31.4980698  20.3049111  28.9462304  31.6467309  19.6485162  28.2655883
  30.8928800  20.9303474  28.5477257  14.8531246  11.0679138  14.9796844
  14.0726495  11.5795374  15.1925933  14.5181370  10.3045535  14.5092642
  54.1937304  25.1753187  12.9898977  54.0803146  24.2505145  13.2092357
  55.1373816  25.2783060  12.8668463  76.1348820  73.9002895  33.3328843
  75.8560038  73.6932564  34.2248464  77.0414972  74.1925192  33.4271431
  20.8653426  68.2056284  39.0780592  20.7790613  68.4395123  38.1538916
  20.2988219  68.8264704  39.5361423  45.0291204   8.7661427  23.5348177
  45.1170874   8.4902692  24.4471693  44.3336582   8.2106876  23.1826305
  69.1891766  47.6163769  12.2788334  68.7521076  46.7676735  12.2087896
  68.4947681  48.2568550  12.1245039  80.0318623  71.2570333  45.9459066
  79.1494465  71.4442158  45.6256914  80.2123260  71.9567823  46.5736103
  48.3502340  29.8487306  20.1486373  48.5587072  29.2850280  20.8936262
  48.1686640  30.7037854  20.5386925  61.5621853  75.6335974  10.2976608
  61.4010572  74.7439432  10.6119645  60.8254719  75.8189821   9.7153175
  45.5305910  15.7784522  24.0382600  45.6922293  14.9844801  23.5286403
  46.3265562  15.8965099  24.5566559  55.3910923  16.6395044  32.2418475
  56.1474180  16.6514361  32.8284168  54.7356033  16.1194861  32.7067614
  69.7759533  26.8982291   4.6914098  69.1466141  27.4620509   4.2416644
  69.2630100  26.1381888   4.9661115  24.8053336  37.7739215   3.4063852
  24.2752957  37.9526591   4.1831386  24.1662812  37.6202726   2.7105147
   2.4465930  30.1550865  36.2230754   1.7898461  29.8140693  36.8302178
   3.2752132  29.7955227  36.5398312  46.9980288  25.0439143  15.0558853
  47.5453043  25.7707500  15.3532672  46.7668390  25.2710700  14.1552281
  64.6195555  19.1638696  50.7841015  64.8166800  19.7464395  51.5175772
  64.0335608  18.5033572  51.1536407  12.1649647  51.1497355  53.8624144
  11.6128457  50.3968954  54.0736532  12.9606998  51.0151052  54.3771076
   4.4084415  77.5662851  25.6362462   4.2864022  77.3078680  24.7227025
   3.5607985  77.3982859  26.0479617  53.3933735  32.3036528  14.4077337
  53.9959955  31.5668845  14.3064630  52.5327253  31.8970203  14.5085275
  60.4383755   5.9383386  34.1499114  59.7851610   6.6364932  34.1959763
  59.9627256   5.1885080  33.7924981  59.7602892  10.7161820  55.7847452
  59.8231697  10.7826710  56.7375565  58.9223051  11.1263669  55.5708075
  39.9281597  32.4818349  42.9115868  40.4575062  31.9239664  43.4815073
  39.1418958  32.6701880  43.4239769  67.3660135  27.5746727  34.7614908
  67.4055147  26.6735315  35.0818300  68.2325792  27.7341151  34.3874884
  60.9926414  39.7513938  50.2928925  60.6612682  39.0911961  50.9016323
  60.7794237  39.4062686  49.4259119  66.5304232  34.1475415  37.3185825
  65.9295893  34.4798589  36.6516542  66.6266584  34.8720741  37.9366636
  29.1517544  26.3285184  28.2184482  28.9308357  27.2214627  27.9537296
  29.9729419  26.1402392  27.7640986  45.5150032  10.2489543  12.9863477
  46.0140944   9.6980494  13.5893774  45.7933235   9.9643773  12.1158385
  62.3915386   8.2377505  45.4033327  63.2115316   8.2044917  44.9106503
  62.1329880   9.1589701  45.3761625  68.4511185  69.7477102  65.9776354
  67.9082489  68.9655066  66.0760593  67.9030371  70.3593159  65.4859304
  52.7324738  37.0764100   0.0442510  52.1094527  37.4232519  -0.5943197
  52.2470631  37.0621335   0.8691126  61.4340067  21.1690807  51.3418388
  62.1314669  21.8245840  51.3514853  60.6250143  21.6796160  51.3752747
   1.5663169  33.9583349  25.3408384   0.9991654  33.3225036  25.7770610
   1.9176291  34.4936705  26.0523343  44.5568705  17.8328478  33.0121589
  44.3378353  17.1121430  33.6027861  44.1027355  17.6206934  32.1966958
  64.2350435  19.9107039  20.3075457  64.1931248  19.6459961  21.2264609
  64.9063540  19.3451726  19.9257696  22.6980424  48.2786417  65.1541805
  23.3376741  47.6337242  65.4561520  22.2755551  47.8631258  64.4024611
  76.0734653  42.7084780  40.2677011  76.6557598  42.3952770  39.5755506
  76.5429783  42.5184584  41.0799074  64.6379662  63.6326218  31.1694717
  63.9438152  64.0499306  31.6796088  64.4531775  63.8825750  30.2641487
  66.7272615  13.9580905  24.3703556  66.4926195  13.0373311  24.2547107
  65.8894491  14.4058061  24.4880509  42.0981503   1.3981184  21.9990540
  41.9124174   2.0781626  22.6465702  41.2355471   1.1050533  21.7053533
  67.6605797  64.5596313  30.8690953  67.5576305  65.4781961  31.1178327
  67.0128345  64.4247580  30.1773787  40.8776999  23.6256766  37.3726487
  41.2388992  23.6539078  36.4866638  41.3183117  24.3394303  37.8337860
  13.1153631  67.8611040   3.6269012  12.9046857  68.4849024   2.9321203
  14.0556455  67.9697943   3.7693411  68.8332653  11.3661575  24.6305060
  68.2679367  11.9111347  25.1778960  68.4515572  11.4289439  23.7549543
  19.4083500  31.4653015  64.7691154  19.9752057  32.1319199  65.1570940
  19.7848547  31.3048339  63.9038277  27.3168778  46.3327408   3.1919354
  28.1258464  46.1635351   3.6748129  27.6036501  46.7687464   2.3895064
   9.7930545  29.1714048   0.2114582  10.7415855  29.0430284   0.2051000
   9.4316125  28.2854319   0.2367925   2.8690338  59.0949106  66.2966299
   2.9349759  58.2711220  65.8136654   3.7328726  59.2102766  66.6924906
  51.0394812  15.9604895  25.1817465  50.8034849  15.0775039  25.4661322
  50.8706093  15.9618151  24.2395616   3.3572815  -0.1364971  30.7429743
   3.5586499   0.7949804  30.6533647   2.7966021  -0.1869370  31.5171361
  34.9663115   0.2961480  43.5588694  34.1276813   0.3047839  43.0975008
  34.8030186   0.7908942  44.3618584  23.7588820  78.0048604   7.9244310
  23.5924849  78.2419696   8.8367486  23.3687433  77.1361388   7.8277582
  75.1006319  17.8211676  67.0102708  74.2807414  18.1659018  66.6564785
  75.2312304  18.3041846  67.8262794  56.8352795  16.4163256   3.7589249
  56.3766050  16.6413522   4.5683777  57.4467421  15.7255459   4.0142122
  55.9127855  33.8273573  35.7820940  56.6846609  34.3554068  35.9860635
  55.2446032  34.1329265  36.3955998  69.3159103   0.3682885  47.0770836
  69.7291565   1.2308215  47.1157646  69.3194056   0.1425309  46.1468935
  67.7404690  53.8380480  12.3630548  68.5378265  54.3300581  12.5589573
  67.4545193  53.4979248  13.2108641  70.7323742  31.3400650  29.4014049
  69.8067570  31.3801169  29.1608596  71.0268354  30.4880524  29.0795350
  19.4570434  73.6891651  18.8262558  19.8799920  74.2747593  18.1982207
  19.8170817  73.9475536  19.6746910  66.6009665  25.2867484  24.7130823
  66.5710306  24.3597341  24.9496865  66.4797831  25.2956390  23.7636256
  37.4672627  55.0301027  42.8232861  37.3846102  55.8086729  43.3739519
  36.6413212  54.5618773  42.9449987   0.4539890  72.9902840  26.1839652
   0.3925887  73.6907530  25.5345011  -0.0246956  72.2590637  25.7935691
  77.7675533  25.8768201  43.8575411  78.3380461  26.2880707  44.5068836
  78.2934284  25.8520842  43.0581188  62.7615118  60.6959867  24.4944453
  62.5594091  61.2914181  25.2161431  62.1601534  59.9610519  24.6147251
  20.1350021  19.7295046  42.6892090  20.8915639  19.3372405  43.1250668
  20.5132985  20.3032088  42.0228863  56.8784952  16.8651581  34.6746969
  57.3324013  17.6673329  34.9329948  57.4895573  16.1623704  34.8958921
  46.9406509   9.3024558  54.9357414  46.6145086   9.5039171  54.0586615
  47.8750515   9.5064056  54.8965216  25.8749700  77.4876642  48.0862331
  25.5416346  76.7435837  48.5876989  26.4452124  77.9528379  48.6983347
  53.7036467  22.2251558  21.7802024  54.1113091  22.1987653  20.9145546
  54.3934250  22.5480056  22.3600388   0.6432830  14.8740613  34.8839641
   0.2928551  15.7055223  34.5644259   1.4121041  14.7122288  34.3371940
  81.9781685  22.4857855  34.5257711  82.7674198  22.5498223  35.0635600
  82.1819878  21.8083096  33.8810110  72.0566416  32.4894357  49.3032503
  72.0434713  33.3370829  49.7477198  71.3306570  32.5339627  48.6810017
  58.6164713  75.8453751  27.6055217  57.8118420  75.4911900  27.2269034
  58.7093878  75.3881454  28.4413075  20.9116006   5.0161058   3.7059417
  21.1848521   4.8671895   2.8007400  20.5986476   4.1624385   4.0051797
  60.4365587   4.9598503  30.1734591  60.9675169   4.7388399  30.9386182
  59.8543358   5.6555605  30.4788041  38.5626745  30.9292412   5.7483423
  39.1154075  30.7961345   6.5184069  38.2902193  30.0476456   5.4938018
  46.4288568  14.0233469  61.0821486  45.9314013  14.6948266  60.6153727
  46.5867186  13.3434975  60.4270792  72.0825100  19.4453001  22.1998930
  72.7903080  19.5808673  21.5699172  72.1763086  18.5326350  22.4727964
  11.3001180  18.8026524  27.9879761  11.2230122  19.0214288  28.9166427
  10.9064877  19.5471716  27.5330281  49.6806002  38.2145691  51.6112518
  50.5146217  38.6200142  51.3740730  49.1341829  38.3173108  50.8320808
   7.8181189  67.4778128  29.0976214   8.2874113  66.9813538  28.4271550
   8.3903170  67.4451351  29.8642731  61.6302633  62.7127218  26.4506912
  61.5546656  61.8704128  26.8990493  60.7327080  62.9326344  26.2011600
  52.0028973  25.1033735  46.3972902  52.8363514  25.5656743  46.4860010
  52.1948814  24.3745804  45.8071756  35.5383396  10.6530821  41.7361879
  34.7153687  11.0585737  41.4631891  35.2715516   9.8661858  42.2114229
  15.2601659  70.4707766  49.7956944  16.1584020  70.1411438  49.7683907
  15.2147806  71.1020803  49.0776205   3.2701057  69.5077801  43.9283848
   3.6672848  70.1623440  44.5028687   2.5103831  69.1901827  44.4164276
  47.4938202   3.4756693  35.9125948  47.2999668   2.5419757  35.9954667
  46.8521833   3.7982637  35.2797747  26.9425035  52.3398542   3.7977377
  27.3869157  53.1875706   3.8080016  27.4541116  51.7939711   4.3948168
  48.0847073  27.9067206   6.4341277  48.6034679  28.2767344   7.1484178
  48.5339165  28.1927586   5.6387502  46.4891005  12.4791896  43.5185909
  46.6102505  13.3737350  43.8369370  47.0208693  11.9419181  44.1057825
   1.2595725  30.2478456  22.9165697   0.8732837  29.3883753  23.0848622
   2.2040115  30.0993037  22.9634929  12.2482812   4.4023815  27.7295303
  12.0474064   4.7251174  26.8510532  13.1038165   4.7800547  27.9336262
   4.3520507  39.2821574  60.8507347   4.1450515  40.1822138  61.1022949
   3.7714455  38.7436271  61.3884306  40.3666258  14.5378649  30.4293370
  41.0229349  13.8410938  30.4287481  40.3721762  14.8713672  31.3265419
  35.0561786  16.3262224  17.8173459  34.1202354  16.1655295  17.6972759
  35.1337981  16.6234708  18.7239051  68.4419870  28.3242059   8.4518522
  68.4257603  28.7636566   9.3020594  68.1557751  27.4301457   8.6388528
  22.7888703  28.1829214  58.7407732  22.4505782  27.4930549  59.3116236
  22.4619842  27.9553127  57.8703880  67.7067852  12.9800975  59.5936823
  67.9616833  13.5543644  60.3158140  66.7847729  12.7827787  59.7585726
  64.0112591  59.6269035  62.2166681  64.2344713  60.3640699  61.6483355
  63.0939579  59.4398499  62.0171642  68.6506367  30.3020453  19.2263305
  68.0828333  29.7263694  18.7140489  69.5383453  30.0141048  19.0135121
  24.5018435  65.6888437  31.2107587  25.0821042  66.4479542  31.1535001
  24.9560380  65.0027514  30.7216620  33.4123039   5.4293072  41.0353756
  33.6333275   6.1998022  40.5121946  34.2135668   5.2309889  41.5200186
  72.3976851  47.0593977   4.5440069  73.2425404  47.3804474   4.2287552
  72.3772192  47.3068953   5.4684311  70.9836245  26.8214965  55.1717806
  70.4712677  27.6048326  54.9715185  70.4673100  26.3600659  55.8326387
  61.8864059  45.5955172  42.4901009  60.9576321  45.8092356  42.5792027
  62.2606373  45.7909822  43.3491564  48.1502724   5.7560503  19.4713652
  47.8824425   4.8841232  19.1811192  48.3573437   6.2245512  18.6627495
  53.7874937   2.2959194   8.2640153  52.9476738   2.4674641   8.6900455
  53.9293146   3.0557966   7.6994747  64.8383427  27.8839469  33.9247990
  65.0058508  28.1396246  33.0177140  65.7045794  27.6897025  34.2827559
  58.0225945  75.9297848  62.5056028  58.1909084  76.0187292  61.5675211
  58.3820772  75.0723410  62.7331924   4.1086859  29.2034125  10.9272170
   3.3140650  29.4549894  10.4565597   4.4753760  28.4852982  10.4113877
  59.3787527  27.6379991  51.0271835  58.6603069  28.2378292  50.8264971
  59.6174574  27.8440738  51.9309425  31.0036135  67.4553394  38.2472968
  30.6253219  68.3070374  38.4657907  31.0160875  66.9787598  39.0773273
  67.9309893  18.2221603  24.2814231  68.8100100  18.5836935  24.3947554
  68.0730534  17.3750019  23.8590813  53.4267712   5.0282937  26.0342598
  53.9180136   4.3376040  25.5894446  52.9691648   4.5776623  26.7440200
  39.1280675  11.8930185  15.6902170  38.9104843  11.4946330  16.5329373
  40.0815582  11.8298733  15.6345010  60.2583313  45.8810902   6.9150698
  59.5500994  45.5897760   7.4893296  61.0307693  45.9036446   7.4799263
  54.0226173  12.8185475  32.0350337  54.2134666  11.9504380  32.3902726
  53.8511324  13.3601785  32.8053975  74.6652699  26.1140895   7.8996384
  75.1029444  25.3453183   8.2652378  73.7993002  25.7972050   7.6429039
  38.0706000  29.2647195  14.0646303  38.7026072  28.7010241  13.6184835
  37.5891757  28.6735678  14.6434236  65.0475645  14.8081279  43.3713007
  64.8226595  13.9087284  43.1331158  65.5534744  14.7225308  44.1793585
   8.1645000  54.2340374  56.9343090   7.5813675  54.6777248  56.3184118
   8.3122671  54.8758030  57.6289606   7.8491938  41.9781971  34.9891925
   7.0029801  42.3614883  35.2199364   8.1722063  42.5245428  34.2726731
  78.2001638  40.5773067  38.2844377  79.1079426  40.2824116  38.3565760
  77.8930235  40.2068472  37.4569964  56.1197424  36.2281299  23.0024695
  56.6150665  36.6302276  23.7160540  56.7647266  35.7017231  22.5301099
  67.3252344  34.7796535  58.4233999  66.6090822  34.1504145  58.5095119
  68.0016327  34.3076944  57.9376316  36.5637279   9.6734196  45.9156942
  37.2909808  10.1385438  45.5021811  35.8246422  10.2781820  45.8505201
   5.9605837  11.8536651  56.4724493   6.0549003  10.9370875  56.2131834
   6.8405980  12.2195470  56.3833618  58.0126572  15.0214028  16.6443598
  57.7266884  14.1080236  16.6305315  58.9642859  14.9758613  16.5518510
  35.2917933   8.2588297  36.3421941  35.4443908   7.3153329  36.2896609
  36.0838938   8.6504257  35.9741449  53.3339357  18.0706072  61.6480398
  53.0740976  17.4469650  62.3261166  53.8255835  17.5461686  61.0159969
  49.3679380  26.2591982  43.3470917  49.9718285  26.6070437  42.6909304
  49.4604254  25.3089952  43.2778883  75.3232670  22.8838325  23.4335589
  75.2572727  23.8285041  23.2940173  76.2434864  22.6806521  23.2658076
  77.7441359  24.7277021  30.7658792  76.8099928  24.8905015  30.8966804
  78.1594896  25.0651264  31.5595126  74.5410681  28.4712029  33.3480978
  74.8437643  28.5096550  34.2553616  73.7190199  28.9615798  33.3488894
  65.9415197  31.6971111  23.5251832  66.6693926  31.2328315  23.1118035
  65.7786179  31.2141371  24.3353868  75.7619476  43.9274120  65.1385498
  76.1899853  43.7296057  64.3055439  74.8510695  43.6636400  65.0083542
   3.6041030  36.9740105   1.7288579   3.4564486  37.0228243   0.7843754
   2.8311187  36.5235400   2.0691565  36.2245107  54.3346214  20.8553362
  36.0855913  53.4994030  20.4088569  36.4412761  54.9482775  20.1534295
  35.5698252  38.2544494  23.0106878  35.7143903  37.3158431  23.1304812
  35.3246117  38.3433938  22.0897150  69.0120173  25.6374884  26.3025904
  68.2457256  25.7842684  25.7480836  69.2177153  26.5011430  26.6603899
  54.4254017  31.3296580  36.4848256  54.4117260  31.5706301  37.4110961
  55.0122166  31.9682956  36.0798335  21.2577757  77.8169782  21.4793134
  22.0010170  77.4392868  21.0090256  21.6550049  78.3988827  22.1272540
  65.7110596  25.1242280  11.9688356  65.6007671  24.1735053  11.9828439
  65.2944183  25.4256034  12.7761853  47.3562336   4.2038661   0.5337611
  47.8501415   4.9300927   0.9143941  46.6041851   4.6203026   0.1127594
  21.7167401   1.7185354  44.9595881  21.1760187   1.5652098  45.7344103
  21.1753774   2.2703591  44.3950987  77.2218704   5.6150168  24.7433472
  78.1511641   5.8365810  24.8029900  76.9832420   5.8242494  23.8402915
  14.4048297  53.0507374  48.5735035  13.6507487  52.8700638  48.0122995
  14.8599637  52.2113466  48.6406898  38.2831812  69.2880869  10.5732954
  39.1994762  69.5359087  10.6966698  38.0846334  68.7247229  11.3212466
  29.9036813  70.6929016  36.1855435  28.9976907  70.5215120  36.4425254
  30.3491950  70.9052563  37.0056987  24.1503406  23.9077735  40.4547977
  24.3231750  23.2957172  39.7394323  24.5814133  23.5161972  41.2144518
  59.1561985  12.1990108  23.6165977  59.5944357  12.9114115  24.0820718
  58.4041023  12.6150930  23.1953454  66.5211773  26.6125154  15.0470817
  66.5018415  27.1401787  14.2486906  67.4309826  26.6565084  15.3412783
   2.7584323  68.5719728  20.9481859   3.4845430  68.7762642  21.5374756
   2.6473692  67.6243067  21.0245180  68.8675594  52.3482656  48.3043003
  69.5479488  51.7676306  48.6451197  69.3084574  52.8629875  47.6283550
  26.5673637  60.8834171  21.4931083  26.6793108  61.5175486  20.7848835
  27.0050049  61.2837172  22.2444153  51.4759636  10.8555639  18.0635214
  51.1818266   9.9923480  17.7727044  52.0851469  10.6725931  18.7788188
  27.1488047  30.7849717  23.7834144  26.5269589  30.2650881  23.2742381
  26.7070818  30.9358501  24.6190882   6.0246605  70.8474207  30.7532644
   5.6228518  71.4358187  30.1140690   5.7025987  69.9782801  30.5143166
  76.3155508  20.7198191   0.0490329  75.8834600  20.9393907   0.8744519
  75.8177185  21.1955261  -0.6158694  34.6210957  71.9843769  48.8987255
  33.8448763  71.4822340  48.6505890  34.3773365  72.8962755  48.7398148
  11.1480379  14.8573256  44.4242048  11.4119494  15.4165983  45.1548147
  10.9624362  14.0089929  44.8268366   3.0410814  19.7231889  20.2071214
   2.1305951  19.7891998  19.9192166   3.1999478  20.5358267  20.6873417
  66.1953020  19.9902534  10.6199729  66.2210751  19.5447528  11.4667881
  66.4056635  19.3070483   9.9834114  82.3070717  32.6569486  33.4854031
  81.4486217  32.6595068  33.0619669  82.6124382  33.5612559  33.4132171
  39.3762612  29.4332790  18.1583118  38.9694881  28.6173701  17.8666615
  38.6478043  30.0491786  18.2373750  16.7562008   6.8931293  36.6322136
  17.2823763   6.5343404  37.3468041  16.3206720   6.1314321  36.2496376
  19.9943304   1.6731697  18.5624897  20.6268191   1.9043647  17.8822398
  19.1450489   1.9116938  18.1909275  65.2778196  14.2894506   4.9488840
  65.4366016  13.8769126   5.7979029  66.1244583  14.6609330   4.7010201
  37.8314114  40.3268480  57.4136877  37.2222900  41.0623884  57.3489952
  37.7191329  40.0007105  58.3065796  74.7152090  74.1255474  16.0663581
  74.5917797  73.3369875  16.5947235  74.5424509  73.8418198  15.1686466
   9.5429826  40.3383636  41.4896011   9.4057697  39.7629261  42.2421169
  10.4478788  40.1740408  41.2242842   7.4713457  46.5868902  55.2023125
   7.0548964  46.7452669  54.3551302   7.9851097  47.3773193  55.3681469
  15.2347004  18.6030972   3.9010003  16.1069143  18.2088006   3.8988501
  14.9367344  18.5204756   4.8068821  13.5667706  55.2930737  42.1300697
  14.1782057  54.5566368  42.1364260  12.7007473  54.8854208  42.1377182
  14.6538591   1.7572965  13.8957047  14.5953178   0.9509867  14.4082177
  14.4680059   1.4840996  12.9973423  54.5615673  22.4869561  24.5054817
  54.9959707  23.2230973  24.9363160  54.2097473  21.9622564  25.2246094
  70.3671360  49.8328495  30.8103418  69.6892977  49.9043608  30.1382923
  71.1578226  50.1709843  30.3899646  80.8415508  56.3424444   6.6715366
  80.2797604  56.7373896   7.3383564  81.7261219  56.6218996   6.9074488
  68.0523396  67.4259949  36.0263824  68.0350876  66.8835258  35.2379298
  68.8208151  67.9857492  35.9152222  72.7161980  50.9687567  15.6476331
  73.6483574  51.1190462  15.4903781  72.4305820  50.4372835  14.9045396
  32.8697085  68.4715462  55.9193850  32.8307581  68.6885738  54.9879265
  31.9982100  68.1319380  56.1228275   9.3082964  13.6315167  34.2770743
   9.3393147  12.7595174  33.8835168   9.6168917  14.2173719  33.5858631
  50.0392962   8.6097723  50.4237032  50.3405380   9.2236853  51.0934782
  49.4432735   8.0221355  50.8881092  29.9037385  77.5107479   8.1548756
  30.6393409  77.9495335   7.7275723  30.2894807  76.7316580   8.5554409
  62.1426630   4.3366048  32.4302006  63.0489922   4.3403378  32.1223211
  62.1694660   4.8138195  33.2595253   3.3772752  23.9288402  22.0507073
   3.8113412  23.2224512  21.5723419   3.6107507  24.7227001  21.5695548
  66.8834829  45.1431370  33.0551958  67.0443153  46.0866594  33.0662227
  67.0950794  44.8537111  33.9427161  20.3797150  43.3915329  53.8737583
  20.8759189  43.3101749  54.6882486  20.9418845  42.9921627  53.2099056
  63.0869198  28.2084155  29.6320105  62.6868534  27.4623203  29.1853261
  62.4575710  28.4453297  30.3132033  74.9213219  35.3913736  31.7571592
  74.7762775  35.6950879  30.8610845  74.8266792  34.4402432  31.7059565
  77.7026176  55.8644295  41.4623547  78.6519480  55.8899307  41.3425112
  77.5055885  54.9407578  41.6180563   3.5918772  77.2799063  42.3995304
   4.0686047  77.6860046  41.6756153   2.7456382  77.0380020  42.0232391
  74.1520977  11.2328339  27.1641469  73.4592009  11.5327060  26.5757561
  74.0355062  11.7555547  27.9574943   1.9590855  30.1604915  39.1175294
   1.6367926  29.9389100  39.9911785   2.8942257  29.9585986  39.1488838
   5.3426391  39.4592547  37.6276779   4.8153451  40.2556038  37.6911116
   6.2291420  39.7726345  37.4484062  72.1216345  25.0444126   7.7713561
  71.4145136  25.6149650   8.0724955  71.8411207  24.7527909   6.9038868
  64.3769026   4.9514377  10.9793913  64.9341965   4.3868035  10.4438138
  64.9901390   5.4544276  11.5152776  72.7288628  34.0644240  11.7268145
  73.5719156  34.4990087  11.8557584  72.8796339  33.1614566  12.0063686
  12.6680446  16.2593019  58.4489059  12.4522960  15.7573974  59.2348909
  13.5551119  16.5823376  58.6069965  79.3691397  22.6273108  27.2714162
  79.4944477  22.5600147  26.3248444  80.2533913  22.5760531  27.6343226
  67.8588629  16.7304242  16.6326594  68.6948967  17.1280992  16.3894820
  67.2698879  17.4732232  16.7652893   2.8674147  22.0552659  43.8019609
   3.6850640  21.5684819  43.9055204   3.1164357  22.9710507  43.9266825
  16.0979855  15.7454789   7.1667916  15.4943824  16.2733865   7.6894861
  16.6550553  15.3095984   7.8117055  73.4905434  65.4085732  20.0722551
  73.4096193  64.4697189  20.2402854  73.3903980  65.4916763  19.1239429
  66.4339256  43.0181217  22.7929926  66.1934614  43.5244465  23.5689068
  67.3857450  42.9330540  22.8480124  13.9712167  21.5381885   7.6464552
  13.4496176  22.3174620   7.4543709  14.8774588  21.8196559   7.5210267
  77.6441431  37.8255820  22.9053664  76.9798708  37.3901606  22.3711491
  77.4210548  37.5881743  23.8054204  37.0664576   0.6266521  24.6950102
  36.4938834   0.2645610  24.0187860  37.0152137  -0.0026823  25.4144144
  76.7027712  21.8290544  59.4253588  76.0095024  21.3779998  59.9071836
  76.9124174  22.5914240  59.9648714  -0.3467338  43.9155149  27.8678942
   0.3783067  43.6304808  27.3117471   0.0499280  44.5362234  28.4791303
  20.4042768  75.7892704  61.0178852  20.3683352  76.3607883  61.7849016
  21.0540128  76.1972094  60.4454708  52.7598333  38.6558700   9.0931088
  52.8923368  39.2052841   9.8656493  53.5872078  38.1860113   8.9885944
   3.6009535  34.2847610  16.3977313   4.0348408  33.5537386  15.9577525
   2.6664191  34.1154313  16.2785459  48.6234808  13.4587407  35.7791066
  48.3058500  14.3417883  35.9677100  48.2679653  13.2560551  34.9137974
  61.9439745  76.4848232  52.9072046  62.4594402  77.0160627  53.5140896
  61.0649538  76.4735317  53.2859278   2.0887975  23.3989501  24.7316027
   2.8598145  23.3526707  25.2969551   2.4390307  23.6073804  23.8655043
  76.9532681  18.7215352  50.7251644  77.4008417  17.8879881  50.8704519
  77.6153278  19.3855786  50.9173965  55.1588821  73.8627052  31.5804219
  54.2891836  74.1888666  31.8116641  55.4518700  74.4405842  30.8758354
  82.0345592  35.4440999  36.8711948  82.7853107  35.3145838  36.2916875
  81.3114548  35.6590438  36.2819934  70.6626081  42.0378542  60.0947905
  70.8142424  42.8472328  60.5827951  69.8626089  41.6751432  60.4751492
  67.4815750  48.7331009  21.3134623  66.8007660  48.2266378  21.7564368
  67.1062374  48.9421749  20.4580998   9.1247475  56.1449575  20.2814293
   9.1141754  56.2402296  21.2338161  10.0342751  55.9324551  20.0720620
  25.9473205   6.9240528  52.5654602  25.8687329   7.3147959  53.4357357
  25.6419325   7.6066685  51.9679594  42.1636868  33.3186769   4.6129376
  41.2475538  33.1070852   4.4335833  42.3065615  33.0217767   5.5116415
  37.0955086  25.7460594  24.1271424  37.5088072  26.3281560  23.4895062
  37.8279901  25.3345203  24.5857692  32.2097826  59.5910740  65.0002956
  32.9427886  59.4195461  65.5914927  32.5858736  59.5129871  64.1235447
  68.8054037  17.8076541  31.5673709  68.1310987  18.1407523  30.9752655
  68.8659668  18.4683824  32.2572994  80.9112072  32.2869658  15.6527674
  80.4128265  33.0730605  15.8761728  81.8232822  32.5271988  15.8159387
   5.6277454  19.7308147  26.4497709   5.4648918  20.2637720  25.6715250
   4.9793899  19.0284657  26.3990498  49.1050482  50.7824755  15.4821527
  49.4794893  49.9064255  15.3896105  48.9659786  51.0797215  14.5829654
  70.1957273  34.3937492  30.2497411  70.7241964  34.6340108  29.4886708
  70.1724529  35.1868391  30.7851815   7.1113276  68.0312157  64.9560499
   7.5671464  67.4821711  65.5940247   6.2055588  68.0553865  65.2646446
  79.5482874  27.4250150  24.1048598  80.0969124  26.9128346  24.6989250
  78.7223005  26.9428635  24.0660548  78.0185413  61.0406590  28.0234027
  78.1551361  60.2886534  27.4471521  77.3773336  61.5819502  27.5628757
  13.6171675  13.2415068  36.3963652  13.5403275  12.4595773  35.8496332
  14.4311178  13.1139982  36.8836594  50.2341557  68.0328465  32.2174621
  50.9405279  68.3088636  32.8014874  50.6312418  67.3624659  31.6614604
   4.2017508  42.3935986  26.7608547   4.6702811  43.0032539  27.3309684
   4.7971553  41.6503763  26.6641808  21.1937761  73.0592060  41.0955191
  21.7044401  73.8366413  41.3214445  21.8048859  72.5034523  40.6118679
  15.9241939  34.6657252  40.0935125  15.4791975  35.4320645  40.4553556
  16.7272270  34.5895410  40.6088400  60.9957743  26.7384195  55.4104376
  60.2681684  27.3253751  55.2047491  60.5818701  25.8897090  55.5672884
  57.3662043  22.2893381  39.1737199  57.8624010  23.0172801  39.5480466
  56.4558220  22.5843024  39.1944265  63.3842707  22.5246048  60.1714706
  63.8955879  21.7244339  60.0510120  62.5779200  22.3699284  59.6794271
  81.6080666  58.7161779  35.3540635  81.3491726  59.6349144  35.2824664
  82.4913883  58.7442064  35.7217455  74.4475603  34.8284054  26.8283796
  75.0406837  34.8659515  27.5787282  73.5718822  34.8304844  27.2149277
  74.6000528  31.2353969   7.7311122  75.5533886  31.1529422   7.7551049
  74.2931080  30.3797460   7.4313152   3.3222869   1.6572665  50.3243923
   2.9995689   2.5307402  50.5460405   2.5781232   1.2266086  49.9036932
  65.3856182  66.4264774  24.8883986  64.4663382  66.1620855  24.9238467
  65.5866861  66.7139101  25.7790089  72.1733141   7.0450068  27.4116468
  71.7267418   6.7390621  26.6222167  72.9434395   6.4812917  27.4848747
  77.6338243  22.6197243  12.7511835  78.3104992  22.7585196  12.0885515
  77.0842171  23.4017158  12.6997089  29.6993709  35.6800151   7.6606780
  29.0472078  35.1205683   8.0825001  30.1888418  36.0666656   8.3867300
  66.2432194   5.1048070  55.2716208  66.2889194   6.0138160  55.5680132
  65.4474115   4.7604316  55.6769896  72.1328259  17.0969594  23.7077093
  71.9016409  17.5796413  24.5013118  71.7239666  16.2389922  23.8215494
   2.8407285  17.0782733  62.3950815   3.1626296  16.8336976  61.5274477
   3.5761634  17.5350356  62.8034163  72.1212816  50.4514837  61.3658857
  72.4744940  50.8783340  62.1464443  72.0832920  49.5233631  61.5969086
  37.7943635  74.9317026  54.4455624  37.2497725  74.2720032  54.8750401
  38.2388353  75.3805208  55.1647568  59.3474817  28.5446048  20.0471878
  59.8113108  28.8529253  20.8256674  59.9388885  27.9024363  19.6546531
  75.5831289  21.6121769  39.7643566  75.0057364  20.9300089  40.1071310
  75.5973530  21.4613080  38.8192272  73.1621027  43.9004421  25.1845336
  73.3593607  44.8369074  25.1656842  72.5554609  43.7981701  25.9178519
  76.9477224  41.5805483  46.4709663  76.7608881  41.1957645  45.6146574
  76.7101002  42.5029182  46.3760757  19.2314124  47.3593330  63.5002279
  18.6237884  47.9653931  63.0763054  18.6881196  46.6126347  63.7522364
  59.2845964   1.3607641   1.9867846  59.1719437   0.7698430   1.2422352
  59.9781275   1.9611332   1.7132810  31.5256691  68.9087820  61.0854340
  31.3475466  68.9382076  60.1454163  30.8706260  69.4901514  61.4716482
   9.0027398  65.5147696  22.5107193   9.6856815  64.8923159  22.2609687
   8.3026659  65.3704214  21.8740940  49.5582771  24.8596859   8.4653527
  49.8122787  25.7347846   8.1722397  49.5679045  24.3282652   7.6692802
  74.2264414  31.0227728  50.8591080  74.5026016  31.7483258  51.4190578
  73.3400583  31.2566900  50.5837250  13.8819325  55.4567766  25.6929636
  14.4611061  55.9260178  25.0924635  13.4015632  56.1467409  26.1505914
  44.3340206  24.0945148  15.7162833  45.0669670  24.6981359  15.5951858
  44.5974112  23.3012891  15.2497518   1.0897067  68.1466198  44.9554205
   0.7633623  68.2836962  45.8447695   0.3182173  68.2508039  44.3984842
  62.8032780  26.3560152  15.9934616  62.9046917  27.1945262  16.4438450
  62.5185537  26.5913439  15.1104081  22.3145366  65.9856796  38.4653163
  21.4979243  65.4881763  38.4221697  22.0826745  66.7862606  38.9359999
   9.0642828  47.5875998  65.5038261   9.1877985  48.1025267  64.7064400
   8.7624109  46.7339611  65.1933241  71.9048882  10.8842027  66.2608147
  72.7541780  10.7465076  66.6803122  72.1194220  11.2141156  65.3882504
  14.2175674  19.5743227  45.8591700  14.2257619  18.6740899  46.1843586
  14.4451165  20.1064658  46.6215897  52.4383974  75.6792402  29.3034387
  52.1198940  76.5478706  29.0579295  52.6489830  75.2571154  28.4705544
  22.2567296  67.8262520  31.4666104  22.8024244  67.0425463  31.4014006
  21.6701126  67.6491356  32.2019625  26.0358238  34.8116708  49.6104002
  26.8502760  35.1863432  49.2749596  26.1872268  34.7121382  50.5502987
  67.6708221  37.0207715  43.0540514  68.1352806  36.5096593  42.3912764
  66.7602301  36.7345047  42.9825926  75.9511471  59.4788933  21.7275548
  75.8499908  60.4131794  21.9095039  76.5182590  59.1583252  22.4288774
  29.0858555  21.3645387  55.5416012  29.2509270  20.8133817  56.3065910
  29.1847682  22.2597957  55.8655787  21.4238238  16.1064267  55.2732944
  22.1854448  16.1567581  54.6956873  21.5792465  16.7814028  55.9339619
  35.8080459   8.6563230  32.6856494  36.0027838   7.7268678  32.8057408
  36.5772581   9.0060431  32.2359395  74.5777130  21.7991352   1.8751770
  73.7419033  21.7915010   2.3416471  74.9600172  22.6517916   2.0826557
   2.2476678   0.1087345  56.5228176   2.4147522   0.2056679  55.5853128
   2.6978451   0.8518894  56.9244337  14.9555266  15.8855522  36.7963982
  15.5162919  15.1159060  36.6993523  14.8069954  15.9563112  37.7393532
  10.5961192  39.2673397  10.6724906  10.5870640  38.3708096  10.3372538
  10.4476738  39.8132730   9.9003816  21.6365314  30.8076620  42.8431368
  21.5649295  31.4539886  42.1407366  22.0112848  31.2931395  43.5780525
   8.7906855  35.4671431  15.0451374   8.1464452  34.8246288  14.7478831
   9.2171907  35.7675934  14.2426062  75.3891850  51.4674520  10.4787779
  75.1672459  52.3513079  10.1859140  76.3460827  51.4551878  10.4994321
  11.5369129   1.6826187  24.2846727  10.6984460   2.0779848  24.5231915
  11.8598080   2.2226852  23.5633564  24.5647383   7.8965169  58.2962847
  24.7175527   7.5751513  59.1848803  23.9949322   7.2383940  57.8982592
  60.7330656  48.0140018  12.3388374  60.3629351  47.5282431  11.6017663
  60.1912165  48.8004017  12.4037111  53.7648821  46.5608263  13.3772123
  53.5796118  46.9097662  14.2490768  52.9323339  46.6294241  12.9098904
  11.0585046  76.3270140  10.0430095  11.6506767  77.0063257  10.3656578
  11.1493719  75.6114483  10.6722462  81.0196018  66.3671446  16.7609692
  81.8640709  66.4776278  17.1978879  80.4078102  66.8800831  17.2890139
  11.9982803  45.3159237  47.5196028  12.0349109  45.3367615  46.5633297
  12.9150748  45.2955770  47.7940226   2.8283834  40.3808308  12.5737000
   3.6072022  40.2975321  12.0234859   2.3873645  41.1652088  12.2473717
   2.5610071  75.0993729  58.6586714   3.0522859  74.6391344  57.9781866
   3.0261326  74.8946619  59.4698334   1.3036235  51.3056898  16.1841798
   1.9054556  51.2460518  15.4422402   0.6639431  50.6104755  16.0301781
  12.6885247  57.2169638  27.9563594  11.7724502  57.4107504  28.1550741
  13.0861723  58.0735826  27.8004217  72.5842094  51.7956686  44.6884632
  73.5211611  51.8773270  44.8664618  72.4518347  50.8617449  44.5257044
  12.9438365  13.9563692  64.6249104  12.9908597  13.0561054  64.9466944
  13.7108457  14.0491080  64.0598202  74.9660158  60.5390310  29.5114613
  75.3933477  59.7378874  29.2084885  75.5909395  60.9268618  30.1240706
  78.7854624  71.1663675  21.5790391  79.6583462  71.5031862  21.3768911
  78.8580894  70.2205706  21.4508700  60.5504417  63.2933044   2.4686915
  60.1292038  64.1109610   2.7337024  60.7736683  63.4264994   1.5474640
  79.1502571  72.3147488  13.2035041  79.0153170  73.2532024  13.3351398
  78.6307812  71.8992138  13.8917685  82.2110575  33.0593157  52.6980782
  81.5101849  32.4094439  52.6463270  82.9389135  32.6654124  52.2171450
  72.1883774  28.4193587   0.3134450  71.5128899  29.0255165   0.6176082
  72.8882790  28.4956813   0.9619434   8.0757177   9.4048095  18.6673605
   7.3638737   9.4319665  19.3067133   7.6933128   9.7660518  17.8676713
  66.8448210  51.7482328  45.4296207  67.4436283  51.3220835  44.8163843
  66.3846540  52.4002218  44.9010468  16.9717133  63.9631081  48.5628128
  16.4542377  63.3051491  49.0270805  17.3224318  63.4992361  47.8025150
  69.1951084  62.0338917  22.2496963  68.6894417  62.7138853  22.6948309
  68.5542011  61.3521051  22.0481014  82.7191448  40.6055784  35.1649523
  82.8285980  40.9197903  34.2674422  82.3217487  39.7400808  35.0689244
  45.3100824  54.2095518  41.2757969  45.3385258  53.3512735  41.6986227
  44.8374081  54.0578175  40.4573917  69.4096375  32.7825284  23.6831856
  69.2197418  31.8615603  23.5043359  70.1516199  32.9888606  23.1147456
  22.6265812  54.3920898   3.6400744  22.8284860  54.5345736   2.7153227
  23.4133697  54.6785402   4.1039076  81.0136032  45.2951717  42.1485758
  80.0738621  45.1809311  42.0068932  81.2623405  44.5604181  42.7093744
  56.7529631  32.9805255  15.2404237  57.2397757  33.8042188  15.2126312
  55.8717918  33.2323003  15.5167866  43.6477184  35.2799773  20.5965233
  43.5100460  34.3528366  20.4023910  42.8022099  35.5836320  20.9268761
  18.5505593  69.7780991  37.1905184  18.3221054  69.6135473  36.2756610
  18.4928012  70.7289171  37.2845197  74.5977974  35.4839563  23.9402628
  74.5801973  35.1568127  24.8396516  75.2935791  34.9816275  23.5162544
  23.4455228  30.0820112  28.0942202  23.6341500  29.3922019  28.7304688
  22.7032065  29.7472954  27.5910664  56.3912296   8.9562494  56.0689831
  56.4103413   8.1155056  55.6118011  57.1717548   9.4153619  55.7587814
  28.7499584  10.0597703  -0.1984495  28.6525454  10.0803888   0.7535558
  29.1359200  10.9077108  -0.4181380   4.3677905  20.0476718  38.7072301
   4.7847059  20.2049565  39.5543861   4.9160725  19.3830848  38.2901645
  66.4056349  34.4057322  50.5459356  67.2690248  34.3039942  50.9464741
  65.8005619  34.0211582  51.1801481  69.0414762  48.9653492  40.9574986
  69.4782209  49.4463158  40.2545357  69.6642494  48.9851809  41.6841269
  -0.0900714  45.5370092  13.0773818   0.0436242  46.0712528  13.8602877
   0.6731446  45.7199097  12.5294030  36.0475898  29.5439243  52.7321529
  36.5944552  28.7797427  52.5499535  36.5482712  30.0495958  53.3723450
  62.6535130  37.4375296  54.3662310  62.9044199  37.0336533  55.1969910
  63.2936621  38.1373739  54.2371559   4.3378931  76.3861704  36.1731052
   4.3616202  77.0612431  36.8512988   3.8906705  75.6474447  36.5860343
  11.2780225  57.0099545   8.5591900  11.8471658  57.6596737   8.9717048
  11.8672740  56.2965679   8.3140415  55.7057524  18.3234048  44.9249887
  55.2542400  17.8228033  45.6045246  55.6923866  17.7515841  44.1574764
  46.6815662  25.0505805  19.6960139  47.3159218  25.4072785  19.0742481
  45.9900093  25.7110405  19.7380733  14.4627714  49.6227694   4.7558630
  14.5675731  50.2975178   4.0850705  14.9347019  48.8654137   4.4095510
  70.4622221  53.1323624  64.3515396  69.9414444  52.3852348  64.0568876
  70.8698463  53.4696817  63.5538626   3.5800120  49.0675497  39.8180914
   3.6872050  48.2698488  40.3361797   3.9664933  49.7573042  40.3576279
  66.8495035  13.5539937  65.1406670  67.0579910  13.3661819  66.0558128
  66.2760305  14.3194866  65.1778984   9.3449271   7.1164644  26.4561653
  10.1627731   6.7656291  26.1036396   9.1577768   6.5680897  27.2180653
  42.2539186  52.4932098   4.0808675  42.0807981  51.7924786   3.4521905
  43.1501865  52.3336220   4.3766099   4.9083099  24.7491217  32.3984003
   4.9369198  25.6774402  32.1668077   4.2548847  24.6963000  33.0958796
  40.9644222  63.4141636  38.1296754  41.3596296  63.9513063  37.4430013
  40.1514149  63.0900669  37.7421117   1.0448701  19.2764008  54.2339230
   0.9687454  20.2302170  54.2598057   0.2648366  18.9866221  53.7608385
   9.4771582  11.3867354  43.5235548   8.6136752  11.3431406  43.9343166
  10.0761533  11.5789819  44.2449951  71.6643333  69.0960169  24.8904777
  72.1003437  69.9466705  24.9406362  71.6300631  68.8992691  23.9543438
  46.9267511   6.4422071  21.9969535  46.8006039   7.3872113  21.9115996
  47.2350979   6.1629009  21.1348963  27.0999908  53.8172865  38.0242729
  27.8005958  53.1752396  37.9095483  27.5105953  54.6583033  37.8234577
  32.0477796  26.2734509  27.9024410  32.0743036  27.2229433  27.7841520
  32.9003429  26.0550714  28.2788444  52.9739666  63.2492495  51.2436485
  53.0003405  62.6948118  50.4638195  53.8933277  63.4259272  51.4431238
   4.0587261  28.4864402  23.0168176   4.5518312  28.6176252  23.8266754
   4.4863430  29.0595913  22.3805213  73.5964298  48.9831829  40.9453773
  73.4490156  48.0543280  40.7672548  73.5817385  49.3977594  40.0827408
   6.0737652  54.7012520  46.0418463   6.9577885  55.0057793  46.2467718
   5.6225318  54.6902800  46.8859434  21.2673950  54.2109108  54.3046808
  21.6919827  53.5662460  54.8706961  21.4903307  53.9332628  53.4161758
  74.9223995  38.5935307  25.9752822  75.0200891  39.1879678  25.2314186
  75.7882881  38.1999040  26.0826445   1.7139161  31.1589956  30.7768369
   2.1103436  30.4415560  30.2825117   1.9289833  30.9683013  31.6898608
  64.5865440  25.7573128  66.6347551  64.0470600  26.5180492  66.8503284
  64.1550159  25.0251341  67.0751333  69.4302225  48.0864048  32.7629876
  68.6702919  48.6581278  32.8719425  69.8722219  48.4215689  31.9829035
   2.8840363  60.1902056  20.8192229   2.6724586  59.4575930  20.2406549
   2.8244096  60.9634447  20.2581692   3.1472978  49.1917276   1.8585399
   2.9221728  49.9697399   2.3686820   2.3041168  48.8417053   1.5708539
   9.8343134  65.6875134  38.4377837   9.2183924  65.6415081  39.1690540
  10.4841971  65.0112867  38.6291003  12.0720351  18.2561529  42.4008274
  12.0247519  17.3001230  42.4024773  12.8663909  18.4558165  41.9054842
  25.7374954  37.3007321  40.2193213  25.5998397  36.3780975  40.0047779
  25.0462413  37.7626586  39.7449541  57.7856684  74.3785477   9.5866746
  58.4914446  74.7805643   9.0802222  58.2192755  73.7016153  10.1062751
   8.5188448  51.6206694  27.4871826   7.6168060  51.3843298  27.2710776
   8.5403246  52.5748920  27.4148369   2.6303792  71.2570953  25.7437825
   2.0317021  71.9717455  25.9607863   2.4940075  70.6114960  26.4372063
  34.7649860  53.4494734  34.1964221  35.5155683  53.9647865  34.4919086
  34.6493578  53.6987591  33.2795167  15.8768797  58.8661242  13.3165312
  15.2481604  59.1246080  12.6426387  15.3480697  58.7514591  14.1061163
  36.8254781   3.0644858   8.2154524  37.3152089   3.7175983   8.7152928
  37.4611735   2.7145109   7.5912398  78.0376005  12.7620900  30.5990911
  77.4770975  12.2399199  31.1730337  78.7096214  13.1184530  31.1801434
  76.9675970  15.5545413  20.2086806  77.1621609  14.6173906  20.2199054
  76.2510061  15.6428802  19.5802522   3.0865243  34.0462685  36.8530226
   2.4905002  33.4932494  37.3581505   2.5933051  34.8521066  36.6994238
  47.8099537  37.3728657  17.4002016  48.6554956  37.7042580  17.0977700
  47.1647787  37.9308939  16.9659352  77.6887989  43.8614559  48.1400633
  77.7391768  42.9089928  48.0593395  76.8755674  44.0184784  48.6198807
  19.2236924   4.7536322  17.7015746  18.7097776   3.9674544  17.8860950
  19.1526926   5.2787524  18.4987199  11.2261152  40.4644251  35.2348638
  11.9550049  40.8132315  34.7217488  10.5613363  40.2390146  34.5841026
  65.7024050   5.9183758  21.0071683  66.2616062   6.3976473  20.3957558
  66.1870956   5.9274191  21.8325305  56.5296364  59.9525070  50.0922441
  56.2634039  59.0620947  50.3214025  56.1035824  60.5058479  50.7468605
  77.2228861  60.1495075  57.1945143  76.8035078  60.2988625  58.0418921
  77.5625515  59.2562914  57.2494984  65.2946186  51.4080811  12.3443961
  64.5945930  51.6531563  11.7393064  65.1943398  52.0090055  13.0826819
  75.0420904  38.8063836  10.7003605  74.3639231  39.3715167  11.0704184
  75.8150530  38.9755654  11.2390018   9.1729933  54.2224646  52.2586060
  10.0673854  54.2634583  52.5971556   8.7313461  53.5895538  52.8248262
   4.5234236  32.5418854  21.7264819   3.6947206  32.9361010  21.4543128
   4.8352456  33.1049609  22.4349618  16.9419241  60.4169035  36.4737725
  17.4107742  60.9055042  37.1502948  16.6144586  59.6383333  36.9241405
  35.1667929  44.6877098  18.2356095  34.9144197  43.7987232  18.4850955
  34.5208120  45.2492476  18.6641181   8.1146222  45.2743101  64.0134430
   7.3421168  45.1555872  64.5660448   7.7610534  45.4277945  63.1372786
  60.2560854  75.5095291  13.9816749  60.9352922  76.1372709  13.7349999
  60.3402376  75.4265261  14.9315500   0.8601129  58.2427502  17.1592724
   0.6374072  57.6998806  16.4030147   1.3401857  58.9835882  16.7892492
  71.8696404  54.9862194  27.9786515  71.0518789  54.5030212  27.8602529
  71.8146658  55.3357983  28.8680363  75.5475760  30.8810830  12.6814663
  75.9908295  30.6967044  13.5095751  74.6621037  31.1403632  12.9363024
   8.6136121  34.6836472  59.9522305   8.7029117  33.7476277  60.1314688
   7.6730216  34.8162317  59.8341513  76.5379524  38.6473536  39.9165320
  77.0296812  38.9676666  39.1603351  75.7278109  39.1571021  39.9088240
  26.2198305  14.6224010  60.2051353  26.9618821  14.0899205  60.4915857
  25.8576775  14.9835348  61.0142422  78.2204676  35.3718185  18.7325299
  78.1214285  36.3202143  18.8160145  78.5978127  35.0959611  19.5678413
  23.3279014  59.5322895  39.1604090  23.5906506  58.6278725  38.9894700
  24.0817237  59.9208975  39.6042204  75.0352907  48.2480145  65.9873867
  74.8962593  47.3343420  66.2365961  75.3591537  48.6671209  66.7846918
  79.2589903  31.6596150  36.8157053  79.8290157  32.2896171  37.2566104
  79.8493433  30.9637260  36.5268254  61.9597149  22.3229408  29.2622185
  62.4039316  22.4662805  28.4265423  61.0639524  22.0879436  29.0200925
  52.7003384  50.1991749  62.6156092  52.7073002  49.3352747  63.0277491
  53.1847239  50.0788021  61.7988396  13.3260250  29.4482160  22.7332211
  12.4813092  29.5730710  23.1657696  13.8459837  30.2063894  22.9997683
  71.1890841  62.3196888  35.0157690  70.4666281  62.4299574  34.3976068
  70.7625294  62.1283150  35.8510303  66.5786839  38.9682007  39.2514086
  67.5256968  38.9540577  39.1128492  66.2203598  39.2898703  38.4241462
  18.1373894  62.9721165  32.4916363  18.6228478  62.1496201  32.4279284
  17.7698576  62.9654741  33.3754396   7.2268237   6.1948860   0.0872999
   7.4499382   6.6225517   0.9140735   6.5446462   5.5650031   0.3199201
  66.0125923  38.3015370  45.8114195  65.9026766  38.6025429  44.9094534
  66.3518620  37.4104810  45.7268906  75.2381945  35.1053452   7.7863759
  74.3146420  34.8688936   7.8722101  75.2863264  36.0046577   8.1106526
  65.8375072  66.7876863  37.4696779  65.7835102  67.6932287  37.1642089
  66.6944027  66.4844131  37.1696997  61.8550301   6.6396165  65.1189756
  62.6660776   6.8812484  64.6717072  61.3586044   6.1471450  64.4653225
  68.1665039  30.8492279  60.5501032  67.4812222  30.5334353  61.1390829
  68.2888031  31.7664671  60.7949448  53.4444809  52.6285028  42.1505070
  54.1396379  53.2793617  42.0537043  52.6336622  53.1346416  42.0992279
  70.1311922  28.3204842  26.2597847  69.7737408  28.2216525  25.3773499
  71.0641289  28.1294227  26.1630774  79.3608189  46.3039827  49.2821264
  78.7554216  47.0345831  49.1558361  78.9518213  45.5715847  48.8211012
  79.3398762  16.9919813  21.2767482  79.2395353  17.8763330  20.9244895
  78.5411930  16.5362477  21.0109615  64.1762543  53.9937353  14.1291237
  65.1096630  53.8025284  14.0373337  64.0506124  54.1284895  15.0684249
  74.7368050  66.6357613   9.9928391  75.6534147  66.7003441   9.7247314
  74.2412472  66.7568588   9.1829050   8.3976048  68.4758854  57.8433323
   8.9614499  68.7221384  57.1100760   7.5689709  68.2255745  57.4347496
  14.5480692   6.3183475  22.9246426  14.6248126   5.3658223  22.8695178
  13.9274895   6.5490419  22.2333455  27.5953865  68.3046770  25.5107665
  28.2811618  67.6489449  25.3844357  27.1384859  68.3383846  24.6703291
  70.7618904   4.4519597  23.2860231  71.2536240   4.1120368  24.0336061
  70.0888824   3.7914354  23.1216979   2.6116845  35.4546642  27.4152756
   2.4175960  36.3714767  27.6102495   3.4859827  35.4724693  27.0260239
  12.7110982  35.0663018  27.1685028  12.8502321  34.1998053  27.5506783
  13.4911001  35.5641484  27.4134064  67.4309826  20.6619382  44.7602367
  67.1529865  20.9381604  43.8869381  67.7026749  19.7509789  44.6481371
  13.3425117  41.4942551  33.9298153  13.5879672  40.7511854  33.3786106
  13.7389052  42.2523117  33.5003304  13.3696735  65.3663874  57.2296906
  14.2738712  65.6225920  57.4113941  12.9553449  66.1651945  56.9034004
   1.9980595  55.3257561   7.6941657   1.8452498  54.6178865   8.3201039
   1.3355368  55.9824371   7.9087955   8.8814092  51.5672970  47.7359581
   8.2299745  52.1571875  47.3566246   9.6910584  52.0778227  47.7438211
  65.2318954  30.7491040  39.9774885  64.8988008  30.6970692  39.0816259
  65.4748631  29.8492432  40.1953268  76.7584515  14.8469341  13.1239796
  77.3518229  15.1498866  12.4366915  77.1592236  15.1519060  13.9379871
   9.7980589  75.0352478  34.9941921   8.9679533  75.0333071  34.5175862
   9.5749432  74.7068167  35.8651590  38.0515799  77.6286337  17.6398063
  37.5441441  77.3333467  18.3958137  37.3958382  77.8040086  16.9649160
  81.8504810  38.8985157  28.5724497  82.4997807  38.7689400  27.8811789
  81.6126060  39.8233962  28.5073066  51.9456482  66.8536663  48.8303852
  52.1062183  66.1187887  48.2384348  51.9771433  66.4674807  49.7056580
  76.7912912  59.6178055  25.9829974  75.8923388  59.8996496  25.8136511
  77.2326756  59.7045279  25.1380777  19.0422320  12.0929337  51.9308901
  19.2072392  11.5742218  51.1435270  19.3863153  12.9613924  51.7220402
  72.8151560  66.6434431  22.5746250  72.7726555  65.9608316  23.2443047
  73.0484009  66.1772108  21.7718458   9.0918565  37.2338009   6.2372798
   8.1925398  36.9070148   6.2631905   9.0027970  38.1640077   6.0298753
   6.0928929  65.2381611  21.4878654   6.1510479  65.5616570  20.5888677
   5.9862339  64.2914391  21.3953161  53.7507629  23.8434339  63.6024237
  54.2064190  23.0662107  63.2791042  53.2284975  24.1419578  62.8578758
  33.3949900  32.3852062  23.8253427  34.0292549  33.0941463  23.9318466
  33.1516862  32.4184823  22.9001784  81.5037632  36.4285851  14.8136747
  81.4619637  36.0520625  15.6927156  80.8794498  35.9135652  14.3025792
  67.3608780  52.3343372  30.2645326  67.5727034  53.1927490  30.6312585
  67.7078152  51.7095852  30.9013629  29.6269464  17.0962858  43.7468576
  29.1620183  16.8266678  44.5389271  30.5031729  17.3317099  44.0518761
  27.1937442  39.5351577  22.4315572  26.5526652  39.9117565  21.8287134
  27.9653192  40.0942993  22.3406458  73.9573193  54.3450403  67.3098612
  74.0153837  54.8440170  68.1246519  73.7132883  54.9930859  66.6490126
  55.5175018  58.4585905  34.7133684  54.6752453  58.7341166  34.3515325
  55.3892994  58.4800243  35.6617022  71.4271402  40.5340242  46.8277264
  72.1339560  41.1470890  47.0297241  71.4836502  40.4069519  45.8806849
  36.4438868   6.2646300  29.8843884  37.0593047   6.1708218  29.1572762
  35.7692528   6.8569160  29.5522761  54.1575098  13.9600968  29.3379855
  54.0236187  13.6993182  30.2491927  54.1512871  13.1367481  28.8498354
   0.1539032  64.9735069  31.9308114   0.1577884  64.8100948  32.8739500
   0.9776787  64.5985079  31.6193604  31.6993403  30.4997897  25.6140995
  32.2048092  30.8422542  24.8769069  31.0484147  29.9248290  25.2116752
   4.9916786  59.1530704  30.5665541   4.1317990  58.8725328  30.2532864
   4.8860243  60.0859833  30.7529521  65.4998636   3.4760806  27.3071933
  66.0251141   3.4703094  28.1073880  65.4336023   2.5543916  27.0575333
   7.1434975  77.9185963  17.3048413   6.6016924  77.6454353  18.0451536
   7.8995383  77.3321724  17.3320973  81.4366150  23.9921927   2.6124722
  81.9577122  24.0643740   3.4121454  82.0825100  23.9777637   1.9061877
   4.6294019  58.1264973  61.8735695   5.3525555  58.7522459  61.9150496
   4.5822662  57.7561617  62.7549648  33.5145020  74.0777445  26.5049100
  34.3309808  73.5794783  26.4684701  33.7888956  74.9923611  26.4384174
   4.3403193  42.9543972  19.3892944   4.0443131  43.7551785  18.9564478
   4.6909449  42.4147177  18.6807466  40.0013447  73.2975388  53.2465553
  39.7639632  74.0320683  52.6805639  39.8107076  73.6063147  54.1322994
  41.8401814  14.1913128  46.6598654  41.3237667  13.5898280  47.1963072
  42.2846317  14.7553420  47.2927666  51.8630171  11.2323272  34.0830803
  51.2443542  11.3412917  33.3608508  51.6042280  11.8961096  34.7223401
   8.3674484  50.3878164  22.7995634   7.9734075  50.7259464  23.6036968
   8.6602747  49.5058155  23.0288219  76.7164373  14.7745943   4.0519056
  76.6269922  13.9170539   3.6361459  75.8226299  15.0186110   4.2923111
   5.7642180  46.8312645  18.3049643   5.3662717  46.6157579  19.1484261
   5.0307703  47.1162653  17.7599323  21.3847733  50.9383345   9.3527400
  20.7997417  51.2146711  10.0581515  20.9803700  51.2839174   8.5569644
   4.2836729  28.5248566  13.7070930   4.7256216  29.3637633  13.8380384
   3.9929107  28.5470557  12.7953935  50.8838654  18.9928365  25.5468392
  50.7339907  19.0114129  24.6016264  51.2305832  18.1170535  25.7171988
  62.5214958   5.0703943  13.1042743  62.9945183   5.0707936  12.2721195
  62.9241514   4.3632621  13.6083198  31.0735750   4.4226605   1.7733796
  30.8710957   3.9624333   2.5878882  31.4108324   3.7419015   1.1910942
  47.2477055   3.9900625   4.7900435  48.1649733   3.7217107   4.8433423
  46.8990564   3.5042101   4.0426320  30.1232958  53.7106419  23.2715082
  30.2009320  53.6639547  22.3186040  30.6896973  54.4403172  23.5224962
  45.5519581  20.1311612  33.6326313  45.0896168  19.3420446  33.3501983
  45.7982349  20.5690145  32.8178525  80.1850891  28.7888861  53.5480547
  79.4204950  28.7691307  54.1235828  80.9249401  28.6029506  54.1262245
  35.4506755  22.2060704  60.6326580  36.2952590  21.9259906  60.9854555
  34.8265982  21.5605140  60.9643412  80.2825165  70.7315540  55.3030300
  80.9204006  71.4433575  55.2513742  79.8543215  70.8546829  56.1502123
  44.0274620  13.0136263  13.6054564  44.2989302  12.8697586  14.5120096
  44.0871382  12.1497285  13.1975937  28.5994339  75.2598429   7.0256513
  27.7307534  75.5870771   6.7921114  29.1891885  75.9895802   6.8361586
  29.5097089  13.7682784  62.6372814  30.2743340  13.2120323  62.4883842
  29.7527456  14.6148503  62.2624731  56.0554171  14.3796885  19.7331846
  56.0253811  14.9695516  18.9799321  56.3757896  13.5513735  19.3761289
  46.9795656  76.2474632  40.5628777  47.0357609  76.8389654  39.8124146
  47.6915503  75.6219244  40.4286528  58.2658148  24.2184138  41.1714602
  58.4444952  23.4444404  41.7055702  57.4538374  24.5754552  41.5312481
  56.2887621  64.4178343  33.2724166  56.3879967  65.3228521  33.5679293
  55.9101534  64.4920635  32.3964167  19.1646385   1.5686941  57.0001268
  19.5664239   0.8565388  56.5024948  18.7126863   2.0959559  56.3413668
  55.3946304  28.7642193  29.0947175  55.2625704  29.0351963  30.0032115
  55.9892988  28.0163336  29.1518760   3.9632124  27.1072149   9.0424371
   3.4794992  26.7528224   8.2963407   3.5794199  26.6734958   9.8045546
   9.0375626   9.7427595  54.4184637   9.8556399   9.4945252  53.9879274
   9.2650986  10.5130053  54.9392176  54.6469307  19.3458891   1.3214567
  54.8140669  18.4179306   1.1565617  53.8722658  19.5467389   0.7963024
  75.2333355  46.9046116  17.7201557  74.2830944  46.8436480  17.6223898
  75.5583620  46.0491467  17.4394941  78.1308746  17.3746407  24.9594259
  77.8071499  16.4759839  25.0214553  79.0838766  17.2857094  24.9486756
  66.2104034  14.4250584  30.6893945  66.2164640  14.7594345  29.7925162
  65.7611275  13.5821021  30.6277061   5.7737333  13.1756079  40.5939150
   5.9392828  13.6233997  41.4235592   6.3488144  12.4107289  40.6156588
   1.8809049   5.3731161  29.6172047   1.6103882   6.2894690  29.6750855
   1.6612789   5.0040585  30.4726553  79.6084023   8.1256056  50.0716352
  80.1196766   7.3369676  50.2529764  79.3422985   8.4422863  50.9348488
  75.8580780  27.4914193  24.6992397  75.0361824  27.8773832  24.3963337
  75.6917667  26.5488052  24.7062826  62.5038671   7.3028231  37.7627468
  61.7664576   7.7003729  37.2996974  62.3186302   7.4607921  38.6884689
  73.7038660  56.6013861  23.2769728  74.1719627  57.1915054  23.8676286
  72.9145288  57.0842457  23.0319619   2.3848657  38.5488510   9.0023327
   1.5008128  38.2923889   8.7398261   2.2516607  39.2568707   9.6325660
  11.1193967   9.4297111  59.8217964  11.6922450   9.3844110  59.0562773
  10.6648958  10.2672827  59.7316074  60.3319740  40.3813648  10.5770671
  61.2328625  40.1189232  10.7661557  59.9185944  40.4556322  11.4372015
  32.0956731  12.7240312  36.5667295  31.4141750  12.2899389  37.0799136
  32.8800464  12.1957529  36.7147589  35.4915953   2.0575251   5.5735999
  35.1523137   2.6564983   4.9085048  35.9705400   2.6209429   6.1813867
  80.8402634  15.9228349  23.6019826  81.2673092  16.5235817  24.2126942
  80.6208611  16.4664257  22.8452754  82.4247932  28.4273720  63.6373615
  81.6632843  28.0586624  64.0850067  82.9595566  27.6671147  63.4087324
  38.0781150   6.5361309  27.7309871  37.9219198   7.4280280  28.0413961
  38.8560700   6.2489432  28.2090473  69.5536613  44.8303699  59.0687227
  70.5085230  44.8891449  59.1005135  69.2953157  44.6391296  59.9703407
  54.9746370  30.7942843  25.2439809  54.2009592  30.8096290  24.6805835
  55.1639509  31.7166638  25.4160523  46.9900846  32.8958607  21.0640407
  47.2441053  33.8152838  21.1438394  47.4039936  32.4671388  21.8131137
  81.8169308  19.2196405  12.5797701  81.8505669  20.1758313  12.6080477
  82.4997330  18.9743209  11.9553983  79.6790409  38.8089013  26.5013456
  80.0291443  39.6472120  26.1998558  80.1867485  38.6059451  27.2870111
  69.3818712  24.6501923  17.2069442  70.3162766  24.5753574  17.0132411
  69.3153143  25.4198766  17.7720881  62.9052305  32.0064259  15.1724803
  63.3482361  32.6919627  15.6724966  63.1972694  32.1408772  14.2708898
  64.1464090  22.8946018  24.2851162  63.9477396  22.7862215  23.3550525
  65.0426006  22.5713754  24.3778467  80.3262997  51.6610575  47.5428677
  80.6412411  51.1408043  48.2820463  80.6311703  51.1870337  46.7691851
  64.4561720  32.8173375  33.2876229  64.4882774  32.0439887  32.7244759
  63.6184788  32.7458000  33.7452102  52.5992107  28.5975385  22.5809336
  52.0210505  28.0672359  22.0325375  53.0843830  27.9596519  23.1043291
  38.9657211   1.8779334   6.7161679  38.7545514   1.5624222   5.8374804
  39.7952461   1.4513132   6.9309139  64.5304489  13.9700532  33.2390881
  65.0379324  13.8465047  34.0412283  65.1595783  14.3222558  32.6094985
  58.7885618  14.0900111  10.8178771  59.2805958  13.9620745  10.0068510
  58.1389093  14.7586846  10.6009436  17.1478474   1.1117267  20.4549193
  16.2436366   1.1488447  20.1430583  17.0905960   0.6732698  21.3038659
  17.3767614  68.0686617  38.8080907  17.7881837  68.4191704  38.0180836
  18.0786932  67.5938988  39.2532039  35.1157904  42.7654982  60.3254986
  35.0274229  42.8333139  59.3747997  34.6124125  41.9851875  60.5577803
  58.7214327  20.6444430  24.1473842  57.7999306  20.5631042  24.3932533
  59.2010546  20.2844191  24.8934245   4.8050389  24.8225427  17.2721100
   5.0916910  25.0959802  16.4007342   3.8584447  24.7080874  17.1878994
  21.8327808  11.9490170   3.5997471  21.3618183  12.7349126   3.3226311
  21.5937853  11.2857699   2.9522786   7.2099960  29.3870306  26.3364959
   7.6783144  29.4261909  27.1703887   7.3366636  28.4882212  26.0326385
   1.6101044  56.0013723  25.5563140   1.6092564  55.1016045  25.8828807
   1.5298332  56.5415668  26.3424325  52.6933765   4.1200396  35.2424645
  52.6702833   4.1528749  36.1988211  52.6492596   5.0366426  34.9702048
  71.1046553   3.3175853  19.9344790  70.2084875   2.9812664  19.9314368
  71.3739634   3.2899544  19.0163612  72.2028446  39.5244265  24.0610981
  72.4686956  38.6911583  24.4499683  71.6503811  39.9340057  24.7268748
  25.4186797  23.7267971  67.1832561  25.3046656  23.2037997  66.3897181
  26.1969543  23.3595681  67.6023769  72.4996185   7.0352209  51.3428593
  71.8756437   7.3235148  52.0090246  72.7881718   6.1730087  51.6421223
  34.7977877   2.4419792  23.3280611  35.6325364   2.2059867  23.7326980
  34.8791122   3.3767718  23.1388998  74.9337435  38.8028860  18.6812878
  75.8712578  38.6856961  18.8347888  74.7729445  38.3727384  17.8414381
  23.1051034  66.4250672  67.5305325  22.3208111  66.9694436  67.5996231
  23.5717743  66.7727173  66.7705393  69.7760057  24.9739623  12.7537465
  69.7513437  25.0322700  13.7088501  70.4174471  25.6336784  12.4899971
  79.0380144  66.2644863  54.6954489  78.6254263  66.0921907  55.5418015
  79.9218702  66.5588760  54.9153709  55.3651857   6.6444141   8.6643320
  55.6094456   7.3446310   9.2695308  54.9343824   5.9909898   9.2154002
  64.5673323  19.2880237  23.2966042  64.9624872  18.4614277  23.0194354
  63.8511992  19.0286350  23.8763475  71.7985535  14.4228053  12.7016139
  71.7090082  13.4750652  12.8016293  71.2991810  14.7889233  13.4315562
  38.6976337  18.9703178  33.5414720  38.2508254  18.7812495  32.7163386
  39.6006536  18.6887288  33.3948588  12.1206713  53.5173893  51.9108629
  11.9632745  53.0683517  51.0803080  12.3784041  52.8208065  52.5146675
  36.3142228  74.1463566  30.3332639  36.7002249  74.5907354  31.0880899
  36.3883114  74.7792959  29.6190286  11.0580194  61.2285042  18.2260334
  10.8168507  61.2731695  17.3007917  11.1627555  60.2933455  18.4013712
  22.4764419  33.9149213  58.5231876  22.1334505  34.7266102  58.1493521
  22.1472812  33.2269669  57.9447365  23.6777624  77.6116073  57.6047421
  23.3290228  77.3183730  56.7629433  24.0997204  78.4485906  57.4107218
  80.9433365  11.8676996  20.4824734  81.3725185  12.5919580  20.9379721
  80.1647472  12.2606432  20.0879765  13.9777601  40.9187698  15.6980908
  14.2608488  41.2353802  14.8402727  13.0527282  41.1595249  15.7489371
  43.7981033  24.4263101  65.3007030  43.6034966  24.4553399  66.2374640
  43.1352377  23.8396645  64.9364376  30.3971219  35.5721283  57.1008015
  30.9001470  35.9020925  57.8453302  29.5684433  35.2814078  57.4815941
  61.3158846  76.7841244  41.6883564  61.7642736  76.3536930  40.9604120
  60.5726910  76.2131882  41.8831158  76.4912605   0.9372219  33.2849979
  77.2849178   0.4756832  33.5557866  76.4388084   0.7897201  32.3406863
  56.7688513   9.2577684  16.2163830  56.1371803   8.7801236  15.6787169
  57.1717167   8.5858732  16.7663729  45.9891319  56.1584616  21.6175580
  45.2206707  56.7255211  21.6819453  45.8863115  55.7101440  20.7781100
   4.0883479  74.0673399  19.6212113   4.9561965  74.3544006  19.3371952
   3.7083098  74.8368979  20.0449824  14.3343437  49.3661118  25.7987332
  13.6985350  48.6612272  25.9217000  14.1774750  49.9608040  26.5321946
  80.2479744  73.1444836  43.3130503  80.5902100  72.9290867  42.4454594
  81.0249329  73.3515072  43.8323879  78.8571024  29.2380142  39.2603612
  78.0550194  29.7007251  39.0178967  78.8378668  28.4357715  38.7385654
  76.9064999  18.1980777   6.3990569  76.5063429  17.5123513   6.9337410
  76.1810398  18.5576987   5.8885556  66.8802404  20.6419897  39.1843724
  66.5220165  21.2310743  39.8483658  67.4592781  20.0558043  39.6715450
  51.8471766   7.8585130  19.4109344  51.6971254   7.2195977  20.1077151
  52.6762104   8.2765263  19.6437383  61.4700603  21.6704702  58.1008768
  60.7563639  21.1424708  57.7429867  61.3321829  22.5422049  57.7303410
  15.6999588  22.4446034  18.4696043  16.2092257  22.8505254  19.1711080
  16.2205565  22.5914383  17.6798892  26.4986467   6.8317080  22.0888615
  25.7739186   6.9814819  22.6959610  26.3043690   5.9843057  21.6883636
  18.2914793  51.4447641  66.4990091  18.8529444  50.9066868  65.9409237
  17.6558781  51.8319416  65.8970642  66.4207602  31.8635559  35.8832145
  65.7773113  32.3101211  35.3329563  66.9819498  32.5653052  36.2131405
  11.0295105  14.0896809  20.7569957  10.4547286  14.7836423  21.0799146
  10.5809104  13.7475836  19.9837172  76.3961124  42.3129606  60.8354521
  75.5990076  42.6881647  60.4611731  76.1892223  41.3867378  60.9600925
  53.4395838  17.9510558  23.7665677  52.9369497  18.6831546  23.4093237
  53.3413887  17.2539854  23.1179690  54.8697567  64.9051237  11.2325370
  54.6853256  64.4346142  12.0454550  54.7040653  64.2636728  10.5416548
  51.7803955  50.8128595  14.0642750  52.5902557  51.3231039  14.0607309
  51.8592644  50.2436781  14.8298120   8.5608757   5.4594076  28.4156084
   9.2361081   4.8227102  28.6499381   7.7983862   4.9272260  28.1883979
   4.8019943  70.6993914   2.9490435   4.2090833  71.3296652   3.3582401
   5.6133574  71.1882496   2.8114304  78.3322954  40.4119349  22.0385432
  78.0277205  39.5436502  22.3022604  78.8928986  40.2489424  21.2800002
  25.5016279  64.6048021  51.4765120  24.8287344  63.9542198  51.6770029
  25.2233720  64.9887466  50.6450129   1.1539374  14.5486641  11.3525915
   0.6946603  14.5133424  10.5135155   2.0071679  14.1526115  11.1754692
  60.9553766  67.7265549  34.1305447  60.9452486  68.5069370  33.5763478
  61.7933893  67.7706432  34.5909953  81.7101097  40.0825691  54.2043781
  82.3981667  40.6347990  54.5756578  82.0805073  39.1999841  54.2131948
  24.4977030   8.8162504  67.7248850  24.3850979   8.3248841  66.9111827
  25.3165516   9.2967736  67.6031498  69.6953821   9.1555071  27.6951361
  69.3748188   8.3644712  27.2618556  70.3929949   9.4758284  27.1233273
  32.5713325  32.8695464  64.1770267  33.2742381  32.6256299  63.5748148
  31.8052006  32.3938012  63.8561869  60.3953362  16.0403204  14.9308276
  60.1145029  15.4282844  14.2505515  60.8007908  16.7624104  14.4508040
  37.3434162   0.7704931  49.4237757  37.8159213   0.7669786  48.5913324
  36.4669371   0.4554065  49.2030096  19.0650463  17.3328876  39.2432976
  20.0068593  17.5029099  39.2256284  18.7573445  17.5988925  38.3768153
  65.7157469  11.3787007  24.7854280  65.7082415  10.5264580  24.3497014
  65.3582430  11.2055969  25.6563210  57.4840879  30.4820728  11.6720283
  57.6376057  31.4260006  11.6312230  57.4398804  30.2067971  10.7563317
  27.9249287  24.5329309   1.9758086  28.4851122  24.0021658   1.4094931
  27.0406485  24.3928862   1.6371837  77.0464087  21.6899419  55.1425505
  77.7938986  21.7793393  55.7337332  77.1483326  22.4075699  54.5173645
   0.4074061  66.1652756  21.2456465   0.7293498  66.9526768  21.6844916
   0.7923037  65.4413939  21.7396903  33.5744786   4.9678949  24.7598624
  32.9145622   5.6595004  24.7106409  33.8815498   4.9939024  25.6660986
  61.2724829  40.2672815   6.2029254  62.0661211  39.7959375   5.9495461
  61.5663052  40.8919668   6.8659967  36.7165685  19.9118018  12.0056641
  36.2222767  19.1761911  11.6440201  36.4956379  19.9140394  12.9370165
  61.1037779  67.1167183  45.3133917  61.4278078  67.8517151  45.8339787
  60.4769945  66.6752052  45.8864927  70.7308817  10.2703750   3.6274791
  71.3280964   9.7773719   4.1900763  70.1403666  10.7144809   4.2359954
  79.3058968  32.6175690  45.3110409  79.1044855  31.6826010  45.3497934
  78.9193535  32.9790998  46.1086082  36.9575310  72.0642710  63.0385685
  37.8393269  72.4048901  62.8880930  37.0941973  71.2550211  63.5311794
  73.6018515  55.0684500  16.1122787  74.0551519  55.3861713  16.8931770
  72.9736471  55.7594395  15.9022152  77.3133802  37.0191884   6.2315893
  76.5034723  37.2373223   6.6927826  77.0621014  36.3261890   5.6209821
   2.6786298  72.0141268  20.6804991   3.3040047  72.6004124  20.2545762
   2.3366433  71.4716291  19.9698865  45.4656649  23.1634092   6.5394741
  44.7371101  23.1630468   5.9186327  45.9407759  23.9726543   6.3507384
  37.2380805  32.4396968  22.8971958  37.7739763  32.6775813  23.6538053
  36.4495873  32.9753566  22.9842472  80.0295448  20.4474497  44.4647551
  80.7878971  20.4202652  45.0481892  79.5848942  19.6124840  44.6108580
  10.2224326   6.1195570  37.2394109  10.3563917   6.2724036  38.1747842
   9.2796534   5.9787816  37.1523333  37.2496510  13.8871908  15.2605629
  37.8786039  14.4250154  14.7795296  37.7557707  13.1281447  15.5502582
   2.0926976  38.9163470  42.5409698   1.6647895  39.2527437  43.3283472
   2.7221668  39.5964718  42.3013163  76.7736149   7.6523018  18.3120120
  76.0908842   7.0184666  18.5319293  77.0361900   7.4219656  17.4208140
  56.6958952  15.3228235  29.7567153  55.9192705  15.6034040  29.2726111
  56.6110373  15.7454383  30.6113672   7.7360052  37.9676604  18.0896986
   7.0958328  38.6462188  18.3041024   7.2144043  37.1727753  17.9786968
  18.7988436  10.4219127  67.7951622  19.7299862  10.4591084  67.5764751
  18.3572793  10.3415668  66.9497013  48.1182814  76.7733049   4.2288926
  47.8095341  77.6538563   4.4422927  48.7572956  76.9066668   3.5288149
   0.2945898  26.6085839  19.4215715   0.9554138  27.2974586  19.4922447
   0.0907505  26.3783240  20.3280282  69.7438240  34.1622305  11.5840554
  69.4664717  33.8861275  12.4575984  70.6988335  34.1998720  11.6367209
  22.5953722  24.9247742  27.6824594  23.1859231  24.3139410  28.1233311
  21.7506766  24.4746900  27.6703238  75.7571220  58.3087730  63.4559107
  76.2173319  57.7133799  62.8643513  76.3879490  59.0069532  63.6315107
  53.6133671  47.0663404  22.6510024  54.5281696  46.7922640  22.5857878
  53.1135035  46.3036156  22.3601198  48.1293154  31.7914152  60.5430555
  48.7262344  32.5328350  60.6441259  48.4631538  31.3172317  59.7815228
   5.2696860  42.3406458  16.6549158   5.6515253  42.1155024  15.8065403
   4.9172741  43.2221651  16.5325975  60.9297895  32.4067330  34.5885086
  61.6681147  32.7839422  35.0668645  60.3959179  31.9878244  35.2635837
  11.0376453  30.0641394  48.8506889  11.5759134  30.4277992  49.5537186
  11.0489225  29.1194630  49.0046120  64.8333931  25.2608991  45.5230618
  65.6357527  24.7926378  45.2924490  65.1104069  25.9035134  46.1761665
  67.9032660  43.7491083  30.9337068  67.9309702  44.4478607  30.2800918
  67.8784752  44.2076111  31.7735815  26.8885279  66.1099720  57.2279930
  26.4739823  65.7830143  58.0264187  27.8231192  65.9519196  57.3613739
  76.1422300  13.3165455   7.9187638  75.3668785  12.7928793   7.7166843
  75.7945538  14.1187894   8.3083260  64.8064995  50.5289555  63.6164093
  65.5803347  50.0276232  63.3593607  64.1040754  49.8801088  63.6591578
  43.8111544  14.6837604  64.5399237  43.3570528  14.6144009  63.7001514
  43.8426399  13.7858462  64.8700619  20.6465149  33.3156395  20.3623867
  21.0437083  33.3407712  19.4918466  20.9951019  34.0882707  20.8070922
   7.0672107  70.6274986  40.1853657   6.9358224  71.4504957  40.6561613
   7.9675597  70.6764412  39.8641062   9.1530907   4.1491652  54.9910831
   9.9362963   3.6121064  54.8711348   9.4208091   5.0271219  54.7195148
  71.1134863  42.6550388  10.4586720  71.9987965  42.9400635  10.6849921
  71.0466433  41.7712593  10.8201909  78.1158686   4.9696189  65.8439589
  77.4225569   4.4812584  66.2878704  78.7999678   5.0696152  66.5059519
  32.8780866  25.5321312  14.5718431  32.5187540  25.9982729  15.3267086
  33.3972049  24.8237991  14.9526513  71.9783115  10.9233332  17.6577199
  72.6928949  11.1320496  18.2594204  71.8228436   9.9875844  17.7859235
  16.7205203  34.4449258   0.9832088  17.1921313  35.2364874   1.2425269
  17.3434567  33.9621067   0.4400096  41.7084551  18.1023073  21.8736744
  41.5540648  17.4983001  21.1473346  42.5388241  17.8139639  22.2525883
  74.8914719  34.0015769  36.1586404  74.4900942  34.6206379  35.5488133
  75.8329439  34.1061354  36.0210657   6.7594981  62.3031044  59.8864841
   5.8773905  62.4737883  59.5563555   6.8713391  61.3570738  59.7929907
   0.7466853  44.0331411   4.1707814   1.0406666  43.9474916   3.2638791
   0.0582739  43.3744431   4.2626289  15.3016818  30.5853558  32.5661325
  15.3944719  29.8487115  33.1702662  14.7572255  31.2152767  33.0383587
  47.5404835  45.7480526  15.7023919  47.4138021  45.0046873  16.2919629
  48.4360218  45.6478357  15.3795969  68.1671524  30.4246807  22.6160765
  67.9377460  30.2863646  21.6971231  68.5075951  29.5789886  22.9078579
  53.5788918  12.2149825  20.3809500  52.8490067  12.3214042  20.9910107
  53.6239624  13.0491018  19.9135697  69.9990845  11.8689585  32.5351667
  69.1963196  11.5759254  32.1039701  70.5459023  12.2010279  31.8231630
  16.5797448  15.3216827  13.0356991  15.7007205  15.2329338  12.6673639
  16.4824903  15.0637865  13.9523578  11.3521326  64.8784542   9.9622351
  11.0227466  65.7143497   9.6320593  11.8647158  65.1118755  10.7361889
  13.5294592  37.2657275  18.0651057  13.4175158  38.1516600  18.4098148
  12.6461720  36.9911575  17.8188407  40.3218031  26.0622001  20.4372406
  39.9113441  26.0858774  19.5728374  40.8922291  25.2939987  20.4105592
  40.5976248  69.4401693  32.0490384  39.8221111  69.4492912  31.4880300
  40.2606153  69.2308521  32.9201555  63.2112741  11.3565350  34.1621566
  64.0085745  10.8876657  33.9157605  63.3907318  12.2692704  33.9364576
  71.5924215  20.6494665  32.8236604  71.7968845  21.4586306  32.3549604
  70.6533480  20.7057500  33.0003071  19.0356539  65.8072389   1.4797693
  19.1206502  65.9103383   0.5319410  19.9367045  65.8102239   1.8027740
  63.1109190   9.9646646  63.5514164  62.2479773  10.3098214  63.7803936
  62.9289246   9.2511106  62.9399014  74.3990231  29.1412544   2.3845798
  74.0045881  29.9326849   2.7510393  75.1749420  28.9885569   2.9238987
  49.8321247  64.8900080  38.3317757  50.7419538  65.1715946  38.4274507
  49.8031425  64.4598436  37.4771714   4.2254093  17.3027623  17.4282289
   4.6575665  18.1206417  17.1821690   4.2950416  17.2727263  18.3824193
  18.0173302  65.7022524  43.6165857  18.1492484  65.9546089  42.7027225
  17.9262412  66.5327835  44.0836525  13.6121643  13.8412702  49.5745945
  12.6640236  13.9097607  49.6867037  13.7925243  12.9027534  49.6283388
  14.5600188  73.5564327  55.6935644  13.8818204  73.3740616  55.0431681
  15.2481806  74.0054321  55.2025843  14.2618513  67.0602274  43.5246277
  14.5998335  67.7182722  42.9171944  14.8293364  66.3004160  43.3946943
  25.9820676  56.6547775  27.5596690  25.6812477  57.5526762  27.4199438
  26.8433905  56.7512369  27.9659343  47.4413919  53.0870199  27.8604126
  47.3225164  53.9887714  27.5621748  48.3826780  52.9313183  27.7831626
   1.7036836  29.8946548   9.8207879   1.7012647  30.4892635   9.0706778
   0.8239688  29.9714732  10.1901555  17.3296893  71.2186384  23.2293129
  17.0981479  71.0675716  22.3129058  17.0180213  70.4378271  23.6869478
  75.3311110  42.8540754   9.8928994  76.2372494  42.5607967   9.7973442
  74.9637127  42.7878189   9.0115029  54.2563105  57.7526426  42.3033285
  54.9516773  58.2859468  41.9182491  53.4966946  57.9078627  41.7419720
  72.8346825  13.3035195  40.8856153  73.0031061  14.0542054  40.3161097
  73.2259893  13.5468221  41.7246103  26.3054585  46.4417076  33.9538026
  25.5897164  45.8203268  33.8202572  26.5644264  46.3161659  34.8667145
  58.8310575  22.5315666  26.9263577  58.8429260  22.8024316  26.0083604
  58.7214375  23.3471227  27.4153209  24.9485707  21.1873507  39.5929193
  25.6411552  21.0694742  40.2430487  25.3898931  21.5846419  38.8421702
   5.8168834  64.4597912  46.2670326   5.1857990  64.1875267  46.9332409
   6.4215046  65.0381231  46.7320013  18.4540701  19.6419919  20.1209188
  17.6225448  19.3347597  20.4820347  18.3334601  20.5851507  20.0107551
  46.0893631  32.6557159   2.1604274  45.1785135  32.9471111   2.1195208
  46.0657072  31.8720937   2.7096167  20.5426478  50.0752974   3.9604518
  20.0852895  50.8712339   4.2316213  20.3960085  49.4586325   4.6777084
  42.7798843  18.8797975  11.2554514  42.3589706  18.0265486  11.1504138
  42.0529461  19.4961357  11.3444459  81.0276699  45.3607416   9.1640002
  80.2386475  44.8194313   9.1892987  81.1343098  45.5856466   8.2397276
  78.6867905  50.6744671  60.9857082  77.8708410  51.0811377  60.6940365
  79.3389797  50.9605885  60.3461647  56.7283344   8.0354780   2.4405539
  56.8269205   8.9845490   2.3645528  55.8685637   7.8528696   2.0615026
  67.7449894  59.6433115  19.8394680  66.9872141  59.8491430  20.3868651
  68.1765318  60.4864216  19.7010207  54.5282936  28.8382149  31.9115639
  54.1091251  29.1778922  32.7022266  53.8032627  28.5185647  31.3745499
  77.7568197   3.6360973  36.9358277  76.9049740   3.7347108  37.3611021
  78.0600548   4.5331827  36.7961168  22.0776916   6.1663687  64.0775108
  21.6878867   5.8525234  63.2615519  21.5428925   6.9211024  64.3236732
  15.4993713  22.6523399  42.4660349  16.2711322  22.7434039  43.0248928
  15.8407307  22.3088503  41.6403723  78.6881018  28.4958529  14.0196097
  79.4533920  28.2669067  14.5470059  77.9557323  28.0654955  14.4608104
  79.4953108  59.2456722  30.6828976  79.7918987  58.9415264  31.5406656
  80.2640152  59.6680593  30.2996016  74.6716976  13.3133709  19.9927604
  74.1444731  12.6336634  19.5729196  74.6647263  13.0823267  20.9216309
  45.9208298  63.5590267  36.7606211  45.3954697  63.8338375  36.0091496
  45.7893419  62.6122618  36.8113971  28.7845635   2.1988010  67.1108198
  29.7358704   2.2974452  67.0718622  28.6489582   1.2956756  67.3975372
  55.2085114  13.7581468  40.9754086  54.5947886  13.0445969  41.1498308
  56.0392427  13.3198512  40.7909679  69.6639252  32.7254367   6.6541636
  69.2898273  33.2042694   7.3937571  70.5342913  32.4633026   6.9541407
  73.7513399  18.1457722   9.9113846  73.4205198  17.8761554  10.7681775
  74.3524981  18.8657212  10.1024759  61.8831587  58.5820484  34.7190452
  61.1450481  59.1768503  34.8518658  62.5151396  59.0936422  34.2139673
  63.9627504  27.6663113  37.1053576  63.3703184  28.3678508  36.8349981
  64.8380470  28.0415535  37.0090151  71.6945887  20.3911877  30.1492381
  71.6198111  20.2065873  31.0854864  72.5337315  20.0068164  29.8956013
  72.2619152  44.5968914  60.7287312  72.9178381  44.5598650  61.4248800
  72.6229000  44.0509701  60.0302410   3.0559635  18.8104212  35.1152754
   3.5965121  18.1673622  35.5740929   2.4632114  19.1478455  35.7868552
   5.2053416   8.3666730  14.6269774   5.4222345   9.2485297  14.3244588
   4.4136715   8.4817153  15.1525772  11.7713070  23.2004571  29.1241550
  12.0746493  23.8619161  29.7459984  11.2134326  22.6214361  29.6435237
  71.2402964  76.1221790  64.6957588  70.3652620  75.7532454  64.8158932
  71.5895796  75.6658936  63.9302254  26.2518358  64.5921564  59.5470142
  26.3468122  64.5593119  60.4989243  26.8059230  63.8805532  59.2263317
  75.0684786  12.6990986  12.2966480  75.5661964  13.4522736  12.6148212
  74.8713970  12.1921945  13.0843282  23.1339312  62.0615482   4.2238197
  22.9094267  62.6250410   3.4833443  22.4071932  61.4412832   4.2817572
  16.2691605  46.4407492  12.1651423  15.3572476  46.3364267  11.8935466
  16.2185943  46.6554260  13.0965865  49.8455325   0.1122259  44.8893595
  49.5751849   0.6684326  44.1587591  50.5147687   0.6232523  45.3445578
   4.2145520  25.3273225   2.4821804   3.5853392  25.2910566   1.7617583
   3.8898087  26.0271072   3.0488139  82.7081203  13.5197234  18.0841279
  82.5489426  13.3934164  17.1487463  81.8376637  13.6528349  18.4593880
   5.3267801  14.7426438  32.6110983   6.0652477  15.1184857  33.0903053
   5.4789490  14.9948823  31.7003560  75.1274014  26.4654970  31.7131829
  75.0530767  27.2989511  32.1780062  74.8317289  25.8110881  32.3460770
  17.5685167  49.9772501  28.7002277  18.1665564  49.3399477  28.3098149
  17.1667874  50.4184961  27.9517961  76.8519163  14.3477166  57.5598621
  76.3365698  14.6061289  56.7957449  76.6782236  15.0304222  58.2079172
   5.9659320   1.0752394  33.6899948   6.3758540   1.9378880  33.7535000
   6.4809006   0.6134776  33.0283189  16.3338697  67.5526953  57.5952911
  16.2895358  67.4234104  58.5426855  16.8828619  68.3290052  57.4849272
  36.6022444   1.6851084  55.9583330  36.3170362   1.4818099  56.8491507
  37.4977660   1.3503563  55.9112930  76.7991781  29.2427421  22.7623272
  76.4798164  28.4787798  23.2425380  76.9859362  29.8913789  23.4410191
  14.0192616  50.5700684  17.9088795  14.0916288  51.3952255  17.4291766
  13.4769344  50.7815409  18.6687446  16.1260915  38.2127476   3.9129448
  16.8230009  38.6407185   4.4103268  15.5273283  38.9224029   3.6803454
   2.5861585  46.2614727   4.5521805   3.0753568  46.3826942   3.7384093
   1.8985435  45.6347418   4.3271896   3.2682124  59.6852922  14.6239424
   2.7524370  59.5879984  13.8234794   4.1763252  59.5897627  14.3368244
  54.7422600  12.1772957  64.4973230  54.7110891  13.1334531  64.4653606
  54.0638685  11.8949020  63.8839149  75.5845928  70.7533455  38.6834788
  75.2992058  70.2489519  39.4453001  75.6951523  70.1008320  37.9919338
  26.2948847  57.2478437  13.4978569  26.3822675  56.8907833  12.6140559
  27.1270895  57.0409346  13.9231312   3.0177640  51.7568661   0.3016191
   3.4017561  51.6010739  -0.5612272   3.1892203  50.9511400   0.7891041
  13.2745767  16.9461930   3.0774516  14.1657555  17.2590697   2.9220816
  12.8990185  16.8486309   2.2024259   5.5003417   1.1261965  19.4897735
   4.8222333   0.5660622  19.1120815   6.2878209   0.5820383  19.4899487
  12.3699772  47.2790670  26.1975193  12.9225302  46.9585085  25.4846668
  12.0905924  46.4879656  26.6583157   7.5231987  52.7952957  41.6608810
   7.9975033  52.2116470  41.0687494   8.0714357  53.5780239  41.7156887
   5.6403762  43.4906244  28.9961910   5.6513804  44.3399000  29.4375968
   6.5256393  43.1468773  29.1161084  20.4256487  64.0672493  34.2348003
  21.2624621  64.0820885  33.7703085  19.7827995  63.8400221  33.5629797
  11.4337361  40.3817606  23.5149908  11.7226696  39.7550082  24.1782618
  10.5795813  40.0548601  23.2325220   3.2072178  22.9387617   3.5035935
   3.7491193  23.6315727   3.1259850   3.2304394  22.2358084   2.8543252
  79.6432590  76.0706234  16.1803961  80.0372028  75.6376696  16.9377553
  78.7064743  76.0900688  16.3760734   1.8736245  34.6587920  11.0968959
   1.4806372  35.5299997  11.0440588   1.1513788  34.0854049  11.3534498
  12.5572884  33.5245728  39.0254545  12.6820207  32.7435780  38.4862685
  11.9459367  34.0655518  38.5256314  76.4319611  35.0712705  28.6802053
  76.8413687  34.6071267  29.4104028  77.1524954  35.2502871  28.0760384
  49.0675879  21.1317301   4.1736999  49.4138813  20.6079745   4.8961887
  49.0736628  20.5379105   3.4229863  41.1955786  36.2752128  21.5542626
  41.1607313  36.8561769  20.7943320  40.4415226  36.5305352  22.0857215
  71.1434937   7.3660773   2.2682051  71.2926483   8.1632680   2.7766067
  71.6880417   6.7045140   2.6948577  42.0712423  58.2698202  12.6829326
  42.0306969  58.9839983  12.0468974  42.0467997  58.7059498  13.5346532
  79.3681479  40.3399277  55.8668423  79.3162680  39.3996930  55.6951046
  80.2234364  40.5991840  55.5240536  46.2145185  20.2942801  17.8492415
  46.0243368  21.2150931  18.0285978  47.1603012  20.2162838  17.9742885
  62.3813915  13.6701131  12.5587618  62.2345734  12.7287769  12.6512945
  63.2983446  13.7446666  12.2944295  37.9090881  77.3437595  42.1916199
  37.3504519  76.9558430  42.8651810  37.3166466  77.8888464  41.6738176
   4.0346980  75.1062298   7.8712189   4.7668678  75.3903103   7.3239905
   4.4399375  74.5747852   8.5564792  72.2165632  50.3974485  20.6719470
  71.3364601  50.1101303  20.9150529  72.3155785  50.1211834  19.7608459
  51.9553852  67.1070337  27.4297547  52.7605772  66.6226149  27.6120567
  52.1784019  68.0197763  27.6125050  40.0984383  70.2064466   2.5289136
  40.2297926  70.2406883   1.5813878  39.2398524  70.6066799   2.6663077
  13.0368865  58.7019396   5.0496405  13.7658644  58.4991741   4.4633740
  13.3915079  59.3511343   5.6571102  61.8261051  42.0884275  56.6056108
  61.3886547  42.6389980  57.2550249  62.7287674  42.4065828  56.5908909
  41.7193604  12.3055446  15.5346489  42.0821714  11.4289904  15.6621337
  42.4758530  12.8889394  15.5946815  73.1533194  75.1338387  11.3495278
  72.4129629  75.6240940  11.7069495  73.6800098  75.7920933  10.8961773
  73.7492323  68.9277315  54.1153908  73.2174253  69.0983295  54.8927641
  73.4181356  69.5411062  53.4593582  51.4474154   2.9594195   9.9931228
  50.9060192   3.3989567  10.6488121  51.3788939   2.0296693  10.2101517
  78.2345247  18.7879884   8.9753354  77.7886534  18.8310790   8.1294215
  78.9024544  19.4720745   8.9291441  52.8877401  69.8502970  38.6274099
  52.3645306  69.0490627  38.6046815  53.0910206  69.9773979  39.5541000
  22.9235029  26.8350840  50.9718800  23.8363504  27.0308828  50.7606840
  22.4354148  27.5932503  50.6506538  51.3905382  70.4389048  62.9354286
  51.6693687  69.7549582  63.5442829  51.7863798  71.2403297  63.2778692
  14.6939969  76.4137268  12.1794343  14.7840059  75.4618883  12.2256041
  15.1311648  76.7341948  12.9683673  37.0412660  28.5292053   7.8499311
  37.6571774  27.9193187   7.4438208  36.1777377  28.1862307   7.6198912
   5.7988632  65.5496788  43.4826708   6.0060906  65.2752113  44.3759537
   4.8490009  65.4517698  43.4162855  71.4103603  25.7329893  65.3750324
  71.7821980  25.1991200  64.6729231  72.0521450  25.6782365  66.0830879
  74.0100002  72.9723358  13.6332417  73.8538933  73.5280943  12.8697026
  73.1561852  72.5850153  13.8261485  50.3063965  19.9903190  11.9955611
  49.4966316  20.0537229  11.4891148  50.2238035  19.1672945  12.4772680
  33.4647655  38.3738160  24.9625206  34.0596604  38.5853195  24.2430782
  32.7097607  38.9459252  24.8250747  19.0676177  76.4542007  38.7714601
  19.9392831  76.6571808  39.1109157  18.9443743  75.5255127  38.9678693
   6.7337519  44.7810555  61.3271523   6.8035686  45.7267857  61.1969614
   5.8549017  44.6526480  61.6840363  74.9374247   6.1270422  19.3593204
  74.1820526   5.7766920  18.8871968  75.0663710   5.5206239  20.0886083
  44.9690533   1.0364249  15.9654593  44.3257284   1.4190048  16.5621150
  45.6842852   0.7522558  16.5346026  70.6733894   8.4967828  66.7746353
  71.0132313   8.1056523  67.5794697  71.2857533   9.2049807  66.5753794
  25.4471707  59.0739632  46.6666746  25.1191401  59.5410919  45.8982849
  24.9596167  59.4480133  47.4005747  11.7198288  72.0947742  13.9291072
  11.0830951  71.4062023  13.7376153  12.5684166  71.6535187  13.8913643
  51.1746836  74.8420048  51.7174864  51.2201357  74.9195099  50.7645130
  50.2533340  74.6565676  51.8990374  69.3386364  19.7192240  21.7133904
  70.1786232  19.5257783  21.2971830  69.5542860  20.3362918  22.4126434
  33.3618426  53.7011766  21.2238574  33.7411785  54.5405769  21.4841413
  33.4929848  53.6625624  20.2764702  45.5668211  31.4409661  19.3325639
  46.0132074  31.8546319  20.0713825  45.0999308  32.1577263  18.9030290
  70.9973192  70.2118254  64.7959375  70.1164579  70.0440884  65.1308632
  71.2420177  71.0550022  65.1772690  30.7173085  28.9476728  13.4731734
  30.4569697  28.0293226  13.4018350  29.9439025  29.3893170  13.8239253
  66.1742210  16.9775271  11.9442558  66.5412283  17.7679074  12.3402798
  66.8415451  16.3062370  12.0866752  37.3746729  66.9195032   9.2911750
  37.3359489  67.8757906   9.2754567  36.8308449  66.6456032   8.5526228
  17.8729880   9.9625552  38.6544538  18.0244005  10.3813553  39.5017505
  17.4342787   9.1393512  38.8691640  55.5494785  63.0508804  51.7257786
  55.8708477  62.9287958  52.6191139  56.0511780  63.7937832  51.3901854
  21.3777208  41.5510559  31.1642981  22.1888041  41.8922901  31.5410423
  21.6553235  40.8027411  30.6359076  63.5560226   3.1554911  14.7848463
  63.9145374   2.2707020  14.7152293  62.9117870   3.0980423  15.4904616
   8.7901962  36.8545461  56.1796951   9.3880260  37.4732089  55.7600689
   8.9268750  36.9880748  57.1176291  56.7265034  16.2480354  10.5266309
  55.8880377  16.6578746  10.7393301  57.3587656  16.6867375  11.0958552
   2.9708785  17.8539312  53.1474209   2.3669881  18.4858668  53.5375595
   2.4032886  17.1835351  52.7671051  74.8616982   8.9375931   7.0779103
  75.3662109   8.2154042   6.7035586  75.5202055   9.5864749   7.3260015
  15.3871059  77.7135134   5.6466764  14.8976433  77.0091486   6.0715646
  16.3056707  77.4703026   5.7620806  76.0759592   6.4963943  61.3641453
  75.6361294   6.1095190  62.1211863  75.4907513   6.3151324  60.6286812
  75.7077169   1.6450277  12.6873839  76.4600849   1.2766539  13.1504977
  75.0176048   1.6898869  13.3491731  65.7744265  25.0320935   7.3870844
  66.3805962  25.5048752   7.9574066  65.0394201  24.8032832   7.9559809
  67.6362419  33.4335518  60.7223988  67.4719334  34.1075587  60.0628901
  67.8518248  33.9228344  61.5163517  50.3995752  53.1465340  27.9994988
  50.8422852  53.6915255  27.3489404  51.0401154  52.4708605  28.2217669
  64.0870190   8.5775506  49.1773033  63.4608889   9.2788345  49.3572950
  64.5399570   8.8590491  48.3824253  43.8628960  35.5055332   7.1188027
  44.8002815  35.3996253   6.9565600  43.4516096  34.8045063   6.6132003
  15.7864511  48.8795424  43.4208298  15.3106940  49.6336412  43.7689972
  16.6150784  49.2426538  43.1081676  70.7302284  39.9207258  50.0671911
  70.8712721  39.3942833  49.2803001  70.0196695  40.5174017  49.8319912
   8.1054133  38.7311482   9.7064489   8.6814260  39.1084695  10.3713322
   7.5880480  38.0795050  10.1796567  49.1196108  16.7247474   4.8439166
  48.9428282  15.7849491   4.8858410  48.2639027  17.1352172   4.9684602
  15.3079367  67.5025034  34.4379640  14.4986546  67.9317236  34.7155619
  15.5560827  66.9546413  35.1826119  18.5370684  35.1726556  54.3597364
  18.5005200  35.3682947  53.4234524  17.9849637  35.8408904  54.7657824
  47.2464466  64.4349766  27.4725962  47.5576115  63.7571001  28.0725002
  46.3197994  64.5390987  27.6887321  74.4368935  62.8745890  53.8561773
  73.6662626  63.3717966  53.5820436  75.1764965  63.4462309  53.6501598
   3.8199431  41.6172266  29.7516990   4.2978299  42.4200344  29.5434856
   4.1084763  41.3890934  30.6354046  81.2573338  24.2510629  14.6852386
  82.1628761  24.5104718  14.8553360  80.9197235  24.9293613  14.1002905
  50.8465862  10.8269846  14.9205005  50.6237411  10.1645935  15.5745733
  50.0149155  11.0301590  14.4923937  24.1385555  67.3786116  65.1697206
  23.5731173  67.3089123  64.4005299  24.7556567  68.0768394  64.9508715
  35.8937645  62.9484606  14.1750026  35.5361271  63.1017637  13.3004594
  36.6520143  62.3830652  14.0279615  50.3781223  26.8309069  24.5964885
  50.5344439  27.7500343  24.8132849  51.2094688  26.3955855  24.7851276
  59.1022301  53.6593056  60.9183979  59.2320490  53.8402081  61.8493414
  59.0673590  52.7043724  60.8625555  52.1492720  18.4409475  19.9559200
  52.9086781  17.8630269  19.8814833  52.3587751  19.1855621  19.3921030
  -0.1399082  53.6575556  60.2170229   0.3671869  53.7658787  61.0216045
   0.4955848  53.3433676  59.5738506   4.6987337  76.4888811  54.4794178
   5.2121711  77.2458458  54.7615862   4.9641040  75.7852602  55.0716400
  19.4597948  73.1133699  60.8812523  19.8486876  73.9539671  60.6396151
  18.5240138  73.2971859  60.9634495  45.6748486  57.1369219  63.4079552
  44.8773098  56.9255877  62.9226732  46.3861513  56.9270992  62.8027630
   1.1005335  49.8553276  28.5324264   0.5276217  50.6132364  28.4158993
   0.8650441  49.2648077  27.8168392  17.8712213  76.7021084  41.9328547
  17.9240310  77.0234919  41.0327673  17.9722166  77.4856758  42.4732733
  27.4795198  65.3919888  13.9906228  27.0429993  66.1226368  13.5526359
  26.9243789  64.6348143  13.8042283  66.7569637  77.5050545  31.5240240
  66.7132282  78.4231091  31.2566280  66.4738989  77.0166874  30.7509756
  28.1654596  43.7819481   0.9796566  27.9247952  43.7955046   1.9060086
  27.7620173  42.9835463   0.6390408  77.1462488  51.7218208  38.5038376
  77.9466677  51.5412140  38.9967275  77.0588303  50.9777737  37.9080343
  11.7436171   7.1333009  65.4865551  11.1207163   7.8084505  65.2174854
  12.1134055   7.4615419  66.3061571  59.7926474  15.2042961  23.7996054
  59.8828650  14.9635541  22.8775787  58.8975668  15.5351949  23.8742709
  62.6727247   3.4924752  47.4724960  63.0978537   4.2163485  47.9323959
  62.4826002   3.8408262  46.6014433  48.4100199  59.4507551  58.6350203
  48.9984703  59.9682283  58.0853128  48.0845690  58.7620497  58.0553722
   2.7651012   5.4889590  15.9170270   3.2274157   5.7842177  16.7014503
   3.4558484   5.1616699  15.3408480  52.7796888  42.7656364  60.9054184
  53.4972429  42.5984859  61.5164900  53.1860161  42.7179337  60.0400543
  17.6712692  71.4459038   2.9703411  16.9162536  71.2137461   2.4297081
  17.3739982  71.3064098   3.8694537  27.7898240  62.4062204   6.8692422
  28.0128217  61.5487242   6.5070218  28.1032181  63.0312347   6.2155032
  47.5259876  74.7067404  36.4980745  47.6015711  74.6645212  35.5447984
  46.8557549  74.0584087  36.7141438  62.7939129  77.5747538  19.4060099
  63.5150337  78.1756067  19.5936120  62.8502989  76.9109344  20.0933194
   5.6182033   2.2749640  23.7074852   5.4717094   2.9884139  24.3285823
   6.3920861   2.5435856  23.2123303  27.6617837  45.9832573  36.2269402
  27.3955822  46.1825609  37.1245170  28.5135698  46.4089537  36.1296129
  79.9375486   9.9044728   2.2604369  79.7573471  10.8131731   2.5013155
  79.9632692   9.9109155   1.3036039  60.4857206  61.2902260  44.1908598
  60.1661634  62.1400595  44.4940042  60.1766968  60.6690311  44.8502970
  14.0496552  66.4466906  30.2320814  14.0869999  66.5775108  29.2846012
  13.2651484  65.9158373  30.3698349  71.8069220  43.7995338  22.6265121
  71.9680882  44.5835638  22.1015787  72.2945738  43.9491749  23.4364724
   5.0741118  67.7468252   9.5792633   4.9441320  66.9751358  10.1304698
   4.5876834  68.4421682  10.0221157   0.6106250  13.5533595  37.7103281
   0.3750196  14.2010963  37.0461297   1.5678146  13.5518658  37.7145052
  56.2222910   7.8624672  66.0530281  55.5606890   7.2311175  66.3357115
  56.9722080   7.6953667  66.6239309  34.4008780  73.4189177  23.8086128
  33.8246489  73.6321068  24.5426035  34.6742678  72.5164413  23.9730144
   7.0361334  33.5497260  52.7150536   6.3473684  33.9703918  52.2003937
   7.0362025  32.6401281  52.4169493  16.2469637  21.4503121  58.3675337
  16.9645596  20.8238125  58.4612656  15.5054379  21.0324144  58.8054037
  64.1512012  12.0606923  22.0056248  64.8491573  12.6022804  21.6371560
  64.3952656  11.9478536  22.9242826  15.0198627  39.9679494  54.5982409
  14.5673263  39.5997643  53.8393736  14.3164909  40.2588606  55.1786470
   4.8510307   6.0383779  11.4849734   4.2800966   6.0360318  10.7166886
   5.3616601   6.8436819  11.4014566  49.9159765  26.1729360  63.8208389
  49.3326950  25.4502821  64.0527487  49.3271399  26.8891597  63.5830879
  70.6912279  39.7777605  44.3940735  70.2494001  40.0776005  43.5996437
  70.0856113  39.1453767  44.7807932  57.0353222  24.8849750   9.4696712
  57.9924488  24.8759723   9.4616121  56.8002558  24.5761418  10.3446543
  68.9399815  11.5667045   5.2480555  68.1649351  11.0589588   5.0077933
  68.6721945  12.0601404   6.0233259  68.8776588  58.4292030   1.2461361
  68.8070536  57.5467300   0.8821393  68.0880117  58.5331821   1.7770566
   7.3496962  11.6635334  16.5506244   7.9263133  12.1552896  15.9658849
   6.5050703  12.1090221  16.4844525  81.1149597  15.8096194   3.8811409
  81.7778492  15.1191342   3.8747409  80.3156757  15.3770912   3.5806522
  34.1685224  13.9849293  45.6362152  33.2969093  13.9232993  45.2454185
  34.5825863  14.7196567  45.1834917  51.2639618  30.2053595  63.3744335
  51.6409302  29.3584609  63.1359148  50.7767439  30.0323272  64.1799784
   3.8872722  60.0921822  45.5958939   4.6406564  60.6037664  45.3010607
   3.7241152  59.4738483  44.8836613  72.0740652   0.5745129  60.0785685
  72.9833698   0.6562074  60.3661823  71.5760660   0.4611252  60.8881187
   0.2502854  29.4460940  61.0197783  -0.0913112  29.3801498  61.9115162
   0.8130200  28.6780500  60.9214544  13.7167001  60.3038406  45.2042723
  14.0512085  60.2805519  44.3077230  13.1765127  59.5171595  45.2788734
  67.9140759  47.4339056   2.8183359  68.0092907  46.7587662   3.4901643
  67.3132896  48.0718994   3.2033712  31.1971521  31.9839287   2.9621330
  31.7370772  32.1773314   2.1957716  30.5251408  32.6655626   2.9598561
  12.6605010  52.6976395  60.7469416  12.2414064  53.3723545  61.2811279
  12.3408759  52.8617382  59.8597336   0.2675755  51.9124031  65.0611925
  -0.0930469  52.2532177  64.2426395   0.8666737  51.2176275  64.7880554
  22.9918098  34.9932766  64.5848989  23.6375451  34.3904328  64.2163372
  22.6971340  35.5145073  63.8380909  14.8670292  51.3462400  59.6170378
  14.5302403  50.5658340  59.1768408  14.0995908  51.7339039  60.0377369
  79.6771288  63.0868435  29.4562840  79.1748047  62.5910807  28.8096571
  80.4289055  62.5285912  29.6548343  37.8345728  62.2298908   1.9459680
  38.6531734  61.9973564   2.3842058  38.0494738  63.0107260   1.4357300
  77.8143215  31.7486429   1.8653278  77.7256823  32.4767494   1.2503199
  78.2809925  32.1220970   2.6129797  28.5407186  51.5658283  37.8942442
  28.8548088  50.8014488  38.3772635  27.8510928  51.2231350  37.3257303
  36.0190701  73.3016253  27.1381903  35.9554458  72.8204203  27.9631925
  36.0825515  74.2199039  27.4008012   5.0141340  51.3180113  40.8656883
   5.5442441  50.6715584  41.3318539   5.5468380  52.1132660  40.8709240
  61.2903166  36.7938042  21.5317130  60.7481384  36.3948727  22.2122478
  62.1148777  36.3089871  21.5675521   4.9061772  12.8760242  66.0274887
   5.2408326  12.1246505  65.5379248   3.9952704  12.6516092  66.2175369
  45.9053946   8.6724997  52.4685955  45.7667446   8.9104819  51.5518761
  45.0359344   8.7291861  52.8648996  21.9301605  64.3923378  60.2937126
  22.5022173  64.4359016  61.0599232  21.0513711  64.5427418  60.6420517
  35.5486584   3.0586070  27.5084996  34.6775579   2.7636835  27.2430992
  35.7022047   3.8486838  26.9903922  61.7049265  16.5817416  17.4584794
  61.1076307  16.1996412  16.8154669  61.1347055  16.8822312  18.1661415
  46.0820913  28.4922314  58.5594463  45.9065104  28.2831073  59.4768715
  46.9087076  28.9745235  58.5776901  17.9123926  43.4145832  65.0323963
  18.1392181  44.2461205  64.6160698  18.1841493  42.7485704  64.4008827
  53.6709404  29.0293407  26.9555616  54.2221642  28.9350820  27.7324128
  54.2550182  29.3930721  26.2901402  61.3644123  24.7783494   1.9474757
  62.3058128  24.9495196   1.9211040  60.9714031  25.5328488   1.5087210
   7.2606975  15.0246942  62.5286865   6.7310399  14.2288244  62.5764990
   7.8451979  14.8790777  61.7847872  19.0944147  56.0361338  53.6722612
  19.0017283  55.8088112  52.7470732  19.8654151  55.5487823  53.9625645
  46.1549711  33.0600023  50.5972624  45.8669806  32.3664951  51.1908436
  45.8323479  32.7889371  49.7378016  21.5633607  49.8897982  62.6733732
  21.6358709  50.4725218  61.9174576  22.4640870  49.6234894  62.8577709
  65.6598091  32.6020217  63.8430834  66.1995363  32.5280070  63.0560350
  65.0030136  33.2622647  63.6218834   4.5206657  41.1144495   6.6756141
   4.0648198  40.2928162   6.8582499   3.9097458  41.6114950   6.1315972
   5.7492256  22.9132295  27.6483870   6.2851435  23.2270741  26.9200134
   6.3634694  22.8253675  28.3772326  11.0352159  49.9053049  16.3700366
  10.5048811  49.1135406  16.2800968  11.9351494  49.6070576  16.2381315
  59.4336319  10.3588605  16.5292072  59.6850634  10.1466763  15.6303239
  58.5090494  10.1169550  16.5827417  22.4975228  16.1413288   7.9209197
  23.3669567  16.0751569   7.5260299  22.5624561  16.8852103   8.5197997
  48.0202913  11.6184139  33.6238170  47.1819830  11.7492592  33.1806970
  48.1467772  10.6696105  33.6217403   5.7866514  50.5974627  60.9323597
   5.9638608  50.2541113  61.8081093   4.8335475  50.5641985  60.8503914
  58.7367439  55.2620888  12.8699565  59.2812347  55.9186649  12.4355924
  59.3363714  54.8065996  13.4608984  74.8625565  61.1919880  62.0738888
  75.7773495  61.3516378  61.8417406  74.7334337  61.6791534  62.8876638
  77.9659414  70.3746557   1.5062943  77.5919056  70.4413271   0.6277267
  77.2612858  70.6582355   2.0887624  63.0124855  29.1285777  15.8631992
  62.7820253  30.0536728  15.9487498  63.7263966  29.1175628  15.2256680
  33.7465549  57.8750944  35.8203650  34.1189861  58.7434721  35.6672406
  33.0757976  58.0165625  36.4884233  74.7360039  23.5469389  17.2337997
  74.5863295  23.2397652  16.3396668  75.0714207  22.7797413  17.6976264
  44.7001314   5.0608021   5.2402818  44.1593122   4.2713395   5.2625591
  45.5989408   4.7342923   5.1983470  71.9688797  74.5613813  59.7680950
  72.8944445  74.7210550  59.5835161  71.5732002  75.4328871  59.7799587
  80.4475021  20.6966949  41.6836691  80.1392937  20.5269766  42.5738525
  79.7002268  20.4800868  41.1260939  63.5977888  24.7213650   9.6144968
  63.3733511  25.0287032  10.4927933  63.0497551  25.2451992   9.0301251
  18.1987538  29.5279491   1.4349275  18.5326876  30.2640331   0.9221893
  17.8363241  28.9272821   0.7837158   7.1388555   7.6237434   4.9077904
   7.3408234   6.7343706   4.6171749   7.4185503   7.6459974   5.8229446
  16.0300040  66.9390774  11.1312950  16.4629424  67.0399189  10.2835774
  16.6968250  66.5479898  11.6957688  78.4862900  47.0543575  20.0144029
  78.3947134  47.8317881  19.4635415  78.6063766  47.4002647  20.8987999
  75.2854300  48.2015133  54.1906166  74.5169687  47.6605511  54.3724489
  75.6960869  47.7869177  53.4318638  19.4038188  46.2474108  53.1191826
  19.5061898  45.2977753  53.0563688  19.2902946  46.4147043  54.0547895
  11.0970688  44.3648577  57.5847673  12.0012891  44.5218229  57.8567600
  10.5711615  44.8927832  58.1855583  58.6881447   8.9787996   8.1446922
  57.9044008   9.0005487   8.6937839  59.2311192   8.2907724   8.5294342
  54.1800165  67.4462986  30.9956574  54.9775314  66.9188929  31.0409331
  53.4846401  66.8139410  30.8145499  75.7289839  43.8065195  23.8399982
  75.9942150  44.0066957  24.7376704  74.7724390  43.8351965  23.8608360
  80.2444077  42.0023346  25.1668811  80.5878258  41.4773369  24.4439197
  79.3876648  42.2999859  24.8608828  10.4930663  46.3504076  62.1330357
  10.2831936  45.6797075  62.7829218   9.6944207  46.8732262  62.0619154
   8.5703743  55.5416679  25.9664774   8.7701875  54.6372128  25.7251048
   7.9715490  55.4646301  26.7092466   5.9534448  65.3769255  57.8643131
   6.4954656  64.5941114  57.9625463   6.1567122  65.9072256  58.6348295
  27.3393154  73.8978815  67.2870874  27.0318460  74.7801113  67.0788383
  28.2896185  73.9864254  67.3600101  28.5912704  66.2594700  52.8438091
  28.1129050  66.7090130  52.1471691  28.3098960  66.6960430  53.6478376
   1.5909775  69.1141558  38.7232018   1.4589141  68.2484913  39.1097450
   2.3210239  69.4879723  39.2166853  79.9426222  53.2705402  41.9567442
  80.2792072  53.9827108  41.4129066  80.5254936  53.2527924  42.7158070
  14.6642399  78.0430079  47.7195549  15.5503869  77.7484751  47.5092554
  14.0942657  77.3631668  47.3601389  73.4220314  63.3070946  26.5556312
  73.2346153  62.6629162  27.2383761  73.9951134  63.9457846  26.9797635
  27.0546269  67.2442102  50.3756762  26.5610290  66.9270182  49.6193838
  26.6482377  68.0834007  50.5920839  15.6563687  18.6380863  54.9190092
  16.0320294  18.5783005  54.0406370  15.7759893  17.7641308  55.2906609
   9.0200955  -0.1633432  60.6648302   8.7916124   0.4430698  59.9603510
   9.9693936  -0.0795445  60.7545137  75.3916502  31.4457965  63.4357214
  75.8202410  31.0742736  62.6646709  75.9756374  32.1494818  63.7186003
  42.2958803  66.2608862  63.7384224  42.2951937  65.6167746  64.4464827
  43.1647110  66.6605377  63.7790394  74.7586298  48.0427933  29.2740750
  75.4570007  47.5810623  28.8100553  75.0133371  48.9646244  29.2342091
  31.8089104  76.2938452  47.7730131  31.5962315  76.0320044  48.6688042
  32.2072959  77.1593618  47.8646612   5.0869638  75.2221155  28.3338141
   5.1445925  76.1203957  28.6593914   5.8644575  74.7892141  28.6864185
  79.8333359  27.8555679  44.6244907  79.3084669  28.0983162  43.8617182
  80.5787086  27.3781276  44.2602158  12.5184643  58.8964796  47.7779007
  11.9338179  58.9462042  47.0216274  12.0346475  58.3782291  48.4209919
  61.7930412  11.1577666  46.2751865  61.1940098  11.8601763  46.0221720
  62.6615763  11.5582764  46.2368727  69.3548346  12.7214599  29.2932034
  68.6276817  12.1317339  29.0939450  69.0167046  13.2946873  29.9811792
   1.9815911  19.4854605  46.1492920   2.5027347  19.8145533  46.8816471
   1.7158154  18.6067224  46.4202452  43.0462027   3.3844218  58.0513906
  42.8417397   2.9920658  58.9001989  44.0012455   3.3516204  57.9961872
  48.4689331  75.6994963  53.5065317  48.6143160  75.9778833  52.6023197
  47.5188923  75.6079340  53.5791397  40.7499790  76.4501286  61.9887304
  40.1664448  77.0530653  62.4493647  40.7019758  75.6380510  62.4931622
  71.1606455  43.6190987  19.7041345  71.7600060  44.1929674  20.1812863
  70.3191423  44.0743542  19.7331417  75.9159994  57.4085951  44.6569633
  75.0225163  57.5569534  44.3472672  75.8139610  57.1744728  45.5794621
  64.0698576  25.0281334  20.9978533  63.7166929  24.9670148  20.1102901
  63.9682817  24.1468072  21.3572645  38.9196920  21.9755745   6.2203485
  37.9854178  21.9623423   6.0125297  38.9617229  22.3193693   7.1126884
  69.5585775  39.4384146  22.7631617  69.2966795  39.9863386  23.5030389
  70.3275347  39.8778462  22.4000645  63.7316322  68.0993938   4.5448795
  63.1507444  68.5378551   3.9231479  64.4221926  67.7203417   4.0011132
  20.0434971  16.2828267  58.6068726  20.6308722  15.6782305  59.0603971
  20.6264925  16.9266748  58.2046223  53.0683088  64.1908121  34.2933178
  53.4285784  63.7928724  33.5008001  52.1203613  64.0982151  34.1981697
   2.7964732  75.2591801  51.4744997   2.7227458  76.1461687  51.1222887
   2.4756534  75.3310108  52.3734713  33.4760928  73.6268377  15.0477242
  32.6854897  73.0940676  15.1333809  33.8296008  73.3945084  14.1890693
  48.3539534  64.8940229  61.5692520  49.1469383  64.4833183  61.9138098
  47.7467203  64.1665173  61.4342213  13.7928855  32.4045062  33.8307881
  14.0793061  32.2670650  34.7337317  12.8952336  32.7270937  33.9107299
  74.5226288  32.4753165  32.0126271  75.0132370  31.9093418  31.4166355
  74.6890306  32.1097159  32.8814650  19.0487635  69.5161152  58.4941816
  19.2832744  68.6876202  58.0760479  19.8708522  70.0046778  58.5355043
  72.8583908  37.0249677   6.6544574  73.3669424  37.4054074   7.3706073
  72.6021814  36.1603951   6.9755524  73.9895868  32.0379424   1.1463921
  74.3339157  32.9266477   1.2351448  74.4151068  31.6935205   0.3611913
  60.7085848  26.3204908  19.1936934  60.0678921  26.1641669  18.4999335
  61.2931108  25.5634856  19.1549122   0.4218324  26.9863319  31.6432548
  -0.1818530  27.6711893  31.3555646   1.1729558  27.0667291  31.0553932
  12.7925205  45.0606966  44.6861029  12.8823245  45.3343964  43.7732744
  12.3851633  44.1958475  44.6378708  50.7514906  43.1109715  56.9715738
  50.7891321  42.2570515  57.4024296  51.6566563  43.2913256  56.7178440
   0.4260518  15.6293559  13.5665262   1.1572420  15.9462154  14.0968025
   0.8408405  15.2136922  12.8106129  43.2117653  56.9776154  62.1824169
  42.6477337  56.3501835  62.6345491  42.6703453  57.3157215  61.4691257
  75.4085827  35.0276160  11.1161888  75.5126143  34.8668122  10.1783442
  75.9170580  35.8216906  11.2808955  57.4606180  14.1308308  34.0585113
  58.0887032  13.8292968  34.7148752  56.7063284  13.5511708  34.1647172
  77.2787189  46.0636330  11.5924048  76.7716122  45.7976198  10.8253896
  77.6003790  45.2420521  11.9635773   0.8936458  54.3441105  29.9355197
   1.8209608  54.5127535  30.1024866   0.4972048  54.3029451  30.8057904
  71.5582705  18.9485621  60.2950382  70.9944010  18.6148810  60.9928513
  71.2486219  18.5061336  59.5047188  21.4057565   8.1633753   7.3486114
  20.7489991   8.8497549   7.4660224  21.3931108   7.9778779   6.4096427
  80.9347248   3.1338337  15.9373486  81.4077759   2.3022333  15.9672129
  80.1399803   2.9395896  15.4404688  75.0885630  66.0371590  53.8594532
  75.7653427  66.2319517  54.5077229  74.5774746  66.8440723  53.7969065
   2.4220152  22.5341725  15.7147527   1.8395244  23.2847857  15.5984938
   1.9394161  21.7964649  15.3417695   5.3502297  48.9417267  53.8361979
   4.9341181  48.3257008  54.4391823   4.7957206  49.7212362  53.8697004
  24.2026758  61.0103655   1.0809086  24.6672130  61.8458939   1.0326455
  23.4724903  61.1066294   0.4695216  62.1293211  26.0351276   7.7321798
  62.2328806  26.9526076   7.9846454  61.9175053  26.0658789   6.7992169
  57.5629807  70.9929514   7.0184791  57.1306181  70.3887224   6.4149874
  57.2133017  71.8534851   6.7873079  40.8201694  72.8254890  10.1199293
  40.7384682  72.2228050   9.3807900  41.7573071  72.8404665  10.3143013
  37.6812387  11.3316178  54.2707157  38.4509754  11.1815882  54.8195601
  37.8167892  12.2042525  53.9014387  59.5129156  23.0592752  51.8970108
  59.7885704  23.1604600  52.8080559  60.1615000  23.5521650  51.3943815
  81.9945908  12.8829801  15.6804883  82.0107269  13.3503163  14.8452818
  82.6800728  12.2200918  15.5973101  55.2164364   5.9868127  49.8231077
  54.6947575   5.1875556  49.8957014  54.8261929   6.5861523  50.4592943
  22.9933691  54.5157814  24.4567084  22.0935297  54.8099041  24.5981836
  23.5126400  55.0260305  25.0781894  71.6627026  25.7122350   3.1336784
  72.4835348  26.2044477   3.1476426  71.1886168  26.0150886   3.9081174
  75.6608582  48.6457157   6.3895625  75.8222532  49.5472670   6.6677517
  76.4251375  48.1592607   6.6985410  27.2281694  21.6519046  50.3280592
  28.0449057  22.0856786  50.0810480  26.6962075  22.3463058  50.7167149
  26.0328698  34.1398644  11.9193125  25.4203415  33.6308360  12.4502838
  25.4921603  34.5169830  11.2253058  29.2865467  34.1262317   3.3931103
  29.0333271  34.2707658   4.3048236  28.5409904  34.4445109   2.8841189
   1.8047664  33.1286573   4.5017761   1.3680869  33.2101679   5.3496552
   2.4110852  32.3965311   4.6140349  10.9942138  71.4003420  67.2350454
  11.7721307  71.5653849  67.7678108  11.3301456  70.9754515  66.4458370
  73.7978506  13.2274580  58.8359022  74.3067980  13.4189963  59.6236324
  74.0368938  12.3288059  58.6089325  32.8381395   4.7841686  59.0343237
  32.7355981   4.7549948  59.9855661  33.3614731   5.5694014  58.8738108
  15.2771628  71.7402601  59.0393829  14.8215055  70.9677935  59.3739080
  16.1409569  71.7054892  59.4503355  66.1898136   3.8951251  37.6742864
  65.3271961   4.3052948  37.6119471  66.8014431   4.5822850  37.4097991
  61.8473148  37.4462175  58.4429455  62.4891472  37.3943996  57.7347088
  61.8947554  36.5919542  58.8721514  68.2660437  20.8979988  63.0247116
  67.8227806  20.1352286  62.6533175  67.5916147  21.5766525  63.0531311
  47.7005386  63.9117479  43.8175488  48.5069752  63.8696623  43.3036280
  47.2858000  64.7305155  43.5458040  20.8442116  77.1145105  63.3410263
  20.1771069  76.7356491  63.9134455  21.6746378  76.8979549  63.7649679
  30.4222798  10.6497443  66.7848063  30.0488353  10.1539540  66.0561323
  31.2654257  10.9610391  66.4555168  20.0203466  71.5296316  12.7981555
  19.1817224  71.5299654  13.2596111  20.5158544  72.2424841  13.2013309
  15.8470213  53.8763285  30.9667945  15.0838161  54.3343353  31.3189006
  16.2386310  54.4991159  30.3544140  79.0837717  60.9990692   6.0147232
  79.0796947  61.9019604   5.6969041  78.2049799  60.8662939   6.3701487
  77.5023317  28.1745410  31.7372632  76.8504000  27.4764371  31.6751027
  77.7050877  28.2304502  32.6710725   9.9183691  60.6850815  25.3820467
  10.1934838  59.7702217  25.4418564   8.9747816  60.6623363  25.5412865
  63.7610769  29.9194765  58.5521793  62.9407406  30.4125214  58.5657644
  63.8749981  29.6191835  59.4538879  67.6467276   2.9464287  61.6971254
  66.9454908   2.2981133  61.6323996  67.8043509   3.2197887  60.7934332
  41.0002756  14.2918169  37.8531790  40.0746679  14.4520164  38.0370831
  41.0652065  13.3412409  37.7614117  75.4969740  54.6153736   0.2150575
  74.8006964  54.7292900  -0.4318211  75.3080082  53.7708759   0.6241444
  43.5363770   7.9442579  56.1917067  42.8884840   8.4860164  55.7411957
  43.7838030   7.2811073  55.5473137  18.9273846  42.3272562  28.1209660
  19.7608399  42.3491907  27.6507497  18.4045970  43.0181980  27.7141166
  46.4767170  66.3615513  43.1625509  46.2343502  66.3824320  42.2367811
  45.6425142  66.4081240  43.6296415  80.3994751  20.3424549   8.7906605
  81.1124134  19.7285485   8.9669168  80.6578922  20.7836843   7.9814833
  20.4130459  44.2292690  59.5097685  20.7561159  43.3662033  59.2781353
  20.6226850  44.3290091  60.4383850   5.5758232  51.8062639  29.3714070
   6.1977434  51.2225342  29.8058081   5.7921982  51.7375422  28.4415197
  16.2806201  14.2183161  46.0975981  16.5722167  13.4555173  46.5969372
  15.4483414  13.9471626  45.7102776  13.6999750  12.6615715  20.3453159
  13.3788228  12.0327902  20.9916353  12.9555333  12.8060162  19.7612154
  20.1514292  47.6298618   1.3943434  20.8694959  48.1671572   1.7288938
  20.0263095  47.9307842   0.4943297  67.8825998  43.7646389  35.1384854
  68.7518024  43.8835907  34.7556424  67.6920605  42.8346539  35.0157738
   5.1411283  35.1000834  26.4032030   5.3329992  34.2324471  26.7590475
   5.9718758  35.5719757  26.4615822  59.9094820  25.8569050  43.3628416
  59.9625301  26.1688042  44.2662430  59.2822218  25.1345992  43.3952761
  41.7376328   4.0061721  29.7195411  41.0723782   4.6878242  29.8145080
  41.2641096   3.1873009  29.8660231   3.2038027  32.4862814  53.6321449
   3.1937748  31.5579653  53.8652992   2.9712787  32.9393196  54.4426537
  66.6821337  31.6910005  13.5153830  67.1161938  31.7335701  12.6633215
  67.3773813  31.8727493  14.1477048  20.5225992  64.1839695  22.0143580
  21.0436249  64.9142599  21.6805363  20.5927300  64.2551565  22.9663277
  71.8998194  47.7910566  62.3348045  72.5497341  47.5451803  62.9931259
  71.4244509  46.9803619  62.1530676  65.3372812  23.6167336  28.6691403
  66.2005424  24.0032148  28.5220218  65.0363302  24.0079379  29.4892740
  50.3032017  13.6318088  12.3751390  49.7822475  13.9292395  11.6292334
  50.5070925  12.7180779  12.1757460  66.1256695  68.3524036  41.2352753
  66.6514826  68.7798166  41.9113445  66.4522696  68.7160254  40.4122686
   2.9251057  20.5232453  10.0534236   2.5288957  21.0839748   9.3864655
   3.2801068  19.7818553   9.5629686  29.4565177  54.7364998  20.7193971
  28.5703969  54.9787140  20.9883833  29.9372530  55.5641079  20.7055283
  32.4461675  23.8640571  32.9525781  31.9100070  24.1889501  33.6759090
  31.8899727  23.9613509  32.1796536  35.7503271  15.6428134   2.2012134
  36.0810852  16.2230337   2.8869072  34.8854423  15.3743279   2.5112453
  49.1701984  34.3555212  10.2452171  49.4952726  34.4906139  11.1353338
  49.3044472  35.1978254   9.8107880  29.9447036  32.8678489  21.8566060
  29.3959403  32.5200415  21.1536694  30.8353782  32.8250313  21.5086150
  78.3788204  34.3804383  48.1796789  77.6919365  34.9286366  48.5590315
  77.9257822  33.5818410  47.9090691   3.2014689  12.9594326  38.4690619
   3.7693918  13.7299383  38.4731841   3.6312506  12.3483062  37.8706956
  64.3000460  71.0657215  52.3500586  63.4187460  70.9018040  52.6857376
  64.1915512  71.7931843  51.7374802  24.2785382  43.7972069  28.7461686
  25.1178837  43.5852432  28.3377552  23.7453198  44.1448116  28.0312705
   6.5820915  35.3331113  17.7844405   5.8009773  35.0340772  18.2499206
   6.7226279  34.6742320  17.1044683  30.0292182  67.2885323   6.0458547
  29.2414165  66.7477036   5.9901243  30.2587318  67.4719858   5.1348668
  22.9208469   8.8299090  41.5106964  23.3324599   7.9946977  41.7325735
  23.2867956   9.0577137  40.6560516  82.7584934  58.8305283  22.6272964
  82.0964432  59.0566778  21.9740152  82.3497486  58.1444120  23.1549430
  22.6410604  45.2820444  43.0793285  21.8338418  45.6800461  42.7534103
  23.2896614  45.4648066  42.3995161   2.1116903  37.6748300  59.4041681
   2.2431521  38.4655380  59.9273634   2.1920586  37.9713726  58.4976196
  13.6869192   7.3157579  48.5320950  13.9964044   6.6841972  47.8828049
  13.1620061   7.9385185  48.0292368  57.7835178  18.6545026   2.4222834
  56.8698835  18.7670219   2.1599057  57.7789736  17.8747976   2.9775056
  31.4944625   5.2027798  42.9355860  31.4526939   4.2577744  43.0820513
  32.3008561   5.3323758  42.4364233  15.3448951  16.4098811  58.8265991
  15.8407223  16.8416739  58.1309414  15.6945872  15.5192220  58.8525724
  35.6473637  10.8812642   5.3106958  36.5344954  10.6392765   5.5765384
  35.6802988  11.8318987   5.2037281  16.2711644   0.0548112  32.3024392
  17.0826316   0.5578666  32.3709178  16.2794781  -0.5186547  33.0687928
   7.1169919  40.7647753   1.1268989   7.4443853  41.5013456   0.6106514
   7.8693241  40.4843998   1.6480678  35.6463480  68.1336260   6.7087471
  36.2099171  68.8811922   6.9081682  34.7615647  68.4415913   6.9050819
  63.4770536  30.3360009  44.6950579  63.3411312  29.6116209  45.3058195
  63.8064051  29.9192834  43.8987494  47.5539446  53.0861855  10.4024279
  46.8440151  52.4597263  10.5430663  47.2797871  53.5909367   9.6367288
  10.6825483  35.1275492  37.8153181  10.7305503  35.9549642  37.3364520
   9.7516352  35.0161266  38.0082345  61.0171080  18.7422323  59.7652149
  61.8024158  19.2207158  60.0308847  60.5058384  18.6554956  60.5697727
  73.5340835  77.3802358  44.5813131  72.5838376  77.2656284  44.5926714
  73.6623277  78.2910782  44.3164539  11.1922789  19.3761206  67.1986294
  11.3395476  20.3135252  67.0728683  11.6182625  19.1764629  68.0322409
  22.4025893  31.6689682  45.5055618  22.8255081  30.8481765  45.2532196
  22.2946668  31.6010237  46.4542294  60.5736399  31.0548615   4.3420494
  61.0441303  31.0838199   5.1751357  60.2141523  31.9360137   4.2392477
   8.7252277  30.6135058  44.5108080   8.6394542  30.1182985  45.3254509
   8.4504747  31.5012884  44.7401190  41.1358929  56.2995005   6.1868602
  40.6594896  56.6073132   6.9579130  41.2094927  57.0720863   5.6265736
   1.2532257  55.2448654  36.6546631   1.3977863  54.3005753  36.5942264
   0.3012082  55.3429651  36.6381860  73.4046507  56.6704130  62.5414276
  73.0017614  57.1806717  61.8388987  74.1933823  57.1613073  62.7719831
  21.7847419  53.7081146  51.4496231  21.6229296  54.6515322  51.4530182
  22.6656580  53.6175013  51.0862875  32.1904993  13.5124373   5.5598462
  32.0620704  12.6939595   5.0804377  33.0776167  13.7883496   5.3293574
  18.3634341  52.8313732  51.5332747  18.9685214  53.5644913  51.6456985
  18.2640564  52.4658728  52.4123430  36.4093280  76.4843512   8.7957740
  36.0987306  77.2620249   9.2594409  36.9076538  75.9972954   9.4520366
  57.7768278  21.0694814   6.1120975  56.9734573  21.4996314   6.4050132
  57.9476976  20.4026842   6.7772412  32.6194692  33.1375217  51.9410849
  33.0972004  32.3893738  52.2992468  31.7920756  33.1460047  52.4223137
  25.5221581  32.1034193   8.7833911  24.5929217  31.9801092   8.9771640
  25.9720993  31.4980173   9.3726879  10.3496957  52.1423388  33.8703561
   9.8504364  51.7184973  34.5684505   9.7323304  52.2109509  33.1420827
  16.3761282  68.9439249  32.4283338  16.0170507  68.2955742  33.0340862
  15.7644868  69.6788120  32.4738574  79.8753834  57.2406054  50.0432444
  80.4614067  57.9020405  49.6753836  79.0039778  57.6319075  49.9818563
  28.9589334  44.9517679  17.3510921  29.7990012  45.1741791  16.9497800
  28.8516068  45.5933619  18.0532825   7.9672772  14.5978773  27.1378255
   7.4172533  15.3139663  26.8201447   8.1651598  14.8319936  28.0446148
  72.1142626  23.8728166  63.0182409  71.2359858  23.7770081  62.6498890
  72.5576210  24.4798350  62.4256277  25.1251292  32.5439072  39.9231195
  25.6940913  32.6071501  39.1559720  25.6800103  32.1595788  40.6018162
  21.1654305  41.1164284  42.2894669  20.7842207  41.8911600  41.8763018
  20.8272862  41.1316156  43.1848192   9.9963623  32.3571730  58.4034014
  10.4883790  32.2669411  59.2194939  10.4004729  31.7250681  57.8089523
  76.3906384  34.7037005  43.2907724  75.4954624  34.3836761  43.1791019
  76.4349174  34.9764442  44.2072201  60.8627176  15.6293130  12.0824349
  60.0630331  15.1103497  11.9963408  61.5518761  14.9833930  12.2376180
  14.6329761  44.9053335  47.9088926  15.2689457  44.9884987  47.1983576
  14.8993778  44.1142845  48.3774042  46.0771465  71.9101286  26.5470004
  46.7282152  72.3902035  27.0587349  46.0431576  71.0445547  26.9542646
  18.5009313  59.8522854   2.5497669  18.2740581  59.7172928   1.6296920
  17.8742123  60.5071259   2.8574035  51.5740596  76.5267575  66.7901699
  51.5972982  75.5895531  66.5969344  51.0610281  76.5925944  67.5955870
  33.7304354  22.0127106  50.2957106  33.6924291  22.4964714  49.4706249
  33.1458902  22.4930024  50.8821011  15.3182161  24.8748207  25.7665062
  14.9475288  25.6804061  25.4061532  14.5777917  24.4376659  26.1871004
  31.4074755  11.3956904   4.2509875  32.2306943  11.3022876   3.7715948
  31.2957621  10.5580664   4.7005841  20.0058150  54.2003250  34.3545794
  19.9457836  54.4466448  35.2775931  19.4139850  53.4531164  34.2671084
  23.2926202  15.3359842  21.6830325  22.7573442  15.0565779  20.9403038
  23.6904073  14.5285821  22.0087624  81.9683647  43.5854578  44.0995550
  81.3080597  42.9425192  43.8410044  82.3774719  43.2086134  44.8785686
  70.6895924  24.5348549  60.2963638  70.5972052  23.5986519  60.4730654
  71.0846233  24.5763779  59.4254684   8.9109302  73.3212376  36.9760180
   8.5190225  72.7648830  36.3028836   9.4276679  72.7201366  37.5125718
  40.5995846   7.0968461  66.0959530  40.7784510   7.2576010  65.1694584
  39.9664021   6.3789946  66.0966110  77.9530811  36.2374020  51.5455389
  78.9100933  36.2516737  51.5328074  77.7321291  35.5249858  52.1454382
  28.0598736  11.5720785  57.0818758  28.5466838  11.4789259  57.9007626
  27.1965289  11.2058079  57.2734833  15.4608464  29.2877030  28.8511920
  15.6904149  28.7734079  29.6251607  15.1578486  28.6402440  28.2146215
  13.5728908  39.8550367  19.1890252  13.0438745  40.2170706  19.8998725
  14.1379046  40.5787468  18.9184058  55.6876850  64.6275568  30.7194400
  55.1213217  64.6584892  29.9483943  56.5730333  64.7309828  30.3706026
   8.8030142  74.6269751   6.8239957   9.1035312  75.4297781   6.3980490
   8.6004508  74.8930883   7.7208710  28.2508779  42.5300980  11.0988808
  28.8133717  43.1618452  11.5469062  27.3968863  42.6291037  11.5197504
  27.3059964  21.3335466  18.2650793  27.4978971  21.2038875  19.1938376
  27.6627445  20.5558491  17.8359509  29.6817040  27.0064831  60.4978323
  29.5431304  26.0933161  60.7491446  30.3798699  26.9716430  59.8439360
  15.3452015  54.7893858  55.5326319  15.6854844  54.3344975  54.7622299
  14.3939269  54.7246552  55.4482651  10.4022932  55.4348850  46.3447618
  10.5735517  54.7913647  45.6571722  11.2019908  55.4419565  46.8707514
  63.7492180  29.8473740  55.7721329  63.8467884  28.9011025  55.6659222
  63.7636757  29.9848294  56.7193031  65.9483814  33.5923457  43.8094139
  65.6974602  33.5963750  42.8856945  65.2065516  33.1858134  44.2573500
  76.1365128  27.5410986  61.6880798  76.4351320  28.4329367  61.8660688
  75.5588007  27.6287794  60.9299278   2.8279284  36.0547996   5.8778387
   3.1887853  35.5374241   5.1578826   2.5922447  35.4080176   6.5429378
  42.5729275  34.4599390  48.5503197  42.1454668  34.5781708  49.3985748
  41.8534994  34.2978334  47.9400969  11.6952097  61.3540411  35.2118564
  11.0175586  61.0447979  34.6107006  12.1063280  62.0865917  34.7529626
  32.8719473  76.2549734   1.7092702  32.5116158  76.6355133   0.9082805
  33.7929773  76.5155888   1.7049715   4.8415217  58.8629770  39.0052915
   5.5261141  58.7503624  38.3458352   4.1676059  58.2283592  38.7617111
  46.3241482  73.7119293   8.4925729  46.2787628  73.6114645   9.4434029
  46.7628717  72.9174042   8.1884480  51.2843180  32.1983051  12.0118856
  50.7848501  32.9253554  12.3835826  51.1439514  31.4744759  12.6222956
  40.2132702  45.6545877  60.7364464  40.6613922  45.4745817  61.5628910
  40.9033537  45.9720278  60.1539993  68.7057257  41.4605474  57.8410530
  69.3680000  41.6070080  58.5164595  68.3351278  42.3277092  57.6769686
  75.6978846   6.6663891   6.1171973  75.1294231   5.9103465   6.2637687
  76.2098265   6.4344889   5.3423619  24.4738674   3.3408156  15.1776433
  25.4025722   3.1198439  15.2477288  24.3265319   3.4615701  14.2395914
  25.3942013  43.0334616  25.6985402  24.6746612  42.8002548  25.1119328
  25.1598334  43.8993073  26.0326290  18.0458403  50.3123856  42.7413273
  18.9617658  50.0721359  42.8812933  18.0858457  51.1340332  42.2519064
  33.3351421  37.0952749  53.2035542  33.4929419  37.8911138  53.7114668
  32.3864555  37.0756316  53.0776930  26.6794705  32.6130795  57.9594851
  25.9028769  32.2491241  57.5344324  26.6467571  33.5482359  57.7578878
  15.0930142  11.9014311  43.6489534  15.9078979  11.7987907  44.1405439
  14.5576453  12.4808872  44.1910267  14.5174813  30.3766704  64.6164799
  15.3328919  30.3303981  64.1172838  14.1785455  31.2544346  64.4407415
  77.9737616  22.9816222   8.3119130  78.9170361  23.1381083   8.2674563
  77.8059816  22.3335528   7.6277459  25.8056593  62.5817490  67.1094656
  25.6696439  61.7373753  67.5393057  26.7047834  62.8222322  67.3330164
  41.0999298  34.7259998  50.8163786  40.8859682  35.5884075  51.1723375
  40.2902842  34.2230225  50.9042501  62.5591993  32.8063083  56.5329742
  63.0262136  32.1020198  56.0834026  62.7540970  33.5895371  56.0183859
  22.6344347  43.1295395  66.6027880  21.9639921  42.8458548  67.2242880
  23.3595991  43.4272766  67.1520805  64.2010784  58.3397913  67.2521591
  64.9172020  58.3558464  66.6172218  63.8909912  57.4342823  67.2406006
  44.9661461   0.6837486  39.6646643  45.5540755   0.1189970  39.1630411
  44.0959063   0.4961752  39.3129134   1.7418435  36.4272285  38.7526107
   1.1371866  36.6694903  38.0512309   1.2164203  36.4807105  39.5509219
  55.9685898   7.2816992  61.8498993  56.7255306   7.7817529  62.1552086
  56.0481262   6.4348155  62.2888708  12.7287793  24.2707253  21.7152286
  12.4614930  23.5004139  21.2138200  12.2033668  24.2305136  22.5143242
  17.7966881  58.8229513  66.1338758  18.3444917  58.2424927  66.6622782
  16.9543672  58.8366938  66.5883398  26.7918062  40.3164721  54.0169048
  25.9657121  40.0308228  53.6267662  27.4665666  39.9005151  53.4803343
  23.4385300  77.3054934  64.0061331  24.2642212  77.3810482  64.4844198
  23.6682081  77.5055552  63.0986881  71.3355494  20.8767629   0.3550527
  70.9402609  21.4499712  -0.3017681  71.4359999  21.4320397   1.1282348
  68.3390808  24.9921918  41.0418606  67.9499626  25.4518414  40.2978563
  69.2301607  25.3373647  41.0972118   9.4122458  39.9497056  47.0841885
   8.8228852  40.3810453  46.4654541   9.4768769  39.0494180  46.7655373
  67.3869944  27.8718615  38.9878154  68.0958891  27.4082685  38.5419703
  66.9212484  28.3281612  38.2870245  12.0234036  56.3791275  30.4714036
  11.1276889  56.6717100  30.3031182  12.4656594  56.4636374  29.6267128
   3.4061867  21.4818144  66.9978333   3.5200378  20.9111404  67.7578354
   3.8427672  21.0185981  66.2829494  81.2370682  14.4617796  57.9325390
  80.8008289  13.6179090  57.8150034  80.6865883  14.9306655  58.5597181
  44.8542595  78.1001377  32.7523136  45.0056362  77.1550512  32.7409124
  45.1670361  78.3824492  33.6117911  60.0447369  20.8441830  12.6902199
  60.4720592  20.1323009  13.1665123  60.7549143  21.2731314  12.2128427
  17.0795667  50.6409216  56.8627977  18.0291235  50.6521511  56.9829941
  16.7461991  50.1792002  57.6321507  68.9862156  13.1378174  57.1255970
  68.4068632  13.0216932  57.8786564  69.6933413  13.6948419  57.4510670
  78.7473869  33.0492210  51.0231924  79.2517328  33.1805396  50.2203083
  79.2191505  33.5518599  51.6872931  24.3018222  46.1616278  59.2449999
  24.4956326  46.9865417  58.7998104  23.4015989  45.9582043  58.9911318
  61.8139839  61.8866825   6.7529929  62.2166920  62.4241590   7.4350274
  61.7518139  62.4682379   5.9952611  14.8647761  60.9203005  58.3459187
  15.6191492  61.2076712  57.8315496  14.1258430  61.4057684  57.9791307
  46.4373970   1.9494259  63.3765602  46.6080332   2.6517764  64.0041113
  47.3045874   1.6918206  63.0637455  33.0458903  74.4281101  57.2452784
  32.2647238  73.8796759  57.3175955  33.2032371  74.4978619  56.3036823
  16.1111903  65.2776432  66.3650846  15.3842103  65.2376461  66.9864845
  16.6860271  65.9596014  66.7125463  60.2506876  11.3373232  58.3562469
  60.0186968  11.6389549  59.2345572  60.7935858  12.0393348  57.9975319
  16.2673748  71.9785452   8.5118991  16.2929428  71.8998337   9.4655150
  15.3399646  72.0958567   8.3060348  65.5482626  46.4117002  62.7052927
  64.9687624  47.1226645  62.4315500  65.1401234  45.6208563  62.3528385
  25.3152800  48.1594896  41.4583588  25.9751916  48.8505220  41.4016151
  24.6750331  48.4908438  42.0880604  74.9588108  13.9743137  61.2154675
  74.5084810  14.7422600  61.5671730  75.8498621  14.2778122  61.0418367
  28.4388757  66.6963434  -0.2345885  28.5591054  66.3793278   0.6605535
  28.8203883  67.5742197  -0.2310474  70.6641197  33.0959654  60.0367498
  69.8349619  33.0881882  60.5149364  70.4102182  33.0325389  59.1160202
  30.5487776  61.7368746  45.6561661  30.8610392  62.6386499  45.5818462
  30.8530474  61.3112259  44.8546219  66.8919277  17.6129973  52.7240658
  67.0593452  16.6709042  52.7498341  67.3510075  17.9165125  51.9408989
  15.0873506  31.9676018  40.1073694  15.7587123  32.6476097  40.0517607
  14.2722523  32.4169111  39.8838305  15.8071721  14.3814600  19.5063031
  15.3214633  13.7144959  19.9915624  15.5528259  15.2083910  19.9158466
  30.4101801  24.6652126  42.6897478  30.7284403  23.8055873  42.9654026
  30.9492874  24.8881602  41.9308758  74.8795700  11.8458486  63.2756090
  75.0403786  10.9355235  63.0272484  74.9862432  12.3385334  62.4619007
  50.9878635  61.7073441  11.0238504  50.3079128  61.9324255  11.6588640
  51.3816118  62.5469923  10.7868135  14.0597475  49.9696302  49.2608738
  13.9258957  49.2055750  49.8217010  13.5023904  49.8085022  48.4995413
   2.8791174  29.8749161  54.7495461   3.7763503  29.5496774  54.8231983
   2.4108624  29.1824412  54.2832327  23.1504631  59.6476126  65.1208210
  22.3557663  59.5916080  65.6514359  23.4672594  58.7458992  65.0680447
  58.8824320   2.0610942  15.3703439  59.3119907   2.3864752  14.5792472
  58.0583906   1.6867952  15.0587451  10.6843674  39.9687457  37.8437161
  10.9883857  40.1716995  36.9590616  11.4279115  39.5307851  38.2579207
  75.2150679  19.8364007  13.1730235  75.5304480  19.1932893  12.5380647
  75.8792830  19.8381245  13.8622570  47.4458170  25.6467295  58.7895775
  47.4659967  26.1540914  59.6010017  46.9373560  24.8657179  59.0080309
  80.3022003  68.5295820  64.2578363  80.6699085  67.6527262  64.3680620
  80.9522438  69.1128731  64.6495581  80.4674816  48.6670876  43.7904167
  81.2578487  48.9565325  43.3345890  79.7474957  48.9680004  43.2360697
  57.2745848  10.5962753  64.8733044  56.3471889  10.7828987  65.0193977
  57.3419619   9.6443558  64.9477434  44.7356415  69.3647623  14.5461380
  45.6803322  69.3972778  14.3953800  44.5736170  70.0461912  15.1985478
  21.3301802  57.4577427  29.7839546  21.3141990  57.7051210  30.7084966
  20.6105256  56.8335581  29.6905565  63.2587290   2.4444389  23.7505078
  63.0971193   3.3026096  24.1424990  64.1378546   2.2078189  24.0461111
  50.0640488  51.6539526  17.9782629  49.3817711  51.9646835  18.5733926
  49.6440077  51.6410208  17.1182442  66.6002178  27.2390246  46.7770910
  67.0223093  28.0973268  46.7397833  67.3088312  26.6328263  46.9930172
   6.4308357   5.9526718  14.8926413   5.9916228   6.7271841  14.5412803
   5.8937645   5.2177608  14.5965123  52.0590448  33.3187389   4.3623737
  52.1485519  33.6738300   5.2467555  52.0397234  32.3697686   4.4861194
  50.9899092  75.3298855  56.6698694  51.6619062  74.6899605  56.4350271
  51.2948227  75.7051897  57.4959517  15.0314224  47.1623421  33.0735779
  15.3385711  47.4648190  33.9282131  14.2017078  47.6209116  32.9412150
  10.9019053  24.9701977  33.8222408  10.4331160  24.1704464  33.5837698
  11.3208282  25.2536201  33.0095863   7.3513377  35.2044272  43.9854193
   7.1480578  35.9306669  43.3959389   6.6249818  35.1913333  44.6086884
  16.4256334  40.9346056  65.8273077  17.2361898  40.4818964  65.5943203
  16.6326463  41.8636703  65.7262707  50.8954334  38.0644083  58.5908699
  50.3367281  37.4635339  58.0978966  51.1334372  37.5773907  59.3797970
  16.9617796  38.2130408  57.3074102  16.9558501  37.9839396  56.3780499
  16.0637081  38.4880161  57.4920416  75.3765440  23.7152576   8.8813305
  76.2783957  23.5307550   8.6189210  75.0479746  22.8797317   9.2132467
   2.0542352  63.5200739  47.9942894   2.1250318  64.3223572  47.4770308
   2.6106945  63.6770439  48.7571430  73.4525824  46.6548824  59.1335726
  74.0769339  47.3166466  59.4310379  73.3665991  46.0561085  59.8754025
  23.7212420   4.1162837  12.1694863  24.5136666   4.2949182  11.6631413
  23.1151032   3.7299547  11.5373659  77.6207590  64.1067076  40.9272671
  77.0810747  64.1135454  41.7177916  77.4783993  63.2396460  40.5475712
  13.4461808   9.9398381  35.5592418  13.2755613  10.7203496  35.0320554
  14.2197299   9.5440286  35.1577568  79.3866253  13.0945802   3.1817666
  78.5070086  12.9979014   2.8168571  79.3728495  12.5699091   3.9822429
   7.6442909  28.1271386  15.0308657   7.9522419  27.7290916  15.8450878
   8.1392783  27.6807642  14.3438661  42.2207975  22.4031425  16.9731951
  41.6382074  22.0483422  17.6447153  42.5990200  21.6312337  16.5520835
  82.1731758  51.3876534  57.0614576  82.7230263  50.9374189  57.7026939
  82.1938038  50.8223343  56.2893057  82.1109547  30.4300666   3.1145272
  82.0857522  29.8123884   2.3837261  82.9323895  30.9071326   2.9966912
  23.5770297  63.8118172   6.5972912  23.1066418  63.0786943   6.2004304
  24.2516875  64.0382004   5.9571201  37.1688533  55.2339029  34.4948149
  37.1099901  55.5835867  35.3839111  37.7931619  54.5114803  34.5624185
   8.2550949  54.5874786  65.9724474   8.1430811  55.5343580  66.0567522
   8.0646956  54.4047546  65.0523472  76.1667347   3.1109446   0.7543636
  76.0814953   2.1890342   0.5113663  75.2922821   3.4760758   0.6192910
  12.6284027  60.9365940  25.4405737  11.7045426  60.7121038  25.5515671
  12.6772761  61.3247967  24.5669937  54.0453815  56.5182972  20.3333759
  53.2564688  57.0374775  20.1774883  53.7550735  55.8070326  20.9043860
  66.0732603   5.5592638  13.3036053  66.3356304   6.4533055  13.0843222
  65.3052330   5.6658769  13.8648522  36.9548249  24.6936941   7.9048443
  36.1066318  24.2717886   8.0419433  36.9397759  24.9695349   6.9883746
  16.2028503  41.7988682  41.6044331  16.0195458  42.7315140  41.4913130
  16.2890363  41.6847849  42.5508928  19.1247547  39.6917462  41.1557007
  19.5223463  38.8468623  40.9451723  19.8584330  40.2381468  41.4374733
  24.9962711  12.1914434  47.4986506  25.0080538  12.3320985  46.5519142
  25.1036167  11.2458766  47.6016665  12.0364785  25.3709483  45.6603432
  12.6306570  26.0566306  45.9653473  12.4255145  25.0637007  44.8415184
  29.1236043  52.6480293  65.5620956  29.2665792  52.9265070  66.4666605
  28.2542348  52.2475576  65.5693483  45.5350494   5.5065042  55.4429960
  44.8498440   4.9105603  55.1403856  45.6109953   5.3279322  56.3803196
  78.4048223  50.0841522  66.8055153  77.8142595  50.5574799  66.2194824
  78.9525080  50.7656240  67.1952152   2.5078741  56.0466337  53.1823683
   2.1702106  56.0831976  52.2874498   2.2874112  56.8996286  53.5565758
  69.3032360  26.8882728  18.9958215  68.5248470  27.1110797  19.5064044
  69.8832417  26.4533138  19.6208334   5.7766867  25.3768659  66.0035086
   6.2063283  25.0058055  65.2328205   6.4945847  25.7175040  66.5371943
   2.4503723  11.8153596   0.8101372   1.6765308  11.2810731   0.9888534
   2.5220910  11.8213093  -0.1443537  14.9023759  30.0886226  57.9785299
  14.6516287  29.7675133  57.1123600  14.1543055  29.8787022  58.5375977
  79.6537018  30.5829024  61.3497305  80.3040600  29.8847651  61.2731409
  80.0062752  31.1659956  62.0219851  16.0144567  37.3643136  50.0661993
  16.3722563  36.6887689  49.4901371  15.2267873  37.6700640  49.6163940
  34.6964025  75.6826496  34.0479279  35.2657080  76.1503935  34.6589422
  35.0820136  75.8472347  33.1874347  27.6788282  63.4301615   9.4022650
  27.0425558  62.8099298   9.7582161  27.9096079  63.0713081   8.5454142
  72.9967499  69.5561552  16.2237477  73.1386232  69.2054224  15.3444922
  72.0904350  69.3271494  16.4296043  35.5226970  54.6114445  51.0145283
  34.8828554  54.6449757  51.7256594  36.3664150  54.7503805  51.4447260
  10.8184874  31.7699575  27.3773694  11.2757480  32.4565601  27.8628826
   9.8976064  31.8827772  27.6129127  17.0170188  33.5551810  51.2564850
  16.0990119  33.6264563  50.9949207  17.3234773  34.4607425  51.3041782
  51.1606026   9.2847645  46.7675209  51.7010307  10.0611758  46.9136381
  51.7644930   8.6377519  46.4029360  75.8587408  34.4718409   3.9548346
  76.1914062  33.9644003   4.6951512  76.6414118  34.7160625   3.4608564
  19.0868771  24.2220736  50.4533529  18.9662158  25.1321173  50.7244539
  20.0114584  24.1645265  50.2123785  18.1963420  71.5936232  54.3947411
  17.7495658  71.1487675  55.1149702  17.8621447  71.1671066  53.6056709
   1.3566405   3.6384004  11.8012929   1.2634256   2.8996795  12.4028194
   0.5238138   3.6705205  11.3305485  19.0816128  22.9980183  55.5003500
  18.9995956  23.3410358  54.6104956  19.1165435  22.0480108  55.3885651
  24.8922873  38.0502558  44.4183159  25.2837276  38.5806942  43.7243128
  24.7105122  37.2076583  44.0021181  20.6666565  30.0055385  34.5138955
  21.2052464  29.2146349  34.4889140  21.2775183  30.7174134  34.3233347
   9.3460250  48.8231516   7.8668678   8.9766079  49.1893387   8.6704028
   8.8877743  49.2810583   7.1621978  66.5560818  41.2177467   2.8503090
  65.7256937  41.0395098   3.2918131  66.4387417  42.0838404   2.4599946
  40.2756929   1.4179905  34.2746878  39.3410683   1.3885343  34.4792438
  40.3604984   0.9094946  33.4681702  42.3234224  75.6683254  22.9654193
  43.0841970  76.2403822  22.8643799  42.6806307  74.8558235  23.3238578
   7.9781944  77.5052547  64.2155886   8.7185782  76.8987894  64.1993046
   7.6003265  77.3985338  65.0885487  73.0095005  49.8347855  64.7092009
  73.7916088  49.4342136  65.0887775  73.3384752  50.5951881  64.2298365
  33.9778328  27.7459311  49.3144512  34.6066761  28.0852413  48.6775351
  33.3518553  28.4596968  49.4366121  24.9290967   9.0073740  18.0121946
  25.4500794   8.7282544  17.2592652  24.0611577   9.1856062  17.6500511
  23.9919829   5.4955328  48.2100153  24.4507170   4.7306922  47.8624296
  23.0702353   5.3338736  48.0088186  21.3597751  77.7233648  26.4676428
  21.9454765  77.6223087  27.2179604  21.8096209  77.2762632  25.7507253
  77.9516029  39.8352194   3.6101359  77.2498798  40.4862261   3.6071807
  78.2900858  39.8438454   2.7148226   8.6034209  49.5958614  33.2449937
   9.3484712  50.1129723  32.9388452   8.9977676  48.8752413  33.7363458
  51.8783379   8.7669539   7.7715057  52.3224545   9.3619496   8.3756340
  52.5851774   8.2611585   7.3705369  37.5555992  19.2221749  64.9997330
  37.8123808  18.6797059  65.7454014  37.2520185  18.5967183  64.3418026
   8.3942425  47.7767038  23.4831905   9.0979952  47.9400015  24.1111207
   8.6709040  46.9904947  23.0124760  54.3890190  26.0756564  27.6241660
  53.9918995  25.7263589  28.4219885  53.8743114  26.8571615  27.4227667
  34.1757345  45.3951025  21.2683654  33.4258199  45.3907394  20.6735206
  34.5283222  46.2825775  21.2027645  49.9178171  54.0900326   2.5555590
  50.3281641  53.6787510   1.7948410  49.4535303  54.8466206   2.1974388
   7.4605924  58.6836910  62.5597906   7.0426744  59.1381931  63.2912350
   8.1407827  59.2868614  62.2601938  65.4381371  73.4052181   4.0760189
  66.0186052  73.1279993   3.3671924  65.2340317  72.5978994   4.5480520
  30.1117110   8.4228581  60.2102470  30.0223446   7.6943338  59.5958376
  29.6061301   8.1529862  60.9769201  26.3537908  47.2553062  64.0898180
  26.5813899  46.8419123  63.2570314  25.9023190  46.5696716  64.5820713
   5.3086621  52.4356890  48.5975122   6.1400592  52.8225660  48.3230352
   4.7049960  53.1767654  48.6488008  81.5214634  21.9387364  13.1710660
  82.4717426  21.9453168  13.2857287  81.1959457  22.5471783  13.8344479
  20.7950807  28.9215755  45.5747652  21.4731550  28.3018446  45.3057289
  20.7743907  29.5731473  44.8738670  80.7248497  39.6428704  41.9312382
  81.0832977  39.0038133  42.5471497  80.0946045  39.1456509  41.4098930
  29.0288496  65.1597691  48.6744213  29.5506859  65.8297396  49.1160774
  28.6973810  65.5939293  47.8883791  14.7579229  49.0658712  40.8049488
  13.8607919  48.8945198  40.5185461  14.8942363  48.4653139  41.5377426
  77.2105470  43.8642777  -0.2078480  76.6975990  44.4308974   0.3683954
  76.9259086  42.9774491   0.0129419  24.3546367  27.7554202  33.2314801
  24.2363453  27.4266434  32.3403335  25.2827573  27.9842448  33.2811260
  25.9174681  33.7318993  63.7868738  25.7214141  33.0884528  63.1058645
  26.7457461  33.4360623  64.1645908  78.9952850  70.6744337  31.2482142
  78.7306404  71.2268829  30.5126882  78.1778288  70.4759121  31.7049265
  49.0042591  55.1238537  19.2124712  49.1825008  55.7094336  18.4765673
  48.0498695  55.0551796  19.2381978   2.1415369  56.3300323  58.9544535
   1.6095413  56.7634964  59.6217823   2.8083152  55.8553743  59.4507790
  59.4112968  19.4296885  57.5717068  58.5298443  19.7490275  57.7648163
  59.7401428  19.1111338  58.4123087  65.4308701  41.6891193  42.3519564
  65.9384584  42.2858191  41.8019247  65.8294487  41.7649984  43.2189083
  21.0485315  15.6385875  64.4486380  21.9633675  15.4241037  64.2661476
  21.0459995  15.9176421  65.3642559  61.7132139  12.9085958  62.2109842
  62.4536657  12.9498208  62.8161812  61.9609642  12.2377408  61.5747452
  22.2652698  59.3562746  58.3929014  21.8073535  59.7329617  57.6414728
  21.7499542  58.5836554  58.6247206   2.2812012  42.9540157   8.3809459
   2.0964080  43.7903595   8.8082820   2.5332126  43.1915379   7.4885857
  74.0638256   6.8253362   9.2650950  73.9956141   7.5828868   8.6839783
  74.6100664   7.1282727   9.9904078  45.1741457   8.0910069  26.3571668
  46.0984373   8.2021731  26.5797830  44.7071838   8.2825398  27.1704888
  22.4203372  71.4378262  47.6265383  22.8424072  72.2108030  48.0015039
  22.0563293  71.7431021  46.7955542  17.3467517  57.0594406  30.3966165
  16.8758976  56.9619989  31.2242818  18.0075121  56.3671064  30.4140115
   6.2872517  39.9888587  18.9576113   5.6405276  40.1202583  18.2642758
   6.0126203  40.5820322  19.6568632  10.7579231  74.3871164  15.0089097
   9.9782366  74.1275263  15.4997623  11.2677324  73.5812855  14.9254787
  13.0465806  24.5878482  61.6388416  13.9161599  24.4741011  61.2552738
  13.1154597  25.3913903  62.1544075   8.4726453  57.3438597  34.3532419
   9.4204897  57.4608564  34.2889357   8.2307220  57.7902555  35.1646829
  65.7051373  65.9381247  13.5782456  64.8659468  65.6352854  13.9250541
  65.4968596  66.7567730  13.1280625   9.8696673  25.8971453  63.5690117
   9.3661511  26.2542820  64.3005562  10.7815218  25.9573674  63.8538408
  61.6425657   6.3098621   7.3235536  61.0588217   6.7277801   6.6904503
  61.8783855   7.0109779   7.9310536  28.6458778  72.9111910   5.1421046
  27.9337883  72.7781963   5.7677841  28.9597797  73.7975168   5.3213406
   9.0005916  47.3053360  49.1188908   8.5710436  46.7433357  49.7637749
   9.1571456  46.7323208  48.3683014  73.1718445  69.0067291  13.3563042
  73.4426212  68.1339884  13.0712783  72.7359581  69.3837738  12.5920582
  27.5259876  35.5539942  41.0795975  26.9377112  36.3071561  41.1335135
  28.2795143  35.7997370  41.6162872  57.0075703  23.1693053  22.4399209
  57.9216528  23.1568933  22.7237058  56.5091848  23.3163714  23.2437992
   8.6589479  70.5275917  59.7097111   8.5395032  69.8091316  59.0886021
   8.4108871  70.1560736  60.5562782  15.5364382  59.2201757  60.7718277
  16.4269102  58.9499569  60.5476046  15.1766241  59.5620394  59.9533558
   3.2358053  21.2526107   1.1531167   2.6772660  20.5543709   1.4947717
   4.1281778  20.9427571   1.3076939   9.4360292  59.9077272  64.7386503
   9.8234177  59.0475988  64.9009371   9.2904246  59.9302435  63.7928581
   8.2785666  55.0982857  47.8201437   8.6743718  55.3764296  48.6461020
   8.9860547  55.1699734  47.1793985  44.7822952  63.0238152  17.0290315
  45.2466249  62.5205183  17.6978540  45.4024267  63.7046814  16.7680919
  15.1897788  76.1049795  61.2147188  15.4291618  75.9348869  60.3036785
  14.2773557  75.8229351  61.2792730  26.2586427  75.9548283   6.0313094
  25.6117606  76.5136194   5.6005800  25.8129501  75.1152039   6.1436617
  14.0392685  32.4565673  52.8306532  14.3691874  32.9891515  52.1069574
  14.5237637  32.7659678  53.5960102  22.1558213  56.6391945  50.3447151
  22.2495842  57.1325684  49.5298386  22.8645229  56.9605112  50.9021473
  28.6662769  63.0258131  39.7011566  29.4160056  63.3561850  39.2061853
  29.0102768  62.8686142  40.5804634  31.7942405  43.9244318  32.4981737
  32.6067019  43.5681534  32.1387243  31.1507559  43.2269764  32.3728156
   8.1136316   5.2827251  35.1341462   8.2989621   4.3868876  35.4158545
   8.9303648   5.5819678  34.7346067  64.1956949  29.6401620   0.4945617
  64.8267651  29.9579978  -0.1511626  63.7605238  28.9051723   0.0625357
  69.2984295  45.4971886   1.6025405  68.9050436  46.3613129   1.7240696
  69.4481134  45.4326773   0.6593204  54.9577570   2.1633939  45.4089355
  55.2451801   2.8374183  46.0248137  55.5130672   1.4084652  45.6037283
  18.7955928  39.6838689  65.6908178  18.7418187  38.7439561  65.8637428
  19.4015026  40.0150776  66.3536978  56.6694260   3.6206543  20.7464314
  55.7361698   3.6876151  20.9483600  57.0050955   2.9810792  21.3745236
  70.6994677  57.6997948   8.2714254  69.9379873  58.2797718   8.2736582
  71.0189342  57.7274179   7.3695326  59.5185661   0.6788797   6.9780940
  59.4985008   0.9006163   6.0471469  60.2359390   1.2033504   7.3338187
  82.0142937  22.8788996  29.1043234  82.4269485  23.3774829  29.8095584
  81.4438725  22.2553611  29.5538330  20.8708668  57.1604300  59.7799730
  19.9814606  56.8289185  59.9036217  21.0114503  57.7508926  60.5201244
  30.8342004  32.6432776  49.4075441  30.1914430  33.2051468  48.9746475
  31.5272927  33.2421684  49.6853638  41.5648079  22.6432610  48.3445168
  40.7679701  23.1299186  48.1336880  42.1755457  22.8680849  47.6425982
  10.1101136  66.4058447  58.8804865  10.7311928  66.1159229  58.2123280
   9.7355241  67.2120476  58.5255909  68.2878876  13.4165049   7.1309114
  68.9299488  14.1263425   7.1201175  67.4484205  13.8549578   7.2697699
  67.0252466  61.5883923  65.0456810  67.4582577  61.6330290  64.1931868
  66.3432789  60.9261370  64.9335384  62.0083618   8.4199935  29.6127343
  61.2596893   8.7153071  29.0945554  62.1333361   7.5068766  29.3542171
  45.1871347  44.5928049   4.1105199  44.2648506  44.6483183   4.3606010
  45.5560017  43.9351225   4.7001177  19.0939331  34.6015310  67.1213055
  19.4131804  34.6951532  68.0188322  19.7222090  34.0122581  66.7038631
  61.4460135  57.7303219  65.1856852  60.9778929  57.1249866  65.7607222
  61.9310570  58.3005762  65.7821560  21.8275332  48.1250381  37.9920483
  22.6288581  47.8305340  38.4249210  22.0451593  48.1255674  37.0599174
  19.9000895  29.3857193  58.5646772  20.4387498  28.6712074  58.2247448
  19.0397155  28.9907289  58.7059927  26.2896514  34.8728585  52.5737858
  25.4164529  34.9316978  52.9614639  26.7348742  34.1989875  53.0875063
  54.5272970  19.1989255  17.9414260  55.0824499  18.4928882  18.2724094
  55.1112795  19.9550176  17.8821123  31.0463142  29.0280628  30.3209853
  30.2681255  28.7162876  29.8589778  31.2479877  28.3325124  30.9468985
  12.7687490  71.4428806  57.3407555  13.4511364  72.1140909  57.3479557
  12.0544183  71.8329430  56.8369579  27.3321962  47.4170971  13.4108770
  27.2134709  46.6015291  13.8976884  28.2619071  47.4270535  13.1833494
  17.2221196  77.5814724  46.2931108  17.6547492  78.3674383  45.9594727
  16.6847157  77.2754526  45.5625105  19.6457374  51.1663628  56.2823820
  20.2902412  50.4620171  56.3512802  19.8705196  51.7670441  56.9929361
   0.7205231  63.3797741   4.9212602   1.3107522  63.6010885   4.2009240
   0.5176289  62.4537563   4.7887725  69.3226242  36.5987420  22.5566196
  69.5768833  37.4123979  22.9919887  70.1247358  36.0767627  22.5371027
  27.7586246  66.1943150  40.9692860  28.4404945  65.7137394  41.4386892
  26.9603086  66.0284042  41.4706850  28.2067251  32.4105048  64.2127657
  28.8816500  32.0908332  63.6140060  28.2074332  31.7800736  64.9330378
  10.1243317  10.2111018   8.7053841  10.3108811   9.5042616   8.0874777
   9.4335914  10.7220292   8.2834089  25.4650688  49.9166393  28.5899949
  24.5084953  49.9370527  28.5620546  25.7379222  50.4679394  27.8566098
  37.0916533  63.4069872  33.7034035  36.4589095  62.8415918  33.2604671
  36.6403866  64.2462206  33.7943888   1.4855948  75.7517052  39.5257378
   2.0604528  75.2117348  40.0681400   1.0732691  76.3567019  40.1423454
  15.6195390  41.8261337  59.5893383  15.2403271  41.5694094  60.4298878
  14.9190223  41.6757154  58.9546108  11.3105953  22.0176911  20.8872294
  11.0350800  21.5494061  21.6752863  11.8142223  21.3735199  20.3895998
  32.9132748  42.8770161  19.0947616  32.0432639  43.2705069  19.1616964
  32.9684234  42.2882795  19.8474729  12.4406219  30.4418802  51.2940741
  12.7741838  31.1180687  51.8837690  11.5468383  30.2802753  51.5961790
  68.6650896  15.5961740  46.8196392  69.0884066  16.3578033  47.2158146
  69.1315985  14.8451054  47.1863794  57.0679569  60.4808521  28.5002756
  56.7001820  59.7500992  28.0033088  56.4458704  60.6223726  29.2138672
  30.8769560  38.8565350  62.2502136  31.7898774  38.6154699  62.0930672
  30.4508448  38.7481403  61.3999701  48.7529707   1.0059463  11.8033314
  48.0413866   0.5180110  12.2178197  48.3148384   1.5848003  11.1794698
  74.6990395  20.5661988  60.9560633  74.1276264  20.8042479  61.6861677
  74.9577951  19.6629870  61.1390591  31.8462658  11.8971431  56.7041874
  32.4758506  12.4120748  56.1995077  32.3443794  11.1367226  57.0039845
  33.1608868  59.7720861  32.1908045  32.5271249  59.2288637  32.6592946
  33.3607554  59.2762089  31.3968349   4.8910013  27.1906781   5.5931944
   5.5992919  26.5818214   5.8025950   5.1224893  27.9957819   6.0562867
  22.0602632  38.6685920  59.4412088  21.9785237  39.3371081  58.7610388
  21.7152667  39.0863395  60.2303219  79.5205927  51.6351986  39.6546555
  79.5382071  51.9986725  40.5399847  80.4306698  51.3997221  39.4742703
  16.2761986  51.5915060  39.8987865  15.6725442  50.9264565  40.2297544
  16.6085827  52.0255518  40.6845093  63.6320114  59.6435976  49.4515419
  63.3803463  58.7950039  49.8159409  64.2883110  59.9809313  50.0612211
  39.7114277  29.5003748  52.4243736  39.7968936  30.3148818  52.9198599
  39.3014908  29.7632217  51.6003036  43.6024094  37.0326686  53.1962681
  43.6789274  36.3327312  52.5478363  44.2091131  36.7813778  53.8926792
  24.3488479  34.4025660  60.2201128  23.8032341  34.1203117  59.4860363
  24.7918105  33.6050224  60.5098438  33.4285760  70.8547688  10.5233443
  34.2693710  70.7411146  10.9664905  33.1150961  69.9630976  10.3720760
  19.0275002  33.7870264  36.0266137  19.2611885  34.1393137  35.1678276
  18.5227168  32.9973102  35.8322620   4.7224981  57.8320551  54.9452305
   4.0646905  58.0219698  54.2763138   5.0193387  58.6928511  55.2404451
  25.9529471  19.4818223  54.4127274  26.2652302  19.6451926  55.3026819
  25.4291248  20.2534580  54.1972733  73.4877110   6.3717061  24.4506693
  74.0918446   6.5638018  25.1678562  72.6821756   6.0908413  24.8847890
  19.6375883  66.7972136  52.0955658  20.5275822  66.9549561  51.7805147
  19.3260431  66.0581446  51.5731239   3.8554150  67.1797800  51.5750170
   4.3601540  66.6953421  52.2283077   3.2493383  67.7139235  52.0884323
  27.5349331  34.5797682  46.3746023  28.1957412  33.9107013  46.1959696
  26.7224526  34.2130995  46.0258055  21.4032674  10.7043445  50.6133509
  21.8383646  10.5376518  51.4494944  22.0429444  11.2038600  50.1058769
  79.0587950  60.7838631  49.7870731  79.7692251  60.7076311  50.4240274
  78.3631229  61.2426901  50.2579784  82.0632362  74.1550684  61.1332464
  82.0792294  75.1044893  61.0125303  81.1394405  73.9469099  61.2729025
  60.6634760  46.6377163   0.7163146  59.9591255  47.2858715   0.7209496
  60.7271194  46.3597012  -0.1974073  10.6882799  46.5490198  55.6297541
  10.0001347  46.3468122  54.9958754  11.1278677  45.7123137  55.7811213
  80.5290031  49.0102816  32.4263310  81.3426304  48.6250353  32.7516413
  80.7879925  49.8680830  32.0896745  24.4122839   0.1416781  19.6052718
  24.2664790   1.0784455  19.4732130  24.7001338  -0.1787592  18.7504649
  81.8882942  18.2989562   3.9326692  81.7032242  17.3655498   4.0362811
  82.5621319  18.4836006   4.5869395  31.0792089   3.8615412  31.9913721
  30.7165670   3.2185730  32.6007295  31.0628009   4.6867615  32.4761152
  57.4722672  48.8271236  14.8422325  56.6910601  48.6646891  15.3709662
  58.1513882  48.2867765  15.2460265  66.0357285  50.8852339  24.0016651
  65.2458429  51.3060284  23.6621881  65.8800125  50.8074617  24.9429083
  47.4718142  56.1035347   1.9853948  47.5586891  56.6502476   2.7662858
  48.2252884  56.3381910   1.4436942  28.5986161  32.5681758   0.8623111
  28.6044812  32.6471925   1.8162262  27.9097009  33.1681323   0.5765150
   6.4924550  31.3158846  35.1383257   6.1095732  30.4802251  34.8712921
   5.8001482  31.9578195  34.9806428  42.3168373  75.6843758  37.2384381
  42.6066828  75.3016138  36.4103580  41.7995691  76.4476633  36.9814277
  67.6287413  59.9725580  60.3533363  67.6413107  60.1827574  59.4195890
  67.9094934  59.0584946  60.3968763   0.9996033  17.0010030  47.2364902
   1.3749893  16.1317289  47.3767757   0.4584670  16.9045901  46.4528418
  44.6380329  25.3073978  22.9609418  43.9932108  25.5454421  23.6271000
  44.1165590  25.1064777  22.1838117  30.8832908  68.0339432  32.1803951
  31.4830089  68.0782318  32.9251170  30.8518648  67.1046495  31.9531226
  59.8851681  45.6911421  10.8386242  60.7031345  45.2218390  11.0026848
  59.2032385  45.0275803  10.9429765  25.2425337  27.5314307  49.6947336
  24.7519422  28.3315301  49.5066118  25.6108260  27.2721243  48.8501310
  72.5000620  51.4591742  37.8588510  72.0181084  52.2565651  38.0782270
  73.3315802  51.5460062  38.3249760  27.9628944  70.9058905  38.1634498
  27.5592089  70.3948736  38.8649726  27.3824763  71.6586876  38.0510163
  70.3915310  22.8216720  29.3080950  70.8279371  22.0995951  29.7601891
  70.9420156  23.5839915  29.4871759  50.8355951  28.5331988  53.5048294
  51.7803144  28.6850595  53.5308552  50.5559635  28.9063501  52.6688910
  56.3470411  38.3797145  17.6665771  56.0930157  39.2996383  17.5928009
  57.2935343  38.3804107  17.5238109  29.5397234  60.9294462  53.4528399
  30.3749609  61.1593294  53.8599825  29.1308141  61.7715549  53.2531261
  18.1110835  26.3880706  47.2511101  18.1836224  27.1936798  47.7629328
  18.3190298  25.6901193  47.8722858  76.9259214  18.1827867  58.9219666
  76.0403490  18.5420537  58.8679314  77.0950985  17.8302515  58.0482817
  64.0207338  12.5237703  45.6950045  64.4636011  13.1798589  46.2331915
  64.7256994  12.1002090  45.2052593   4.9129659  40.5354023  46.6871119
   5.1281196  39.9638939  45.9500074   4.6928474  41.3747740  46.2830877
  71.7472982  51.2381744  42.0081234  72.5038862  50.6794167  41.8303442
  71.0963964  50.6468487  42.3861313  59.7550106   0.2966931  10.6023467
  59.4087267  -0.1627583  11.3673460  59.1738939   1.0491984  10.4915595
   8.8492435  37.1962976  59.1688108   8.0698162  37.4438143  59.6662664
   8.9030534  36.2454987  59.2653370  25.4008341  74.0803051   3.7058195
  24.7221899  74.5577049   3.2285720  26.2223792  74.4732094   3.4109998
  25.9311169  59.0121353  67.3863494  25.5565041  58.1527126  67.5794403
  25.1750630  59.5626843  67.1826233  20.5971169  62.1564484  54.4853878
  19.9158490  61.8378401  53.8932800  20.1918578  62.8935242  54.9422455
  14.7734547  70.5414248  63.6190319  14.8615658  71.4675665  63.3937883
  15.6543982  70.1834249  63.5094690  38.6029887   1.9543296  66.1744308
  38.5914612   1.3089688  65.4676008  39.0807223   1.5242431  66.8836784
  60.7402039  30.4814386  48.1520224  61.1527443  29.7384930  47.7114868
  61.3709688  31.1953902  48.0590630  14.6776032  77.9921436  50.5088139
  14.8041797  77.0805836  50.7719994  14.5146573  77.9489803  49.5665741
  31.8922520  23.8002777  63.2676983  32.3663425  23.3317137  62.5807333
  32.3862743  23.6176205  64.0669537  57.4414492   4.6643165  50.8714485
  56.7152643   5.2493560  50.6555510  58.2213068   5.1277214  50.5659771
  51.5590382   1.8729146  46.8512630  51.5135574   2.6606032  47.3932123
  51.9434357   1.2096676  47.4244785  77.1807241   3.1807947  16.3196313
  77.7953529   2.7424917  15.7311094  77.3974133   4.1100270  16.2434328
  18.3164942  10.0568497  49.5272350  17.8005731  10.0726080  48.7211275
  19.1393757   9.6368891  49.2767715  57.8894091   9.1552860  42.1121740
  57.4138880   8.3920795  41.7841101  57.9973078   8.9861369  43.0481100
  12.9964566  46.9632816   1.8200412  12.4121177  47.3083210   2.4951163
  13.0000293  47.6363850   1.1394913  63.9554787  36.8965888  51.4335012
  64.4423676  37.5390863  51.9496107  64.1386652  37.1316314  50.5238724
  71.3457108  38.8306904  62.7119589  71.7244482  38.5306811  61.8856525
  71.8372059  38.3604646  63.3854198  73.1156731  12.7288711  43.9520931
  73.3113480  13.5521615  43.5047245  73.8672781  12.1678472  43.7608528
  41.5030384  52.3442650  30.4048395  41.8202639  53.2410622  30.2982879
  41.3447046  52.0385122  29.5117116  23.4217834  77.5102520  50.7337904
  23.7742901  76.7523575  50.2673578  22.6413178  77.1771669  51.1766958
  16.1064553  76.4950132  66.7063141  16.3532817  76.2944889  67.6091385
  16.8722713  76.9384956  66.3415098  34.2664099   6.8808216  57.9520035
  34.3307424   7.0364910  57.0097399  34.9966526   7.3734546  58.3265543
   9.6579999  30.3014874  10.1292360  10.0529075  29.9384952   9.3364465
   9.0395850  29.6302390  10.4177141  29.5330119  66.5803862  24.3358707
  30.0482273  66.3388681  25.1055813  29.1558385  65.7549620  24.0314841
  74.3795252   4.8267382  45.3258228  74.4936562   3.8855660  45.4577398
  74.9385929   5.2311099  45.9892702  46.8924141  65.7182503  51.6321850
  46.4233780  66.3341141  51.0692072  47.5722218  65.3486538  51.0687208
  73.6493587   0.6820072  46.9098568  73.1760454   1.2194374  46.2747383
  74.5727348   0.8165494  46.6965485  19.3179166  72.3755884  48.1130409
  20.0395393  72.2449732  47.4978781  18.5367894  72.4144363  47.5611687
  20.2942944  37.3697376  36.7234588  20.7623386  37.9637408  36.1366653
  19.6341944  36.9551301  36.1679387   8.2271570  35.4602146  19.8759735
   8.8748133  34.7602367  19.7934914   7.5592244  35.2465034  19.2244947
   8.5074759  59.5303869  28.9628577   8.1321043  60.2166510  29.5145583
   7.8369212  59.3616533  28.3009553  69.4680643  55.4867363  15.8805728
  69.4876242  56.2890148  16.4022994  69.4981813  54.7805166  16.5259993
  73.6932755   1.4893453   1.2419484  72.7724028   1.6361506   1.0259157
  73.7646294   0.5415183   1.3549300  65.5488777  15.5888915  66.1391115
  64.8000479  16.0804141  66.4765835  65.7539177  14.9598789  66.8308735
   7.4129808  70.4180861  44.3595457   7.5541615  70.4833698  45.3040218
   6.8353122  69.6619844  44.2554188  56.8453360  12.3253715  16.8297577
  56.6740227  11.8922055  15.9935451  55.9849072  12.3972726  17.2429478
  75.1729250  42.3877668   6.6478240  75.1315117  43.3419991   6.5849024
  74.5043373  42.1611166   7.2942370  59.3845272   8.5876375  39.4165015
  58.7487698   9.3021888  39.3783188  59.0760088   8.0304754  40.1310778
  72.0267105  25.8322358  14.2750263  72.8515482  26.1757302  13.9316857
  72.2622061  25.4394555  15.1155603  78.5980892  56.9625616  13.1539857
  77.9383564  56.7504740  13.8142931  78.1625175  56.7959452  12.3180747
  32.8471684   0.1673027  57.5773954  33.1679153   0.6749898  56.8320036
  32.7216077   0.8142682  58.2715845  73.2376862  34.7281837  64.5339775
  73.5044146  35.5721474  64.1695452  72.5187063  34.4407630  63.9712286
  73.0824995  42.6636934  64.9117088  73.6031342  42.0879698  65.4718065
  72.1856594  42.5604534  65.2299070  36.9213963   4.4019350  60.2195072
  37.4149823   5.1860011  59.9789953  36.4072585   4.1938886  59.4393730
  36.8954754   3.2943025  43.9933777  36.8072081   3.0986923  44.9262094
  36.4087772   4.1096249  43.8725233  23.9227915  43.5407782  44.6818018
  23.8210011  42.5906324  44.6262312  23.2553101  43.8881779  44.0901804
  20.0571394  70.1992655  66.2307072  20.2552867  69.6904612  65.4445219
  20.1980352  71.1091423  65.9689760   6.4190578  55.9568310  39.9413204
   5.7861632  55.2585030  39.7739482   6.2205768  56.2520266  40.8299685
  25.1920676  71.2044001  35.6598282  24.5109153  71.6705036  35.1750493
  24.7121453  70.5991554  36.2251496  26.6478086  60.7379961  54.3570089
  27.4947381  60.6616640  53.9175606  26.8381619  60.5557919  55.2772284
  21.4462161  74.9717474  29.3813205  21.9469857  74.3526316  28.8501334
  20.5968642  75.0304079  28.9438343  21.6747165  63.5556602  26.6458082
  20.7743406  63.2547140  26.5233946  21.6080379  64.2505503  27.3007202
  67.1004105  76.5348196  12.0665348  66.8416977  75.9545374  11.3505936
  66.2812996  76.9348907  12.3584867  29.0845823   4.2715436  23.5222340
  28.3031487   4.7059104  23.8641691  29.5380378   3.9470538  24.3002558
  59.5253277  12.7516699  19.6554315  59.6590567  11.8097281  19.7607648
  59.5891905  12.8985989  18.7117350  68.2336426  39.5893359  42.3282766
  67.8092384  38.7338567  42.3936319  68.0009174  40.0350094  43.1428003
  33.6311221  40.5373621  61.4623928  32.7685094  40.9408569  61.3658285
  33.6146998  40.1427317  62.3343039  66.8383789  49.2043066  62.2588921
  66.6250896  48.7787247  61.4284611  67.0747375  48.4840631  62.8433752
  35.0223970   1.0638171  60.5769157  34.5963335   1.7967927  61.0212660
  34.8285794   0.3048623  61.1270523  65.8587599  22.5357008  11.7357600
  64.9514675  22.3340535  11.5068674  66.3698053  21.8370366  11.3271832
  81.5660572  53.0350351  62.9515886  80.9725380  52.8450680  62.2250414
  80.9987354  53.0685854  63.7218189  24.8477149  71.4030027  19.7442055
  25.6764555  71.3528109  19.2678642  24.2968678  71.9725180  19.2071283
  46.5874720  -0.1673467  56.6500092  45.8126736   0.2385828  56.2612438
  46.7821407   0.3728827  57.4158382  53.3284044  69.8113966  31.9124866
  54.1224003  70.2453995  32.2246432  53.6032486  68.9133549  31.7275262
  25.2264547  54.8043537  48.0722189  25.7602954  55.1476479  47.3556995
  24.3542886  55.1664495  47.9158592  60.6804037  38.3550549   3.5077024
  61.0718107  38.5081387   4.3677005  61.3259459  38.6932492   2.8871149
  73.3856821  65.9250641  51.7960596  74.1528511  65.5486012  52.2272778
  73.7462044  66.4510393  51.0821915  79.8254681  42.1301079  48.9368391
  79.4519234  41.7808962  49.7460032  79.8059654  43.0798626  49.0543890
   4.8092920  41.1275625   2.3687644   5.5509281  40.9723806   1.7838489
   4.8131126  42.0735836   2.5145772  17.6231337  66.9229841  48.5545826
  17.7404046  65.9984159  48.7728882  17.8432381  67.3892784  49.3610287
  27.6482701  75.3881979  40.6434441  27.6995158  75.2777386  41.5928650
  26.7737699  75.0747633  40.4127026  13.8388753  55.3448248  37.4535728
  13.3615649  54.5233011  37.5697851  13.9154959  55.4451561  36.5047336
  53.3484840  25.0290895   4.0167698  53.2792997  24.1712451   4.4357541
  54.0578508  25.4682899   4.4859529  54.5526791  69.9135017  54.5316839
  53.8338089  69.6567392  55.1092100  55.3436041  69.7406626  55.0423670
  25.9673309  76.7018700  42.8214025  25.9784222  77.2493553  43.6064959
  25.8641934  77.3212385  42.0989227  48.5021257   1.7454712  43.2412529
  48.8795948   2.1171832  42.4440241  47.5769901   1.6178782  43.0313063
  68.6083746   9.8199797  58.5934258  68.0709648  10.3853250  58.0386162
  68.6534023  10.2798939  59.4316864   0.6192048  56.4961624  28.1498289
   0.1515706  55.8553553  28.6854696  -0.0654666  57.0786238  27.8208947
  54.0985918   7.9389614  51.7923546  53.7875843   7.9138315  52.6972723
  54.9953747   8.2674676  51.8563414  67.3126173  34.9719501   5.6557393
  66.4449787  34.7788024   6.0108840  67.6291895  34.1308761   5.3261781
  62.4696493  28.6181164  18.9723110  62.1839333  27.7139521  18.8415980
  62.8321123  28.8795137  18.1258321   8.6941457   2.5252199  36.3033962
   8.6905241   1.5977858  36.0665727   9.4368428   2.6171207  36.9002104
   3.0722955  42.4408007  54.9059677   3.3714345  42.8746891  55.7050228
   2.7660164  43.1543493  54.3462563  18.2871211  15.6065178  50.8290672
  17.7038908  15.7646692  50.0867271  17.7356482  15.7409155  51.5998077
  16.5609968  73.3962584  15.0310314  15.6155753  73.3345556  15.1674247
  16.7761993  74.3024492  15.2518117  49.7031593  13.4511948  46.7036915
  50.3670645  13.1145108  46.1019421  49.9389791  14.3701553  46.8306971
   1.0341150  16.8142033  41.7418385   0.6359683  17.6685059  41.9088078
   1.4859040  16.9200242  40.9046316   4.0920866  53.8339472  44.2441416
   4.1506246  54.0950966  43.3251190   4.6289733  54.4750309  44.7099733
  77.4966240   3.0962312  42.4219418  77.5905466   2.7216497  41.5460968
  77.4338102   4.0397531  42.2734356  76.2553978  58.3269835  28.8706255
  76.7717075  58.3720398  28.0658722  76.8040276  57.8329182  29.4798350
  33.7333584  14.8913765  64.6154976  32.9110146  14.4757104  64.8747301
  33.9503527  14.4891143  63.7744665  51.6961432  64.4784546  58.0738211
  51.1847448  65.1986408  57.7049875  52.5433874  64.8702574  58.2857180
   4.1366881  47.3770189  30.8935666   4.6813321  46.6067266  30.7315707
   4.3491361  47.9754829  30.1773691   5.2761561  58.3376884  41.6714525
   5.4442191  58.3892870  40.7305336   5.3185982  59.2453337  41.9724655
  13.9146566  73.5647440  42.9423141  12.9660225  73.6738205  42.8757763
  14.0741932  72.6689863  42.6450014  58.6537123  49.3762064  47.1617126
  59.1845942  49.9536037  46.6130781  57.7979755  49.3587542  46.7331839
   4.3440053  17.4079251  56.3103104   4.6978462  17.0628178  55.4905987
   3.3987588  17.2758210  56.2375832   3.6851358  56.2892675   0.4837819
   3.8375789  56.7913485   1.2843502   3.9957035  55.4078913   0.6910308
  13.7116349  75.3069639  49.9979305  13.0277371  74.8771906  49.4843054
  14.5264208  74.9068356  49.6941996  17.2531235  34.5707560  11.6774917
  18.1813848  34.5121622  11.4513779  17.2447836  34.9340630  12.5630260
   7.7302068  66.0810471  40.0279856   6.7794335  65.9744501  40.0579834
   7.8886622  66.9329309  40.4346991   3.1194025  71.2007284  58.2182455
   3.4618488  71.4032030  59.0888596   3.5137945  70.3573704  57.9959154
  55.1325655  23.4612346  59.3877506  55.3760624  22.5890446  59.6979475
  54.2924261  23.3329177  58.9473677  37.5339341  72.4961662  42.8604889
  37.8363514  73.3479404  42.5454378  36.9080544  72.2040987  42.1977663
  46.8944359  71.5203190  38.2321286  46.3533115  71.8530750  37.5161076
  47.7720547  71.8526411  38.0435038  63.3138132  22.4241400  11.0814476
  62.7433968  22.1688294  10.3564143  63.0221462  23.3048677  11.3169897
  63.0365992  57.2465372  25.6760120  63.5346794  57.8760099  26.1974597
  62.3754835  56.9061422  26.2787485  34.1697717  71.2379456  56.5853310
  35.0190663  70.8334732  56.7623425  33.6564302  70.5450439  56.1698818
  41.6510820  18.3206558  53.5888147  42.4350119  18.6832535  53.1762552
  41.4353704  18.9439785  54.2824793  60.7264137  10.7893622   9.0453702
  60.4113102  11.0814190   9.9007314  60.1178169  10.0961518   8.7898326
  67.3693752  37.4502945   1.2175816  66.9334888  36.5997005   1.2697491
  67.7730417  37.5657248   2.0777926  75.3789663  45.9993505  50.1540852
  74.6300650  45.4033518  50.1667166  75.1176453  46.6997099  49.5562172
  59.0846586  30.7939649   7.6184505  58.5544205  30.2232528   8.1746596
  58.6924791  30.7127452   6.7490643   9.5877695   0.1398370   0.6931359
   9.4898677   1.0880541   0.6063525  10.5225003   0.0091618   0.8526187
  22.3527527  26.0738349  25.4182100  22.4596405  25.9160256  26.3562417
  23.1423116  25.7054234  25.0218534  42.0688868  65.5697012  28.9043713
  42.0356464  65.7465935  29.8444963  41.1540365  65.4459429  28.6514497
  41.3485575   5.1728547  61.5059328  40.8483315   4.4568545  61.1143398
  41.8247747   4.7648320  62.2290993  42.7457190   0.7732302  38.1286430
  41.9961739   1.3673434  38.0906057  42.5926495   0.1488241  37.4194765
  16.8699253   6.3996750  49.5917177  16.4667213   7.2058874  49.2697239
  17.4936497   6.1543119  48.9083481  68.2600069  64.8242807   2.2252388
  68.7748289  64.9551535   3.0215201  67.7895880  64.0044355   2.3762096
   3.6758876  43.9262152  47.5919914   3.0458432  43.5905361  48.2296419
   3.5250691  44.8713923  47.5810051   1.7596318  43.7223673   1.6567530
   1.5529509  42.8283072   1.3844110   1.6663678  44.2433071   0.8591614
  16.2564313  40.4536819  34.9164128  17.1956003  40.6382418  34.9279332
  15.9101689  41.0167313  34.2240882  22.9583383  73.0463362  50.6494761
  22.4922967  72.5142860  50.0045252  22.9340363  72.5254726  51.4521885
  19.4632399   0.7701083  37.0514631  20.1744604   0.4149011  37.5845909
  18.6686122   0.3966529  37.4326873  10.0402427  67.8965807  30.8463120
  10.9394622  67.8170395  31.1646056  10.1007652  68.5001802  30.1058817
  44.6587038  29.2443442  49.7212172  44.7891283  28.4069562  50.1661873
  44.7786617  29.9012351  50.4070282  16.0368872  59.9708080  46.7866468
  15.3375375  60.3003263  46.2222338  16.6959870  60.6649208  46.7814064
  33.8982630  51.7791462  17.1237135  33.9896727  52.4266958  17.8226817
  33.3745646  52.2206974  16.4551318  77.5454617  42.4202538  67.0490408
  76.7457867  42.9455042  67.0196104  78.0997992  42.8637171  67.6911354
  34.8131657  72.3362589  18.9823294  34.6168709  71.4709330  18.6232841
  35.0731659  72.8574085  18.2227027  80.5155849  42.5501442  11.1275375
  81.1938763  42.2178173  10.5395615  80.9736443  43.1693125  11.6959083
  45.7862711  12.5215733  58.3893156  46.4673281  12.3699462  57.7340269
  45.2002621  13.1597686  57.9824543  75.0066471   6.3270485  42.8318834
  74.3918800   7.0593661  42.8766680  74.6020842   5.6418341  43.3639050
  10.4138422  71.7196846  17.4149704  10.9367728  72.3456240  17.9159451
   9.9890226  71.1768007  18.0790782  28.4360933  55.4385424  51.4260387
  28.8425207  54.8617506  50.7792282  27.5169063  55.4835367  51.1627817
  33.5023856  38.2823396  29.9382091  32.9202223  38.8764405  29.4645405
  33.8758063  38.8194752  30.6369734  36.3999915  25.2875185  39.2593527
  35.5490780  25.7246733  39.2266297  36.7515683  25.5119085  40.1209068
   0.2461560  64.5549917  62.5169086   0.3990777  64.6312189  61.5750837
  -0.3563754  65.2703762  62.7204037  58.6334085   0.7549564  32.8237009
  57.7334166   1.0809140  32.8252363  59.1128016   1.3778251  32.2773981
  70.0743055  62.8926563  62.8761196  70.2492666  63.1287098  61.9651318
  70.9066439  63.0390549  63.3255768  65.0240755  17.0157194  14.7608936
  64.3712997  17.4288356  15.3260934  65.7871294  16.8936634  15.3257668
  71.7162815   0.0594638  15.8859956  71.1056343  -0.0536658  16.6143811
  72.4968687   0.4434847  16.2852991  33.3029580  66.6090631  34.5624113
  33.8121796  67.1002340  33.9176798  32.6917768  67.2508001  34.9241686
  21.0779285  33.7482762  32.9954839  21.3988757  34.6469474  32.9205418
  20.1791167  33.7869000  32.6685667   1.5905656  50.2504635  50.5529356
   2.5114521  50.2054739  50.2956915   1.5004161  51.1064577  50.9717274
  80.9024715  54.1352034  34.4811368  80.6867313  54.7690105  35.1652241
  80.8001137  53.2824850  34.9037695  62.1840954  24.7419572  12.4006820
  62.2051573  24.3986726  13.2939601  62.1641827  25.6927013  12.5098681
  46.4709377  58.6546755  19.0660655  45.7273149  58.2172203  19.4806671
  47.1769285  58.5879946  19.7089970  47.4650240  66.3430071  63.7929773
  47.3439026  65.4893064  64.2086220  47.7559471  66.1376953  62.9044724
  50.6013060  15.1468945  39.0447569  50.2070093  14.2968321  38.8494158
  50.4838467  15.6554556  38.2423830  81.5448189  77.5711966  14.9628925
  80.8862209  77.0289183  15.3969574  82.0362759  76.9588614  14.4154000
  32.5207591  35.2658772  15.8228517  32.1858954  34.8423505  15.0324583
  33.0219316  36.0145140  15.4994297  18.8340878  17.3090589  54.0983915
  18.0892193  16.8026447  53.7744331  19.4654250  16.6494095  54.3856335
  66.6382456  25.1015615  36.2839079  66.6404724  24.3415594  35.7019949
  65.7348442  25.1629281  36.5942812  68.1639671  20.4198456   3.4849024
  67.2839737  20.0459099   3.4400406  68.6038542  20.0918412   2.7005911
  52.4656582  51.2117529  35.8690238  53.0899906  50.5048895  35.7053685
  51.9901943  50.9347963  36.6522646  33.3599186  66.7228699  50.2242851
  34.2448139  67.0777130  50.1389790  32.7877045  67.4350786  49.9387026
  13.8759470   3.4601036  42.0750332  13.6467040   2.7730003  42.7007866
  14.7396100   3.7619367  42.3564816   4.6140569  68.5213423  65.5497169
   3.9546213  68.6181879  64.8626995   4.1356277  68.6753368  66.3643503
  42.6732302  64.6297407  65.9246063  42.9632902  64.3775082  66.8012333
  42.0778322  63.9290857  65.6584883  50.5648088   3.8727242  55.4504776
  49.7583961   3.9207369  54.9370337  50.3190374   4.2045566  56.3140297
  12.2933960  40.0951099  40.6922054  12.6739478  40.1137733  41.5703058
  12.6474667  39.2996454  40.2945805  27.2496700  50.3580952  65.6531239
  26.5780687  50.4672289  64.9798632  27.6129222  49.4876194  65.4901838
  46.5472031   9.7714382  35.4462194  47.1819496   9.0692663  35.3038049
  46.9809055  10.5573916  35.1139379   3.5962304  43.2558107  22.0492530
   2.8984505  43.7479830  21.6167021   4.2356727  43.0881596  21.3569832
   9.8823553  61.5511608  59.1756201   9.4431198  62.3010111  59.5769072
  10.4796898  61.2330532  59.8525476   5.3881663  62.4656677  66.0747290
   4.6796370  62.4481201  66.7180872   6.0708845  62.9967213  66.4847374
  51.3553905  71.0820627  54.0131378  50.8884239  71.8757391  53.7518883
  51.6317797  70.6840897  53.1876326  27.1236229  36.9164395  33.3456659
  27.7978921  36.9436908  32.6668072  27.0294189  35.9866095  33.5524893
  71.6687346  45.1066017   2.8703091  70.8240366  45.3706789   2.5056401
  71.8719530  45.7820415   3.5173896  48.2615995   7.4298859  52.1540403
  47.5118828   7.9569131  52.4304485  48.5439301   6.9791222  52.9498625
   6.6463226  47.4416351  27.7334619   6.4069551  47.1831465  26.8434501
   5.8395159  47.7991915  28.1041980  81.5574265   3.0772868  52.1533537
  81.4222527   2.8547245  51.2322521  81.6621590   2.2324692  52.5910139
  57.0642900  16.8900013  49.9664259  56.6121578  17.7336156  49.9774504
  57.9874420  17.1114028  50.0888968   4.3464503  41.5158176  63.9365721
   3.9559758  42.3481274  64.2030716   3.5980260  40.9466219  63.7573814
  58.1284904  72.7244186  50.0733709  58.8860893  72.8946590  50.6330967
  58.0859852  71.7701674  50.0115395  47.2080040  11.0114610   4.7381857
  46.8340683  11.8146980   5.1004189  46.8855906  10.9821701   3.8373953
  48.8717651   4.4201195  14.6610463  49.0921164   3.4886909  14.6501386
  49.4367886   4.7919941  15.3383136   7.6336807  75.0283098  33.4763861
   7.3654842  74.4043303  32.8018808   6.9108683  75.6539440  33.5249186
  68.2423115  28.2006192  31.7354751  67.3591137  27.8324223  31.7604327
  68.8202095  27.4435234  31.8307042  79.7912169  30.0750685   0.4212622
  80.4600239  30.7591200   0.4528931  78.9733744  30.5302668   0.6216649
  74.9877214  58.1319666  50.4009914  74.4966507  57.4150181  49.9996614
  74.4244671  58.8982582  50.2925253  44.8324633  55.8871555   7.9897827
  45.5974293  56.2389708   8.4450722  45.0556564  54.9723005   7.8181720
  34.0315771  71.3923073  62.0893574  33.9921880  70.8243561  62.8588438
  34.9619460  71.5927124  61.9869566  67.4036694  40.9294319  12.3390841
  67.0183754  40.5300283  13.1189930  68.1802702  41.3860035  12.6626015
  45.3749084  71.0447264  29.5512652  45.6790829  70.6219339  28.7481737
  44.5455313  70.6106520  29.7511268  76.3221931  49.5494986  56.9969225
  76.7289543  49.6050024  56.1322308  76.1595345  50.4598475  57.2439766
   2.1060961  23.9990258   6.9411832   1.7906941  23.6561203   7.7773470
   3.0583844  24.0214372   7.0353973  11.6226959  57.7036476  58.0093193
  11.9232833  58.5581779  57.7000380  11.0059178  57.9068327  58.7125492
  14.3094385  33.0826139  21.4839363  14.2428446  33.6956453  20.7518244
  13.4066868  32.8135967  21.6539407  69.2004967  34.6234107  50.9142828
  69.8188162  34.4010139  50.2182531  69.3879032  35.5398655  51.1173201
  18.4593081   2.9417214  54.8255301  17.8093946   3.6444554  54.8224545
  18.5763836   2.7197137  53.9018202  46.5189362  61.4725924  52.8920031
  47.0640373  61.4286661  52.1064043  46.3273430  60.5585766  53.1019926
  18.8618970  22.3927736  61.3537359  18.3948886  23.1182837  61.7681885
  19.0264022  22.6932573  60.4599333  69.8769140  19.3696082  28.2264686
  70.4536247  19.9177182  28.7586427  69.1330194  19.1791821  28.7979507
   0.7640100   9.4651842  24.1527057   0.6079167  10.4047155  24.0570664
   1.5602422   9.4072109  24.6808028  39.2930746  72.2088909  47.2818041
  40.0484133  72.1251011  47.8637600  38.6632371  72.7295017  47.7803040
  49.6343899   2.0934287  50.9458208  50.5545807   2.2546783  51.1543417
  49.4857931   1.1841216  51.2052631  17.8911436  11.1371374  36.2112069
  17.9606247  10.8712256  37.1281028  17.3747075  10.4443669  35.7993889
  38.3630633  43.7253046  62.8389120  38.9234543  44.4004345  63.2215214
  38.9647484  43.0181408  62.6062727  60.6447840  44.4303036   2.7170262
  60.9867620  45.3171015   2.6035494  60.9680605  44.1569662   3.5755184
  22.1475816  28.0171680  42.3576498  22.9840589  28.1412029  41.9091511
  21.8209529  28.9047503  42.5051117  59.4573259  65.8864880  39.1962171
  60.0868177  65.9391689  39.9153805  59.9723196  66.0786247  38.4125757
   1.7483176  53.1829214   9.3418825   1.0453426  52.8283024   9.8862213
   2.5265568  52.6922369   9.6060866  53.8155985   1.0128240  32.2637415
  54.0831280   1.7383315  31.6995645  53.9666653   1.3327526  33.1531549
  69.9844980  51.7555952  11.2727189  70.1443291  51.6452503  12.2100079
  69.7575283  52.6804209  11.1757004  19.5819724  67.1575356  57.2532701
  19.9831474  66.2937307  57.3488379  19.3224263  67.2005796  56.3329363
  62.6174164  27.7215457  26.6147041  62.5669289  27.0799851  25.9061265
  61.8783092  28.3094192  26.4586449  11.6345978   0.9625798  60.9375429
  11.4613199   1.7143786  60.3709650  12.1931815   1.3102973  61.6327429
  10.8760202  40.4805374  60.3069305  10.3994524  39.9087667  60.9087563
  10.3356242  41.2682867  60.2464724  61.5369511  36.8406534  10.3778875
  61.7401695  37.0423913   9.4645214  60.5832815  36.9036198  10.4306173
  21.7545319  76.4774942  39.9344468  22.1734619  77.3373556  39.9713969
  22.0453072  76.0349369  40.7318354  23.0736494  74.4547415  56.4163828
  22.4664235  75.1078272  56.7642164  23.4628367  74.8742390  55.6490564
  65.8461332  16.4344156  35.4457712  65.7972956  15.9547174  36.2726545
  66.6794920  16.1635315  35.0605869   4.1687968  34.6122646  19.0080059
   3.4030536  34.2842436  19.4794619   3.8794696  34.6786714  18.0979991
  15.6292629  15.7166314  65.2821636  14.7437012  16.0437799  65.1240873
  15.6906450  15.6421578  66.2344837  19.7084892  12.5902545   0.6386307
  19.9543774  13.1016004   1.4095369  19.0284145  11.9946384   0.9532306
  25.6391883  65.0696659  54.7453070  25.7895112  65.5064631  53.9069510
  25.9970379  65.6725168  55.3970337  61.9162893  71.9769239  47.2833204
  62.0818996  72.8991795  47.0877409  61.7264795  71.9613504  48.2213831
  36.7911911   7.1385074  59.8482037  37.7045655   7.4238497  59.8245668
  36.4386559   7.5297064  60.6475210  17.2289360  37.3077464   1.5350060
  16.9066560  37.5190973   2.4111894  16.4378428  37.2228384   1.0028465
  20.4930815  77.0655594  53.7840843  20.0164065  77.5164192  54.4810343
  20.3675923  76.1352391  53.9711380  43.3106613  53.9621687  36.2752342
  43.5528040  53.1169033  35.8969140  42.9026175  54.4397640  35.5529928
  59.0810299  39.9585319  48.0861282  58.3195400  39.6733379  48.5911322
  59.1086197  40.9073400  48.2095814  53.7331438  23.6844277  42.0349741
  54.5666981  23.8990831  42.4537086  53.6230993  22.7459097  42.1876383
  82.4691486   2.9726514  41.6612864  81.7571640   2.7555215  42.2630835
  82.4230862   2.2990385  40.9827900  78.4791517  40.0563288   1.0284863
  77.9100180  39.5017600   0.4948492  79.3558359  39.9131489   0.6718979
   3.1159759   1.2234209  43.4538317   2.3700675   0.6457849  43.2920027
   3.3617228   1.5459055  42.5867414  77.7913284   3.4368876  55.9467793
  77.4201918   2.5913090  56.1987448  77.2380304   3.7358427  55.2251720
  67.9403067  58.8512897   9.2830437  67.4157333  59.4791412   9.7798884
  68.0026197  58.0859518   9.8545384  61.2167835  24.5262647  57.5856686
  61.2858677  24.6583533  58.5311890  60.2766037  24.5535922  57.4080706
  19.7683358  43.5440731  21.5837574  19.3710995  43.6166716  20.7159066
  20.4963207  42.9342747  21.4636970   2.4965967  31.0331249  42.7977896
   1.8398577  30.4575658  42.4057961   3.3199635  30.5533671  42.7076149
  60.0547266  10.7479775  43.7493324  59.4042349  10.5386114  44.4195986
  60.1192522   9.9521863  43.2213354  12.9917777  72.5654840  60.5011606
  13.5882425  72.4889994  59.7564363  13.0907631  71.7386818  60.9732056
  67.5093079  18.5058534  61.6658926  66.8588257  17.8036785  61.6731453
  68.1690454  18.2146823  61.0364437  38.5194802  34.3613935  60.0332546
  37.7397418  33.9727998  60.4297829  38.3496594  34.3313503  59.0917158
  60.5308390  21.2764978  67.0754290  60.6660843  21.5208220  67.9909849
  61.3289118  21.5622854  66.6308641  74.7429514  76.5656519  40.0436401
  74.8494768  77.4411201  40.4157257  75.3660774  76.0227251  40.5265284
  71.8999195  40.7343769  57.6776838  72.1231461  41.2810278  58.4310579
  71.6836691  41.3582993  56.9847250  64.6645975  65.2468681  28.9163637
  64.3103743  65.8974409  29.5225906  64.4539165  65.5892372  28.0476689
  80.0906944  34.0978885  13.1662762  79.4671202  34.7860098  13.3983898
  79.5531511  33.4100080  12.7737284  81.6857338  32.3586583   0.7061689
  82.4985218  32.0780897   1.1267558  81.7740536  33.3082128   0.6238263
  64.0365744  27.7184629  43.8313866  64.4867420  27.0762038  44.3800974
  64.5486307  27.7437377  43.0230618  32.3028231  21.3271856  64.4222307
  31.9750333  20.4295373  64.3673325  33.1893635  21.2374735  64.7718430
   7.6362258   0.5469067  58.1948471   6.8249643   0.3203385  58.6495495
   7.4721688   1.4171654  57.8315735  42.9660368  20.2796197  20.1954484
  42.6161194  20.0704718  21.0614991  43.7267256  20.8332419  20.3717732
  39.9995375  76.5865660  55.9283018  40.2187061  75.7269144  56.2877369
  40.8031988  76.8781424  55.4977846  39.1709495  42.4263096   4.1122115
  38.6313820  41.6362953   4.0809473  38.6574817  43.0856705   3.6454898
   5.1307869  57.1007824  27.0834136   5.2270889  56.4675856  26.3720608
   4.1930795  57.1043634  27.2755671  70.8678818  36.8389606  65.4159880
  71.2386465  35.9807682  65.2103901  71.4215088  37.1766067  66.1200666
  51.3908100  61.8970728  40.8434105  51.1013412  62.8072643  40.7802343
  51.7389011  61.6955996  39.9748063   5.2968097  22.2869611  58.4901190
   6.1929631  22.2973609  58.1539154   4.9103227  21.4945650  58.1173372
  56.7151928  74.3368244  26.0899520  57.0264578  73.9665222  25.2639842
  56.9364691  73.6767101  26.7468524  23.6047196  35.1420617  38.8203287
  22.8099871  35.0139451  38.3024335  24.0697312  34.3078971  38.7557864
  49.6864256  77.7257185  13.9494574  48.9908060  77.2212238  14.3711495
  50.1946482  77.0748186  13.4654379  78.5346222  12.3001611  13.6755943
  79.2891026  12.8890526  13.6896443  77.8301620  12.8036654  14.0835762
   6.1047977  76.7723322  51.9651508   5.3928322  76.6679239  52.5963688
   6.8960208  76.5563631  52.4586678  27.8481746  67.4835634  64.3859243
  28.6484146  68.0036640  64.4590187  27.8561616  66.9215775  65.1607418
  35.2098560  26.0754275   1.7305031  34.3951845  26.3332939   2.1618345
  35.0334167  25.1983833   1.3900694   2.4876352  68.8177633  54.4821644
   1.8954000  68.1385612  54.1594076   1.9955429  69.2538166  55.1778221
  74.0883112  17.9460430  60.5665827  73.9764643  17.3654771  61.3193512
  73.2000113  18.0878627  60.2394152  21.8991327   8.8940179  60.1356125
  21.6034722   9.5204669  59.4750214  21.4698482   8.0727297  59.8959589
  60.8953333  69.5744419  55.4420328  61.4266062  69.6876764  56.2301683
  60.5503750  68.6842728  55.5115700  38.4214258  77.6493931  32.5197864
  39.2442513  78.1309557  32.4344373  38.2263470  77.6726723  33.4566069
  64.1569853   1.0329187  40.3386164  64.3218136   1.9567290  40.5273962
  63.2246351   0.9946924  40.1253128  74.3414927  13.1108582  35.6614852
  73.9257956  12.3137248  35.9901237  73.8479280  13.8233280  36.0677004
  24.6112633  52.1653414  40.5644846  24.5147085  51.9412899  39.6388984
  25.3182125  51.5998077  40.8753252  35.5777264  36.1102009  62.7854300
  34.7887754  36.3659024  63.2633448  35.8887410  35.3264594  63.2384777
  74.8793507  12.0083964  48.1096554  75.4742527  12.7101290  48.3740330
  74.8660612  12.0531499  47.1535921  46.9473982  40.6089497   6.6390914
  46.6017914  39.7339797   6.4624196  46.9781828  40.6659794   7.5940949
  80.7746124  26.2526464   9.7910917  81.1248016  26.4510584   8.9226246
  80.0598621  26.8781710   9.9097836  27.5940681  75.6305599  55.3932619
  26.9726562  75.2444601  56.0105181  28.3024549  74.9895334  55.3340340
  12.6312995  67.8031349  31.9859481  12.7080905  68.2425833  32.8328347
  13.5062742  67.4535465  31.8173003  40.1496744  11.6011834  65.3227282
  39.6059465  10.9789789  65.8058977  39.5274186  12.1092618  64.8022652
  22.7241969  25.2198529  18.8320661  23.5916638  24.8904920  19.0671325
  22.8230500  26.1719155  18.8259363  29.0899372  20.6468844  20.4194427
  29.6378922  21.3487577  20.7706571  29.6915102  20.1073098  19.9064124
  49.8659372  53.3750677   7.1640497  50.5472755  52.7078104   7.2464150
  49.3968725  53.1408358   6.3632101  68.5519361   5.0459945  53.8423681
  67.8086567   5.1337177  54.4390869  68.4509516   5.7711458  53.2257748
  46.9246674   6.5986586  61.5261364  47.3748016   5.7588899  61.6177988
  47.4479389   7.0823884  60.8870554  61.4285707  52.4724197  13.5233605
  62.2548771  52.3359156  13.9868498  61.3065243  51.6732073  13.0109239
  68.4801769  52.9555464   0.5069735  68.2439709  52.1777487   1.0124172
  68.6741066  52.6221180  -0.3690693  18.9414239  67.6630211  54.5755720
  19.1239536  67.5748158  53.6400890  17.9954231  67.8010750  54.6230459
  76.6497135  75.0061369  48.9975214  75.9528828  74.4019842  49.2537642
  77.4163198  74.7094107  49.4879293  17.4987125  50.5462742   6.6645056
  17.5492823  51.2127972   5.9793603  16.8145263  50.8613539   7.2551382
  33.1116724  38.8441515  50.4479933  33.4087706  39.5626473  51.0063219
  32.9352546  38.1258655  51.0555887  30.0579715  65.4072618  32.0361423
  29.3502784  66.0476255  32.1091890  30.0375867  64.9319696  32.8667521
  19.4215286  74.8377800  43.0666876  19.4303465  74.1626215  42.3882246
  18.8685226  75.5314255  42.7071381   9.6236950  49.5257521  45.8967495
   9.2153883  50.1655149  46.4800310   9.1323858  49.5997620  45.0785971
  25.9495282  36.7811227  65.3400326  25.5861235  37.6651835  65.2889729
  25.9400606  36.4657116  64.4363403  70.7140923  43.1201696  33.5567951
  70.5041170  42.2044325  33.3735871  71.2926197  43.3812237  32.8402853
  50.2608871  30.1163912  51.2870741  50.0035667  29.4716334  50.6280518
  49.9135351  30.9458470  50.9590769  73.4595490  17.4874306  48.9758968
  74.3279028  17.1489930  48.7575865  73.5170460  17.7135503  49.9042273
  29.9600244  67.1296740  50.2419233  30.6770062  67.6116848  49.8298120
  29.2534256  67.7708054  50.3187752  65.6226444  73.8320446  31.1182451
  66.0221624  73.2789230  31.7895651  65.9535027  74.7108459  31.3039112
   3.8760334  21.7140174  12.4496424   3.6809528  21.1594939  11.6942072
   3.0548695  22.1720052  12.6289952  57.0375347  43.7464094  59.6077871
  57.6664019  43.5188341  58.9229727  56.7707872  42.9046774  59.9773264
  62.6269245  14.5077038  67.4298239  62.7441740  13.6477685  67.0260954
  62.5552940  15.1115859  66.6906166  50.9039927  63.6443615  63.2983685
  51.3652134  62.8110075  63.2033491  50.4319715  63.5637283  64.1271782
  63.0905867  16.9372463  35.9924507  64.0233374  16.8757296  35.7864642
  62.6894665  16.2185907  35.5037093  80.6900978  77.1732616   3.7623301
  80.5335903  78.0238819   4.1724333  80.7481670  76.5608549   4.4956902
  20.8204341  75.5858183  11.4597809  21.7298317  75.5592680  11.7573071
  20.3084421  75.6823921  12.2627580  30.1519465  47.2490215  36.3956332
  30.4644012  47.0570660  35.5114627  29.5131731  47.9518986  36.2765956
  35.7452488  64.1261768  19.3061852  35.5369234  63.2920980  19.7270703
  34.9944305  64.3024921  18.7392497  16.6034544   3.2262954  66.3813734
  15.8109784   2.9678658  65.9108114  16.7109895   4.1552818  66.1772871
  12.9271972   8.2938457  38.8449502  12.3352122   8.8685054  38.3596134
  13.5327530   8.8903862  39.2850327  19.3370485  49.0812302  17.4882948
  19.4888902  48.3588791  16.8788791  19.7132313  48.7799644  18.3153129
  74.0905523  14.3277121  10.0272584  73.6711073  14.8428833  10.7163882
  74.3153143  13.4992278  10.4507267  20.8780575  55.1624727  62.9610443
  20.8923817  54.4486141  63.5985613  20.4207015  55.8742619  63.4087276
  64.3627834  35.9106207  60.5241013  63.8268328  35.5222106  59.8326302
  64.4007254  35.2379942  61.2040758  78.9872661   0.0634311  31.8725014
  78.7091413   0.8517431  31.4061904  78.3568826  -0.6064392  31.6076946
  24.0489435  28.9129949   2.3879194  24.3093109  28.1259561   1.9093682
  24.2392683  28.7103271   3.3038533  49.5632553  74.3922997  32.5583577
  49.2846394  73.7019587  31.9566607  50.5190992  74.3821001  32.5084829
  62.1579452   4.9178063  67.3094297  61.8420996   5.5130707  66.6296243
  63.0548169   4.7096192  67.0476826  64.9590492   4.3614951  32.1555471
  65.1373100   3.8957712  32.9725885  65.1837873   5.2724153  32.3451519
  46.1010027  41.4364433   3.1725779  46.7627525  42.0880032   3.4044987
  46.5603352  40.5984640   3.2276374  13.7345243  77.7682638  31.8794250
  14.6141720  77.7258492  32.2544622  13.7834036  77.2260046  31.0921526
  28.3433366  63.4253931  53.4230137  27.4436092  63.1022644  53.3749390
  28.3373332  64.2289829  52.9029799  48.7302446  53.2142115  30.6148291
  47.9288340  53.0033016  30.1357746  49.3223476  53.5638428  29.9489403
  65.1442051  60.9576941  53.8038206  65.8988714  61.5243006  53.9640236
  65.4191542  60.0972939  54.1205931   2.2177687   3.1523558  54.7806644
   3.1374165   3.2074496  55.0403643   2.2262354   2.6297575  53.9787579
  15.8058131  25.8830309   7.0223534  16.4195001  26.2537122   6.3881493
  15.2484274  26.6191411   7.2747374  59.6091652  12.6684594  60.5493498
  58.9835501  13.3895075  60.6195450  60.0473547  12.6478755  61.4001131
  18.4605575  59.2732096  20.6376266  18.9184570  58.7624073  19.9700642
  18.6140764  60.1846981  20.3889132  72.0495987  20.3083324  56.2261343
  72.9577065  20.5099893  56.4517593  71.7918968  19.6315825  56.8520975
  63.7213850  30.8411932  37.6399899  62.8033781  30.5783010  37.5738239
  64.0974617  30.6140566  36.7895722  39.7822738   8.9720321  34.0057564
  40.1163387   8.0782133  33.9301205  39.1671419   8.9366364  34.7382808
  58.0669928  69.5334530  50.4531240  57.6114416  68.9391613  49.8568630
  57.7522469  69.2876911  51.3230467  10.7211423  46.8595648  18.9900315
  10.8080184  47.4091768  19.7688830  10.2611053  46.0787058  19.2980194
   4.0075126  13.8648713  53.7482166   3.0679983  13.7525117  53.6035776
   4.4199231  13.3313823  53.0688524  48.3452177   6.3953263  55.1703978
  47.4887180   6.7146832  55.4543972  48.1604910   5.5549496  54.7510242
  82.8139305  27.1942639   4.6872935  82.0759296  27.4108505   4.1174906
  82.8176117  26.2376761   4.7212720  45.0591373  27.8531671  37.7976966
  45.3402758  27.3938084  37.0063806  45.6558037  28.5984540  37.8667641
  73.6580896  40.8210421  15.2359951  73.2274961  41.3325119  15.9209907
  74.2976093  41.4223576  14.8543274  24.8034453  57.2875357   7.9143417
  25.6038260  57.5889874   8.3441669  24.0958953  57.7042294   8.4062463
  22.6951528  53.9936495  41.5010071  23.0858254  53.3124924  40.9536219
  21.9291067  53.5751963  41.8938208  65.5195856  30.2834630   6.6009218
  65.3409481  30.9452200   7.2690535  66.4315367  30.4342580   6.3522542
  34.8557019  27.4263430  37.4329329  35.7320404  27.5995159  37.0890236
  34.5720196  28.2642221  37.7986050  76.3065529  14.2553020  49.2981863
  75.4315901  14.2760336  49.6857977  76.8923426  14.0933669  50.0376844
  13.9938211  10.2394032  29.1378999  14.6314883  10.4731655  28.4633875
  13.8187015   9.3100297  28.9901495  76.6804266  33.4987259  26.0544181
  77.3560905  34.0769148  26.4085484  75.8555794  33.8895106  26.3427639
  58.7004471  69.4525194  62.1127510  58.0153179  68.7980270  62.2486544
  58.3901787  70.2255297  62.5843716   1.7858061  39.0656877  66.0467482
   1.1665375  39.5177841  65.4737329   1.2419465  38.4771299  66.5702438
   9.2712682  50.2926588  60.7988501   8.9600790  51.1978340  60.7919788
  10.2253318  50.3672171  60.7779455  19.7017574  24.3699193  57.8110027
  19.4423068  23.8540506  57.0475960  20.5405426  24.7589517  57.5633621
  37.7933383  68.4247398   3.1211701  38.6001468  68.8267994   2.7992401
  37.2166991  69.1645241   3.3120778  39.4725871  66.6521883  35.1642442
  39.7146201  65.7552767  34.9335933  40.1852036  66.9554377  35.7267857
  39.7509861  19.6707702  15.7220173  40.2973223  19.3995047  14.9843419
  40.2847815  19.4881690  16.4952910  60.4032564  69.8414326  40.1700449
  59.7777128  69.1468287  40.3760910  60.4964733  69.8051548  39.2180872
   1.0028500  61.8201923  64.5421314   1.7337801  61.6877699  65.1458168
   1.3713658  62.3446131  63.8312054  40.9019756  55.6561089  11.1799884
  40.4352093  56.4349270  11.4829659  41.4661169  55.9740639  10.4750907
   5.1210207   6.3449675  62.1420479   5.6111103   5.5714601  62.4208498
   5.0379813   6.8745738  62.9350519  46.0102654  61.6646624   6.8736345
  45.7224751  62.4162865   6.3554990  45.5111217  60.9269238   6.5231597
  39.4320035  18.5862911  50.3940392  38.7666774  18.3715093  49.7402477
  39.0482235  18.3096170  51.2261438  48.2601690  72.3717928  45.4585934
  47.7004099  71.5989065  45.5330706  47.6608753  73.1118202  45.5557823
  54.7622672  48.9585174   0.5874401  55.1991621  48.2998652   0.0475031
  55.3991070  49.1692651   1.2702661  27.1764803  13.7952626  38.6993718
  27.4389887  12.8783357  38.6183500  26.9193435  14.0499794  37.8132391
  60.0045681  48.0969048   5.3986251  60.1106071  47.2280073   5.7859319
  59.6605015  48.6361742   6.1106938  58.7071419   7.4861199  50.9690952
  57.8416252   7.8163886  51.2099886  59.2781973   7.7669579  51.6841173
  49.9610949  66.6735458  57.4432135  49.4490051  67.1132326  56.7644882
  49.3980074  66.6909027  58.2170773  16.1526036  31.8201804  19.6873903
  15.5145621  31.2972116  19.2019629  15.6542778  32.1901226  20.4161191
  71.9966173  72.8748846  17.2008288  72.8198957  73.0128288  17.6692498
  71.4712381  72.3369980  17.7931821  71.9085455  27.2508216  35.9241915
  71.3601637  27.6140857  36.6195679  71.5717936  26.3646364  35.7918763
  20.0388908  16.4235413  42.8693295  19.7483695  16.1535752  43.7405062
  19.9773562  17.3786819  42.8816319  68.6223936  25.3671145  48.8623667
  68.8706255  26.2766123  48.6967611  69.1739273  24.8565745  48.2695770
  66.1939955  17.2656965  41.8588543  66.3345242  16.3206697  41.9172287
  65.5910110  17.4629045  42.5756121  22.2316670  20.7335401  40.6704426
  21.7056823  21.3929462  40.2179384  23.0946970  20.7931161  40.2607298
  10.4847109  62.1229982  31.2381744  10.2678108  63.0433226  31.0892153
  11.4389789  62.0880699  31.1719584  77.2999668   9.7704971  66.4225292
  77.8858423   9.0722436  66.1302614  77.8803349  10.4189229  66.8212128
   3.0463141  12.2093940  28.6492658   2.6726910  11.9457328  27.8083611
   3.9305812  11.8429589  28.6439061   4.3368623  27.7916503  49.9544191
   3.6251786  27.8084779  49.3145323   4.8792195  27.0485926  49.6899509
  46.2064552  65.3614330   0.9694206  45.4293489  65.7921553   1.3255319
  46.9136953  65.9916687   1.1066910  61.1038446  18.8311231  40.1615763
  61.4162254  18.4462166  40.9804153  61.4946842  18.2879376  39.4771576
  54.9090672  16.2406158  60.4634905  54.9078131  15.2970552  60.6244993
  55.8336592  16.4869022  60.4901123  63.2608557  36.3193130   3.4935346
  63.4267616  35.3785896   3.4323305  62.4044704  36.4387012   3.0829501
  12.8552639  21.3825679  10.2695549  13.4099400  20.6256366  10.4582894
  13.3029127  21.8352604   9.5547724  17.0742917  73.0286264  46.3060665
  17.2387791  72.2230482  45.8159447  16.9843864  73.7039423  45.6336880
  35.7664704  31.6948652  42.2592354  34.8395157  31.5311551  42.4329710
  35.7681274  32.4064112  41.6189718  24.6049356   3.5261449  67.3927593
  24.1608405   3.7542981  66.5760803  23.9334798   3.6285448  68.0672169
  58.0747509  67.6504946  24.4562912  58.5887384  67.3196220  23.7196970
  58.6435175  68.2973003  24.8738742  20.1787567  50.4255915  13.7158573
  20.5899167  51.2621737  13.9333725  19.7554815  50.5791998  12.8711832
  50.3339386  73.1496716   3.9377964  49.4514656  73.0805922   4.3020836
  50.9078312  72.8459597   4.6410993  75.1330662  22.5858450  63.7537956
  75.1599598  22.4802685  62.8028202  75.7925653  23.2543302  63.9393139
  63.2278872  24.4723725  18.3079815  62.8349352  24.7892594  17.4947143
  63.8737679  23.8248563  18.0255055  39.1839552  20.0705862  46.3286257
  39.9966311  19.5803595  46.2042618  39.0768862  20.5666494  45.5170250
  48.8501644  42.6203489  13.2516420  49.5764017  42.0196056  13.4187257
  48.1914854  42.3877144  13.9060557  81.7357922  52.7468872  44.1083241
  81.8188572  52.2791290  44.9393082  81.6993427  53.6707401  44.3561125
  28.9641166  29.9336314  15.2465308  28.8697505  30.0668120  16.1897111
  28.1199861  29.5775318  14.9692833   4.9354240  29.3708158  45.8359098
   5.3300846  28.5726690  46.1872435   4.4816342  29.0847135  45.0431585
  23.8563228  42.5977755  50.0203419  24.6933293  42.3709488  50.4255581
  24.0854931  42.8628826  49.1295958  70.0803900  72.5023699  32.1926999
  69.7272062  73.1388855  31.5711355  70.8542347  72.1457052  31.7565918
  29.0337920  32.6696944  45.7084656  28.3040166  32.0510244  45.7385826
  29.7563052  32.2087479  46.1347723  38.2938504  58.5788774  33.9714932
  37.9444098  59.4140768  34.2822456  37.5207949  58.0772114  33.7127495
  75.5267668   6.3103306   2.3484612  76.0446596   5.8310026   2.9951948
  75.3264856   5.6617063   1.6736238  58.7478828  67.2853661   5.9468913
  59.5759726  67.7053118   6.1795872  58.8700581  66.3664198   6.1852998
  57.9268169  53.9031839  10.2144659  58.3594847  53.5715055   9.4276881
  58.4264660  54.6845436  10.4512334  20.4496336  30.9959984  24.0942907
  19.6146202  30.7128024  23.7217546  20.8356714  30.1965380  24.4521594
  72.2623158   4.7247615  14.9650013  71.3382387   4.9741355  14.9763501
  72.2689772   3.8475275  14.5820546  75.7059813  16.1705542  47.7530622
  75.2801228  15.6162441  47.0991373  76.3637304  15.6036603  48.1558418
  39.1245937   6.2022936  45.5681515  39.0839100   6.9868487  45.0212955
  38.3970308   6.3004649  46.1823559  82.7330875  40.8685493  32.1511221
  81.8387604  41.0583496  31.8675733  83.2631874  40.9792852  31.3618422
   0.6408694   6.3690937  36.8981838   1.2645906   6.1834067  37.6001263
  -0.2137884   6.3621795  37.3291636  58.7004709  77.5348091  47.6977873
  59.5623302  77.4361277  48.1023836  58.0827284  77.4293518  48.4213161
  73.6940384  40.6014061  54.1908979  73.9734983  40.8468437  53.3089161
  72.8957462  41.1083984  54.3389797  79.4559622  39.3938780  32.1045375
  79.4618893  40.0659990  31.4230299  79.1568708  39.8518848  32.8900361
  63.5216045  49.7210693  58.2464266  62.7957201  49.9410248  57.6625204
  63.7561131  48.8237906  58.0095243  39.2831945  16.8784630   1.5526773
  39.1863251  16.1556005   2.1726111  38.9267492  17.6382160   2.0130606
  49.0769577  30.1857471  58.3583927  49.2423582  29.2511296  58.4823370
  49.9423885  30.5633783  58.2013702  78.7019539  25.6065297  61.9432163
  79.0384293  25.6225157  61.0472441  78.0127811  26.2707543  61.9521332
  11.6445327  26.5863967  19.3144119  12.4887300  26.1353469  19.3251300
  11.1214101  26.1004400  18.6768997   2.1930155   5.1332891  49.0713978
   1.5962812   4.4220746  48.8383436   2.3899876   5.5630994  48.2391119
  63.8108873   0.4242307  14.9729133  62.9211092   0.4306005  15.3257465
  63.8857079  -0.4194812  14.5270622  66.7242479  11.0318661  35.6883669
  66.5201616  11.0308421  36.6235566  66.5890455  11.9390941  35.4147077
  80.9903908  50.4881954  49.9822187  81.2638855  49.7901821  50.5773783
  81.4598942  51.2633419  50.2903652  40.0960636  46.6817951   1.6364229
  39.5492744  47.3309612   1.1938863  40.5608034  47.1789455   2.3095398
  53.2786560  11.4900327  58.6316156  53.3495045  11.1890411  59.5374966
  54.0636015  11.1481833  58.2035637  69.6417046  76.3544083  19.0776277
  70.1753664  76.2220001  18.2941067  69.4989061  75.4727745  19.4219577
  81.7077076  39.7974730  60.9143496  82.4969729  40.3073120  60.7317114
  81.1718364  40.3729057  61.4601994  20.7504559  17.4110806  20.2203727
  20.2139688  17.0034778  20.9002781  20.4140258  18.3047068  20.1534414
   2.8008357  29.7383952  28.3388472   3.2220185  30.0612354  27.5422239
   2.0724446  29.2028093  28.0244803  75.2895927  58.7126827   2.9453599
  75.5304718  59.6388578   2.9653892  74.4510508  58.6932087   2.4841619
  32.1938634  31.2993097  55.3424931  31.9982171  32.2230196  55.1852942
  32.6140547  31.0027266  54.5352077  61.8673372   5.0145215  53.9523935
  61.7327833   5.7043785  53.3026028  62.2689533   4.2978358  53.4611702
  81.2864208  75.9751606  45.4222727  80.4159164  76.3259840  45.6103754
  81.3530827  75.1932192  45.9703159  28.7238193   8.5495645  27.2204351
  29.2598581   9.1391724  27.7507734  29.2682481   7.7710152  27.1034241
  24.4696903  17.5376296  22.7469301  24.0771151  16.7465460  22.3777390
  25.0116062  17.8883588  22.0401454  74.7325802  31.4118695  42.8499556
  75.4531479  30.7817769  42.8487062  74.3986034  31.3920164  43.7467813
  14.9298656   9.7838467  21.8439698  13.9797783   9.6976960  21.9223595
  15.0606346  10.6483161  21.4543247   0.9466571  17.1175134   7.5379711
   1.2042420  18.0234277   7.3670846   0.1177229  17.1894038   8.0111855
   5.0986242  45.2202892  63.6678314   4.3258408  44.8463106  64.0911245
   5.1629138  46.1056852  64.0258360  31.3388228  67.9753828  15.1792240
  30.7155108  67.2563362  15.2826035  31.8789601  67.9395008  15.9686506
  43.5459137  37.7921653  58.1349421  43.7572336  36.9644642  58.5667801
  42.5944042  37.8650665  58.2094002  76.5410948  36.9557190  66.2633848
  76.0226774  37.2328019  65.5079412  76.0636091  36.2065601  66.6197538
  48.6156416  70.9121037  22.5523162  48.1676054  70.0673866  22.5081468
  49.0575790  70.9932995  21.7071366  12.4582767  44.2097950   2.1732378
  12.6961160  45.1193380   1.9932550  13.1706810  43.8797951   2.7207902
  51.4464760  76.7342710  59.3341684  51.6440248  76.9558144  60.2441835
  51.8051958  77.4625540  58.8270664   9.9175745  72.4739218  27.6507568
  10.2840114  72.1930599  26.8122625  10.4565573  72.0329094  28.3074450
  75.5525064  15.8198440  55.4676962  76.2979507  16.4108169  55.5739880
  75.7450342  15.3332019  54.6662331   0.4710723  22.8744102   9.0034693
   0.0529240  22.6834917   8.1638658  -0.1483200  23.4480882   9.4545537
   3.4228092  39.4770360  24.8645711   3.2584214  38.8201213  24.1880560
   2.7525818  40.1445580  24.7181344  71.8990517   4.5489615  62.6686811
  72.0623159   4.6416509  63.6072922  71.1448383   3.9621466  62.6135635
  33.3645201  66.5160322  41.4901400  34.0973473  66.5625668  42.1041679
  33.7563181  66.6959572  40.6355333  75.1846361  47.6101637  34.2182326
  74.8903370  48.5173130  34.3000984  74.4430351  47.0890760  34.5260119
  39.6216989  54.5624542  15.0457680  40.1295090  53.9879370  14.4728005
  38.9258862  54.9056101  14.4851279  24.5684505  59.8449945  43.5437202
  23.8250160  60.0314331  42.9703236  24.7542238  58.9169168  43.4009314
  57.7529335   3.2373035  28.8727140  58.3129501   2.8570947  29.5495081
  56.9733047   3.5309842  29.3440604  56.4411068  33.4134459  60.8371878
  56.4423132  32.4889159  61.0851336  55.8546019  33.8300014  61.4686298
  80.5053520  15.0091207  50.0856256  80.7428169  15.4773366  50.8860111
  80.0885487  15.6719935  49.5350742  21.1285615  11.2154543  27.7795529
  20.2078700  11.4023495  27.9629350  21.3560224  11.8103957  27.0650339
   6.1883914  44.6808147  46.1023378   6.5768546  45.5485821  46.2132597
   5.7172674  44.5229387  46.9204760  31.4059949   6.7853433  47.6048899
  31.5349555   7.7331167  47.5684738  31.3012075   6.5935159  48.5368013
  72.0032310  27.1609020  31.9413280  71.3843679  26.4506555  31.7716479
  72.6914740  27.0402980  31.2871051  17.8411245   1.5190344  49.5661974
  17.3064888   2.3070517  49.4691086  17.2492683   0.7995006  49.3466282
  42.6364635  67.9217708  67.7065803  42.4590586  67.9780257  66.7676478
  43.5762952  67.7491939  67.7628370  55.5391407   0.5676111  54.9974442
  55.3239107   0.7667719  55.9086180  55.7573318  -0.3643817  55.0010824
  29.7939587   6.0831869   7.1835506  30.0360918   5.8252496   6.2941289
  28.8713026   6.3296163   7.1186674   2.6899329  68.0200815  63.7193251
   1.9533342  68.1176805  63.1158924   2.6791048  67.0944118  63.9627457
   8.0440170   8.1646895  36.1776614   8.8795555   8.4291387  35.7927275
   7.4349070   8.1477469  35.4394674  13.0662084  32.5115085  17.5274765
  12.2408080  32.4068213  17.0542049  13.4853494  31.6528225  17.4708426
  49.8144960  21.9246411  28.1397128  49.3011856  21.8671989  27.3338342
  49.5298910  21.1726522  28.6590838  21.7396951  13.7619519  19.4974351
  22.1525764  13.0893421  20.0390601  20.9656429  14.0275013  19.9939823
  40.1596498  63.9978170  44.9548960  40.6206894  63.1624889  45.0317144
  39.7033429  64.0972662  45.7904339   5.2797896   1.6237500  52.3746014
   5.7081521   2.4665706  52.5242376   4.6240282   1.8045861  51.7011690
  47.2745085  42.3221588   0.6031839  46.7284775  41.6851711   1.0639791
  46.9186068  43.1728458   0.8598728  21.7098737  18.1113422  39.5554233
  22.4663854  17.8301740  39.0407705  21.9771338  18.9475763  39.9368906
  80.6360435  73.3941650  47.5285625  81.3688087  73.1591988  48.0978441
  80.0117493  73.8294554  48.1090879  64.2191505   1.0956233  46.2365913
  63.9165926   1.0979848  45.3284693  64.0980482   1.9980930  46.5317392
  56.5651226  19.6763515  49.8817301  55.7034588  19.3130112  50.0860643
  56.4881086  19.9816132  48.9777851  43.5006475  22.8081751  28.3390403
  43.6987114  23.1516075  29.2102790  44.3276978  22.8745008  27.8617334
   5.0151013  -0.1088597  22.8742719   5.5068921   0.0452303  22.0676565
   5.3385447   0.5556034  23.4826326  63.6507797  29.0136027   4.9723047
  64.3057013  29.2660904   5.6231147  62.9146051  29.6042585   5.1317096
  63.2807589  59.8366451  19.1658831  62.6681614  59.6623898  18.4513271
  62.8491116  59.4821739  19.9432278  65.8994102  37.1214128  58.6143446
  65.4811001  36.6335034  59.3237019  66.4706516  36.4822793  58.1884003
  30.7393980  56.4819002  29.9002671  31.2297201  56.3760328  29.0850329
  31.1487722  55.8657503  30.5077219  12.9852426  27.8331208  63.1106520
  12.6731515  27.3070574  63.8469172  13.8231039  28.1878853  63.4079075
  15.8757925   8.1964391  38.9919782  15.3705442   8.9577395  38.7067080
  16.0214508   7.6920503  38.1915998  78.9042139  54.1233397  38.3093643
  78.2710791  53.4411526  38.5329604  79.7415495  53.6632156  38.2512140
  75.9614992  77.2159338  29.3320513  76.7301559  76.7078876  29.5914578
  75.2554369  76.8812609  29.8849487  15.8648384  68.4566450   3.7243330
  16.5155077  68.0741310   3.1356546  16.3485873  69.1185856   4.2183539
   9.1553229  75.8275795  48.2005835   9.2685354  74.8888302  48.3494759
   9.6620756  76.0073090  47.4086666   8.7896156  29.6621156  47.0808172
   9.3295830  29.7234225  47.8687954   8.0067235  29.1892481  47.3631382
   0.4996873  66.5278578  14.1336310  -0.3320026  66.4007568  14.5901036
   1.1620858  66.4701509  14.8222017  10.0434101  38.2265830  26.5559411
   9.5282131  38.9546752  26.2085414  10.8704591  38.2678390  26.0758162
  80.0157928  37.9927850  59.2471504  80.8375263  37.5062943  59.1814423
  80.2613258  38.8238478  59.6536970  21.7703843   7.2474718  17.3054051
  21.9386220   6.5443224  16.6781032  21.2040591   7.8585047  16.8340790
  12.7583349   9.0390784  57.5694752  12.4921918   9.6036953  56.8438005
  12.6485336   8.1495142  57.2335434   1.6215228  40.3690052  59.8709106
   1.7875683  41.2518978  60.2013016   1.0938926  40.5031824  59.0836143
   1.9197735   8.5769647  35.3201795   1.3877036   7.9068130  35.7491684
   1.3164780   9.0126950  34.7181797  71.7496204  21.4814258  51.5886497
  71.0747051  21.9750690  51.1227703  72.2861814  21.0965848  50.8956671
  26.2505436  18.4948564   9.8015815  25.8192015  18.4614599  10.6554317
  26.6402411  17.6269746   9.6959978  43.5802078  40.5616808  55.2094555
  42.8982162  40.2805376  54.5994759  43.7844944  41.4582634  54.9436617
  28.5566521   6.5133917  29.8866415  27.9666567   7.0185113  30.4461002
  29.4323301   6.8161392  30.1269841  30.9066486  44.7327852  34.8771667
  29.9826598  44.4828939  34.8825955  31.2344790  44.4197321  34.0341020
  27.5222135  56.1032438  16.3603842  27.5781441  55.2320099  16.7528927
  28.3165264  56.1791849  15.8316767  22.4286056  20.2511239  63.9206457
  22.7598333  19.3632662  63.7856340  23.2130504  20.7993770  63.9378357
  25.6901503  39.4670534  33.7280178  24.7382283  39.5272946  33.6477232
  25.8684731  38.5273027  33.7641335  46.3448524  16.7455769  27.9412818
  47.2950220  16.7700756  27.8280902  45.9950638  16.9696796  27.0789289
  23.7572694  27.8512764  38.0710053  22.9019165  27.7250433  38.4816980
  23.9950800  28.7533522  38.2853365  41.8778324  76.4918900  26.6225100
  42.4609327  76.8045092  27.3142433  42.3829937  75.8158970  26.1707592
  43.5594893  15.4671633  43.1594181  44.3926620  15.1543581  43.5118580
  43.8066912  16.1147809  42.4993324  24.3044996  23.0055785   8.5725617
  24.7800469  22.2388268   8.2529080  24.8744249  23.7454748   8.3628619
  69.7021627  73.8104153  41.0508776  70.5029964  74.3283415  40.9692955
  69.1519117  74.3131828  41.6514492  37.9053450  51.4621878   2.9623026
  37.8300309  50.5635262   3.2831824  37.5137734  51.9967604   3.6530551
  60.4112577  57.0420694  15.6561041  60.4485369  56.1236906  15.3888512
  59.7595263  57.0613194  16.3568950  50.0568676  77.3950100   2.3834804
  50.5525494  76.5782166   2.4416710  50.7211113  78.0823803   2.4338381
   6.1326563  18.1407154  52.1309042   5.8227730  17.6579332  52.8971481
   5.4038715  18.7166667  51.8998528  70.6272078  24.4373012  24.4694400
  71.3775682  24.1450906  24.9869347  70.0002432  24.7590852  25.1172090
  44.9741554  26.5044618  56.9778013  45.2567291  27.1933293  57.5793362
  45.6685352  26.4608741  56.3204050  22.1452856   1.0529402  63.5681486
  21.9972634   1.6196494  64.3252230  21.4619255   1.3014778  62.9456663
  68.3389091  29.0627289   3.7047711  68.4084988  29.5747495   4.5105159
  67.3988914  29.0179539   3.5298783  24.6031713  25.7416916  63.6610603
  25.0824428  26.5697002  63.6305332  25.2774453  25.0706148  63.5550261
  74.9793959   3.6426780   6.1195266  74.3688345   3.3146513   6.7797136
  74.4583702   3.6993474   5.3185570  69.2006159   1.8062997  52.9622984
  68.2670689   1.6256350  53.0721903  69.3279219   1.8408097  52.0142317
  72.9066515   1.7612927  57.6966858  72.4742699   2.6149356  57.7205706
  72.5870085   1.3089769  58.4773731  35.2844477  18.2058609  29.0712953
  34.3842316  17.9800820  29.3055224  35.7641482  18.1670177  29.8987055
  64.1522503  76.8714333  28.4789586  63.4357405  77.4585247  28.7201452
  64.4313526  77.1762514  27.6155806  76.1141682  46.5129805  27.3159623
  76.5142202  47.3065233  26.9603133  76.8417406  46.0364056  27.7156472
  56.1899853  25.0630021  42.6483870  56.0599375  24.7919512  43.5571480
  56.5045691  25.9649181  42.7101374  80.8643436  27.3546743  67.1478128
  81.7907047  27.5946951  67.1261644  80.5976391  27.3459220  66.2285614
  24.6889472  12.7126634  23.8708758  25.1892138  13.5264993  23.9311814
  25.3469181  12.0393205  23.6979103  58.8260269   3.8776663  33.1563115
  58.5849953   3.6324546  34.0496254  58.2570648   3.3455580  32.6000953
  24.6404743  18.3428824  60.4678679  24.1434097  18.0002081  59.7250843
  25.3477216  17.7105236  60.5949688  33.9005113  51.9092226   5.6284648
  33.9057326  52.4246025   4.8218739  33.0682898  52.1285343   6.0474432
   7.5864428  40.8048773  45.1658678   6.8597555  41.2363291  44.7164106
   8.0646187  40.3539705  44.4699764  12.1533990  74.0846920  54.2688751
  11.3415694  74.4188404  54.6503305  12.2999358  74.6338415  53.4986830
  74.6492004  37.8803110  32.8597021  75.3307247  38.3558869  32.3847485
  74.4241095  37.1478772  32.2860241  30.2018070  74.9079466   2.6272118
  30.3233051  75.4234219   3.4245536  30.9824157  75.0890207   2.1036699
  73.4899473  41.7868900  59.8445225  72.7950668  41.7737865  60.5027008
  73.9816475  40.9803391  59.9992514  37.2453761  11.8719530  10.5446672
  37.9294729  12.1025860  11.1731982  37.6452732  12.0248568   9.6885520
  44.5928049  57.6016283  59.4277239  44.5413876  57.1184254  60.2524090
  43.7053251  57.9318762  59.2878962  34.2351007  25.8480716  46.9451666
  33.7629747  26.3635015  46.2912035  33.5970497  25.7060122  47.6444101
  65.7713699  23.6099887  59.6124983  64.9415588  23.2036853  59.3623829
  65.5779171  24.5467138  59.6492720   5.6925523  11.4590287  47.4818945
   5.0325948  10.8172500  47.7442074   5.7413381  12.0674562  48.2192326
  80.3484249  61.6526318  52.0585012  80.3096676  62.5701427  51.7884970
  79.5685768  61.5290594  52.5996161   0.3415330  49.8262787  59.3035793
   0.6223996  48.9112949  59.2911339  -0.1781337  49.9064493  60.1034212
  40.7228565  32.9490685  47.0190144  40.8745956  33.2287049  46.1162376
  41.4893675  32.4190688  47.2376347  -0.0566673  12.4694717  43.6825323
  -0.2558956  12.8689015  44.5292902   0.8210781  12.1033704  43.7909985
  77.0707703  14.8994112  25.8020806  76.1760950  14.8337591  26.1359668
  77.3894691  13.9968812  25.7919526  26.3617635  13.4775448  49.5621967
  26.3931680  14.4231284  49.4168758  25.8786058  13.1355357  48.8099861
  50.8368587  71.6935015   1.3119100  51.5248108  72.3213816   1.5326409
  50.0568867  72.0270967   1.7552912  23.8547254  49.5632696  22.3251104
  24.7788429  49.3317318  22.4180031  23.4248066  48.7419271  22.0867920
  75.3686428  28.4486389  11.2648332  76.2946749  28.2392383  11.1429787
  75.3693676  29.3315482  11.6345644  79.9318409  32.3998475  32.0643258
  79.5502472  32.8945589  31.3391495  79.1852903  32.1738338  32.6191306
   5.6026649  24.2281175  19.8556805   6.0996991  23.4162354  19.7554839
   5.3659940  24.4759107  18.9619148  19.4754267  77.5074577   0.0799925
  19.7405672  76.9715595   0.8274837  20.2490067  77.5324440  -0.4831976
  16.4578903  43.9830780  30.5763650  15.5419314  43.7566757  30.4151440
  16.8811655  43.1463575  30.7686281  64.4533157  67.8403282  62.6784039
  64.1670847  68.3908844  61.9495773  63.6583948  67.6865196  63.1889725
   7.4031502  29.0255809  49.1706514   8.0299598  28.7676907  49.8465490
   7.1637279  28.2047796  48.7403107   4.3836647  36.7454123  39.1565275
   4.3596345  37.6769376  39.3754244   3.4672454  36.5095162  39.0124416
   1.1638062  27.0174146  40.6559515   1.5733439  27.1285582  41.5139484
   1.8978970  26.8921351  40.0545788   2.1502787   5.9803879   2.1534590
   2.9288295   5.8942306   2.7036110   1.5869121   5.2539682   2.4202265
  12.8410637  32.6285219  56.1446524  12.0880067  33.2117605  56.0499477
  13.6015761  33.2025051  56.0530281  31.4233375  61.8915844  32.3084021
  32.1135902  61.2597227  32.5097203  31.7188716  62.3215771  31.5059042
  10.8390856   7.1762896  40.1217937  11.0513103   6.6467655  40.8904266
  11.6718030   7.5740498  39.8676276  70.2315092  71.1592197  34.7139549
  70.2961206  71.3492680  33.7780380  70.8230734  71.7879677  35.1274276
  70.2421999  43.9933205  37.6846337  70.2268600  43.0442429  37.8081203
  69.6597910  44.3327236  38.3642197  17.2077417   4.3178940  63.3937979
  16.7182231   3.5919714  63.0069637  18.0827785   3.9616829  63.5476017
  76.4062166  30.7608676  30.8028269  76.6280794  31.0040808  29.9040174
  76.4907598  29.8075795  30.8208108   6.6976678  38.6074376  48.9882088
   7.1154141  39.0719175  49.7134495   6.5527123  39.2812872  48.3240223
  41.9596958  57.1208954  16.9743991  42.8506947  56.9102001  17.2536182
  41.6846037  56.3626671  16.4589953   7.8876740  40.1327467  37.3323369
   8.7899470  39.9328780  37.5817108   7.9666078  40.8465385  36.6994858
  42.8674507   9.8758268  16.2006044  42.9347563   9.2656720  16.9350517
  43.4361076  10.6065261  16.4433789  80.9216976  23.6751485  54.5845795
  80.8604240  24.0840936  55.4478502  81.3868427  24.3169761  54.0479803
   9.0704477  11.3052511  29.8367834   8.7451822  11.4999008  28.9578366
   9.1480726  10.3514326  29.8576617  19.0307784  41.2779856  63.5721159
  19.5442021  40.8371162  62.8951645  19.0586090  40.6815910  64.3202972
   8.5332400  51.8691921  53.6416245   8.7918293  51.0161257  53.9903927
   7.7302867  51.6939306  53.1509304  28.3803082  21.3517904  37.0252275
  28.1253171  20.5874181  36.5085578  27.5999498  21.5666533  37.5362134
  43.3335495  29.7497535  36.8368292  43.7218475  29.9803948  35.9928751
  43.8653946  29.0196991  37.1536684  30.5050063  68.4952354   3.7133744
  31.3325262  68.6485147   3.2573596  30.1921630  69.3703556   3.9425650
  20.5933905  20.2758312  17.1220589  20.0626516  19.5966351  16.7058372
  21.2722373  19.7936141  17.5941443   6.9973159  36.2486601  32.6617575
   6.3356739  35.8139944  32.1236801   7.0710319  35.6985235  33.4415960
  76.7349052  56.0885429  15.1051950  76.1208105  56.7707443  14.8336673
  76.7966700  56.1862755  16.0553873   9.3516850  76.9318438  30.6906676
   9.2236632  77.7230453  30.1673651  10.0488698  76.4562082  30.2390790
  19.1853631  48.1314039  27.2977948  18.3508837  47.6632357  27.3241425
  19.4252920  48.1412935  26.3712072  78.5945654  48.4615040  22.3889399
  78.2914877  48.1237316  23.2317233  78.1183386  49.2840195  22.2753072
  57.5330639  23.0506539  60.8794785  57.3934841  23.8686061  60.4022980
  57.0141506  23.1476283  61.6779470  29.1364908   5.7642865  58.3939695
  29.0290928   4.9954832  58.9540005  28.2762480   5.8911830  57.9938316
  20.7023764  27.2255969  21.4648676  20.5155921  26.3627386  21.8347597
  20.0178885  27.7921033  21.8209243  76.9465446  30.1031184  61.1952353
  77.7906275  30.5502486  61.2570763  76.5321541  30.4800081  60.4190493
  58.9643002  10.2528822  52.3324585  58.9075565  10.8958590  51.6256380
  59.8440266  10.3686595  52.6915073  60.6796980  64.8630571  12.9489481
  60.4485464  64.3558741  13.7271309  60.2771378  65.7194710  13.0929327
  17.2672975  28.6230898  58.3306551  17.1584678  28.2612562  57.4511862
  16.6201341  29.3264914  58.3820248   9.7211623  21.0766339  37.8254962
   9.9100322  21.8651700  37.3167992   9.6974176  21.3775730  38.7338495
  28.0589676  48.5761023  38.9635611  28.3748889  48.0327749  39.6855164
  27.3795033  48.0472755  38.5453486   7.8035611  70.4989815  18.5547495
   6.9336170  70.1040602  18.4958661   8.4003139  69.8077250  18.2678938
  37.9764414   7.4969119  55.6934738  37.1450734   7.8870773  55.4236031
  38.5960770   7.7585644  55.0124311  39.1660285  41.8238258  55.0858879
  39.0400529  41.3961458  55.9329128  38.6109090  41.3292980  54.4829655
  15.9761882  48.7788630  46.4285183  15.0350904  48.7196636  46.2640142
  16.3309419  47.9575157  46.0882616  24.9461937  23.6725950  19.0747273
  25.1770306  22.9838777  19.6981168  25.6088281  24.3499851  19.2099679
  81.6654396  46.6335297  60.6200361  81.6617298  47.4318504  61.1481524
  82.3500443  46.7811728  59.9675512  46.6005659  35.5637908   6.5749484
  46.4088488  35.7483888   5.6554925  47.3823977  36.0821748   6.7653435
  45.5993032  75.2441788  59.8711967  45.3052711  76.1520767  59.9453592
  45.9098530  75.1659203  58.9691639  66.1654663  54.9183702  18.7840652
  65.8803225  55.5112076  19.4793808  66.2553835  54.0687275  19.2156398
  69.5987082  42.5746346  22.9577684  70.4418898  43.0205393  23.0380678
  69.6090984  42.1994019  22.0772457  15.8862448  12.4881387   6.2439615
  15.5688512  11.7723000   6.7944789  16.6200912  12.8595793   6.7335886
  75.5111217  40.9158421  51.2927437  75.8301401  40.9343290  50.3904581
  74.6411800  41.3125515  51.2473726   6.9737071   0.6783974  15.2614570
   6.8137848   0.5413817  14.3277097   6.1071920   0.8498148  15.6302381
   2.2291100  14.5474267  46.7188883   1.4737733  14.3365562  46.1700439
   2.9438129  14.6898544  46.0982895  75.8510971  76.3246870   6.6171706
  75.1244068  75.7331944   6.8128401  76.6155386  75.9029245   7.0095640
  16.3484442  63.5628891  55.3643847  15.4274344  63.4597349  55.1249456
  16.6535795  62.6712942  55.5322695  77.6236057  30.0906467   9.4067585
  77.8511477  29.8287559  10.2988744  76.9220304  29.4910741   9.1527063
   4.0756446  46.8104982  55.0300407   4.5700479  46.0460424  54.7344017
   3.2201236  46.4607906  55.2790785  39.4428158  37.1417761  31.6120720
  38.7396669  36.9817138  30.9826350  39.1913533  37.9546571  32.0505071
  37.8491759  68.2461309  18.2043850  38.4095740  67.9865456  18.9356887
  37.0275068  67.7786636  18.3546031  34.7206926  13.9137208  62.3244905
  35.0272679  13.0328429  62.1093178  35.1928806  14.4860423  61.7197466
  73.6186361  41.5623713  22.8185534  73.2905579  42.2932148  23.3424497
  73.3542395  40.7814217  23.3048081  81.0508060   2.1656080   1.8893954
  81.1720085   1.6858982   2.7087975  81.0739517   1.4906707   1.2110475
  11.5089190   9.9646807  52.6593447  12.4096477   9.8270887  52.3661089
  10.9752369   9.7886544  51.8844700  13.4392357  52.3767233  30.1059651
  14.3745112  52.5739813  30.1567817  13.1602478  52.3021841  31.0185671
  52.1820545  18.1461799  51.6433716  51.4027929  18.6331844  51.3753986
  51.8490458  17.2893190  51.9100666  25.1598263  25.6967568  44.4745636
  25.8755636  25.0903702  44.6649456  24.4515872  25.1382565  44.1540861
  22.4908519  37.2011256  62.1046066  23.2988787  37.1769547  61.5920210
  22.3755836  38.1250668  62.3265934   7.3541999  33.4558558  42.0137310
   8.2423484  33.4265518  41.6579723   7.4531966  33.8695431  42.8712273
  19.6478927  41.5945673   7.9976064  20.3440762  41.6973686   8.6464459
  19.4790518  40.6526518   7.9746652  17.7396905  43.6395693  54.1879416
  17.6186085  43.1730461  55.0149393  18.6697006  43.5341740  53.9874315
   7.7694273  20.0380087  28.8392234   8.0604184  20.4440784  28.0227280
   6.8212581  19.9526358  28.7396312  18.9213455  46.4972305  38.3633018
  18.0850017  46.9073677  38.5836458  19.5034981  47.2311163  38.1664658
  74.0761900  22.2797227  13.8844383  73.2383204  21.8730497  14.1054022
  74.5963144  21.5685797  13.5103035  18.2780063   9.5188540  25.9359407
  18.8565266  10.2787411  25.8717608  17.5741172   9.7004420  25.3132057
  23.9051008  47.2153950  36.1350656  23.7263703  46.3137102  35.8681321
  23.9929485  47.6959276  35.3118992  39.7424102  47.2898531  22.5984907
  39.8394847  46.8602371  21.7486453  40.5783176  47.7345562  22.7389359
  45.3362846  24.4649887  63.1430531  44.7715473  23.9536309  62.5635576
  44.8247671  24.5689678  63.9454079  38.9976287  10.5868804  44.9225903
  39.2810464  10.2688479  44.0654087  39.5877481  10.1598620  45.5435991
  15.3960824  24.0787244  60.0734854  15.4751384  24.9511957  59.6877718
  15.5877280  23.4796143  59.3519831  77.6782560  23.6276460  36.7592907
  78.0706167  23.2379675  37.5405931  78.0641365  24.5021296  36.7082262
  37.8314400  34.0772080   9.8961198  37.3681259  33.7645125  10.6731606
  37.5916266  33.4563041   9.2082238  27.2886372  50.5310392   9.4598472
  26.3431883  50.3869915   9.4999558  27.3809910  51.4672041   9.2829484
  34.4540763  33.0690694  47.0043468  34.7056794  32.8795171  47.9082298
  34.8992014  32.3985434  46.4861870  18.5900271  22.0229769  22.5558162
  19.0286219  21.5436554  23.2587481  18.0211425  22.6452780  23.0089617
  26.1821389  65.8195782  10.0814223  26.3742471  64.9763584   9.6711785
  27.0415521  66.1855555  10.2904749  46.9971371  16.6558576  20.6638122
  47.7834272  17.1995425  20.6149387  46.3005543  17.2099364  20.3116775
  19.5002866  35.2136135  -0.0196180  19.0423715  34.4205713  -0.2982414
  19.8281169  35.0059867   0.8553962  53.1850338  10.8086216  41.3210630
  52.3489618  11.1164749  40.9711504  53.2039785  11.1370611  42.2199535
   7.8009164  76.1245394   3.7743729   8.1262565  76.5167522   2.9640925
   6.8544531  76.0607672   3.6464232  67.3542023   0.9303008  63.8637590
  67.2330236   1.8175963  64.2017746  67.3149300   0.3710108  64.6395683
  64.6603918  44.1991854  53.7868547  64.6010828  43.2633209  53.5948324
  63.7701797  44.5268440  53.6588144  16.9443083  11.3014853  53.9991999
  17.6670909  11.4498746  53.3894491  16.2130976  11.7957616  53.6287212
  25.1007962  34.6239829  32.3812962  24.8453140  34.1586781  31.5847707
  24.8455095  35.5323648  32.2203565  24.3106294  17.0145762  35.9207439
  23.8576746  17.6819313  35.4052830  24.3825507  17.3957586  36.7958188
  28.2294488  74.9204302  25.8696771  28.9789867  74.4682360  26.2569070
  27.8129458  75.3678322  26.6062856   4.6558124  26.0395503  56.5997124
   5.4956073  25.7971406  56.2095642   4.1333836  26.3592935  55.8641386
  49.3220139  10.4859531   8.1037164  48.9279318   9.8779374   8.7292141
  49.9032497   9.9407780   7.5734478  21.3525796  18.4454858  57.0406055
  21.7949271  18.9895952  57.6921463  20.9114575  19.0710115  56.4658356
  67.2523260  13.7221956  34.4708443  67.9176521  14.1671395  34.9958205
  67.6196003  13.7003589  33.5871792  40.9193897  27.1956611  58.1687689
  40.9586525  27.5531650  57.2817039  41.4578104  27.7905059  58.6907816
  32.5686026  32.0935106  21.0385513  32.9663205  32.7912259  20.5177402
  32.3095465  31.4329839  20.3960347  77.0647860  24.3596673  63.8767767
  77.8701067  24.4322658  63.3645105  77.3057318  24.6750784  64.7478056
  17.6944578  40.0295639  10.0825691  18.3143163  39.5178080   9.5628482
  17.8382146  39.7375178  10.9827209  22.1748543  41.5770292   9.4133353
  23.0565286  41.8336582   9.1431129  21.9041014  42.2599697  10.0269425
  12.3118889  24.0985608  53.8835335  12.7685332  23.5306525  54.5041656
  11.5818799  23.5674834  53.5652924  72.0697880  16.4402103  18.3552659
  71.3733435  17.0932508  18.4241116  71.7331982  15.6801534  18.8298774
  25.0656581  20.4315209  24.4260883  24.9666858  19.5076072  24.6559095
  25.9912539  20.6192541  24.5818496  48.0505800  24.9065733  56.2021065
  47.5849533  25.5728865  55.6966829  47.8297567  25.0993657  57.1133137
  16.0911572  77.6188135  33.5269475  16.9608009  77.3372841  33.8110065
  16.2441945  78.4471083  33.0722642   1.2175644  50.8994913  40.2673864
   1.8437985  50.3154802  39.8396063   0.3706916  50.6593704  39.8913789
   8.6022007  19.5882297  49.0163374   8.5614717  18.9183187  48.3338499
   8.7466544  19.0974617  49.8253584  64.3721962  50.2036667  49.9893522
  65.3042269  50.3033257  49.7953939  63.9320564  50.7465506  49.3352938
   3.0945775  11.7423737   9.1526091   3.7581313  12.4217880   9.2722923
   2.6176500  12.0091653   8.3667368  22.8005338  55.7057619  12.0043421
  21.9304800  55.3512669  12.1875632  23.2796383  54.9748135  11.6139483
  36.4099288  57.4863052  26.2741232  36.8045735  56.9156742  26.9335699
  37.1554732  57.8736544  25.8154774  59.5284462  13.2904661  36.3333106
  58.6849499  13.7423813  36.3560104  59.3182898  12.4059367  36.0338569
  35.5927753  15.5004728  28.0188870  36.0333395  16.3414574  28.1408644
  36.1600304  14.8669577  28.4583306  28.3686185  38.2706571  63.2246065
  29.3204045  38.2166982  63.1384325  28.1187773  37.4461937  63.6418200
   6.0266203  10.6428075  64.6840334   6.8362379  10.9949005  64.3141937
   5.3668648  10.7989860  64.0083408  81.6248417  66.1140203  64.7809553
  81.5901661  65.1990509  65.0599957  81.8212795  66.6011810  65.5811548
  67.0211983  49.1326809  47.3406172  67.3383856  49.2124224  48.2402086
  67.2451591  49.9691296  46.9326591  18.0321002  15.0456834  25.3439856
  17.2898245  15.0484073  24.7396255  18.4447348  14.1920292  25.2126837
  13.1946290  47.3900509  29.7733855  13.5505319  46.8706036  29.0524554
  13.9546978  47.5980043  30.3167844  75.6800461  41.5458155  13.6761808
  76.2340117  42.3186159  13.7863660  76.2689114  40.8768225  13.3270061
  35.7093334  26.8267775  51.3962126  36.4277554  26.3069010  51.0358906
  35.2124834  27.1125150  50.6295776   3.3372387  46.3170052  36.9224715
   2.8682956  45.7979155  36.2691212   2.6466706  46.7323875  37.4390030
  69.9017096  33.6782217   4.0901360  70.4753160  33.0289006   3.6832100
  69.8544168  33.4137607   5.0088608   9.1877615  33.1079578   9.1959399
   9.3909478  32.2355962   9.5334750   8.2312936  33.1437874   9.1850889
  60.1850605  45.5667257  66.0267019  60.2096653  44.6330500  66.2361574
  61.0456991  45.7504892  65.6501865   2.1244715  38.1853485  27.1153307
   1.2575187  37.8851986  26.8423200   2.4066038  38.7723255  26.4138365
  12.2090624  48.9956189   0.2066046  12.9012202  49.5449985  -0.1612705
  11.5018557  49.6070124   0.4122406  55.9424734  34.2124939   4.9626935
  56.5322781  33.8735628   5.6361073  56.4699841  34.8495007   4.4808367
   6.7986637  38.2284522  14.8014557   5.9712416  37.7580070  14.9028695
   7.4448031  37.6735020  15.2382207  20.4433656  33.2760739  54.4738150
  19.8645556  34.0363431  54.4172239  20.5479550  33.1240606  55.4130602
  69.5523262  18.1403732  57.6289654  69.1410685  18.9289463  57.9828739
  69.2046070  18.0671895  56.7401648  53.2650137   5.8309591   2.9304284
  53.2723856   6.4281660   3.6784402  53.2388973   6.4056313   2.1653783
   2.9540759  51.3733053  44.2041254   2.1502253  51.3883257  43.6846733
   3.3119100  52.2568464  44.1172838  14.7955894   8.6300838  55.3756523
  14.1777301   9.2813045  55.7079029  15.1665998   8.2290381  56.1616182
  30.7405233  76.5007210   5.2154350  31.5319514  77.0376635   5.1758575
  30.0866032  77.0016575   4.7279066  34.4443893  48.1949329  21.9243813
  34.0808702  49.0339661  21.6413498  35.3494263  48.3945465  22.1637416
  17.8062904  53.7246418  13.9001620  16.9254875  53.3684444  13.7837863
  18.1497562  53.2680368  14.6681333  20.0852227  34.8233294  25.8140922
  19.8802614  34.0545821  26.3463044  20.0526547  34.5055485  24.9117684
   1.8564317  63.9322710  44.2561865   1.9690667  63.3705282  43.4893799
   1.7121990  63.3230639  44.9802685  64.6828938  19.8505151   8.0451930
  65.1006222  19.9516547   8.9004737  64.3309832  20.7182002   7.8464091
  15.0602257  55.9249210  58.2267809  15.1452351  55.1839399  57.6268196
  14.1965652  55.8134937  58.6241531  32.7164888  41.7980194  27.1324587
  32.3951936  40.9810066  26.7510247  33.4601855  41.5333986  27.6738667
  69.4644833  44.7498608  65.6459427  69.5696449  45.3153419  64.8808241
  69.0308523  45.3035879  66.2952328  13.4489977  56.6720057  44.3780184
  14.3655729  56.9143724  44.5098543  13.4628332  56.0849237  43.6221266
  63.8025236  41.6789865   3.6987776  64.0461302  42.0096827   4.5633721
  64.0449381  42.3822069   3.0963308  29.3151283  52.8163481  27.9332137
  29.2605805  51.9767618  27.4767613  29.9550629  52.6691961  28.6296749
  46.7342091  16.1868513  62.6735544  45.9683800  16.7038488  62.4236584
  46.5250778  15.2967381  62.3903704  29.2339492  34.5977831  25.9732246
  28.8185000  34.6620107  25.1132774  30.1666641  34.4994760  25.7818770
  61.6290855  56.7919827   3.1264585  61.4111757  56.0487318   2.5640291
  62.5429964  56.9883728   2.9204664  31.0793948   5.6350362  34.3252063
  31.3062811   6.2832248  34.9919963  30.1605892   5.4276806  34.4955897
   5.9481317  39.3091750   4.4239855   5.3811276  39.3142128   5.1951617
   5.7256275  40.1150513   3.9578396   7.1915221  10.9939432  38.2512069
   7.3013347  10.1635420  37.7879524   7.8464466  10.9674811  38.9487791
  21.4098144  73.1177187  16.3276768  20.6530499  72.5606728  16.1453712
  22.0677257  72.8447580  15.6882405  34.5014858  50.5489540  32.7143145
  34.7241640  51.3041735  33.2586384  35.3226495  50.0644970  32.6293564
  36.7759895   6.3400525  38.4067869  36.4472413   7.0696259  38.9320302
  37.2646928   5.7993162  39.0272760  17.2385585   6.2699270  22.7947426
  16.3874185   6.6700351  22.9728007  17.1104383   5.7879871  21.9777036
   5.0302041  34.2094445  40.2926588   4.8887557  35.1447725  40.1464224
   5.9402454  34.1473222  40.5828238  80.8253670   8.8384509  66.1028433
  81.0154343   9.6822321  65.6927919  80.2840614   8.3772987  65.4620934
  74.8417664  26.5283298  35.7763672  73.9315224  26.8022013  35.6637549
  75.2707911  27.2829819  36.1796880  14.4582689  34.9496794  57.3773527
  13.9393508  35.7388783  57.2220373  14.0157139  34.5112133  58.1040764
  33.5549212  27.1843219  17.7074981  32.8836513  26.5128183  17.5862098
  33.2322145  27.9376554  17.2129464  31.5461063  23.4171343  57.7861547
  32.1482468  22.8827977  58.3039808  31.6417265  24.3000484  58.1432962
  18.1211448  65.3685093  64.0255737  17.5339329  64.9661350  64.6655035
  18.8483548  65.7073498  64.5476723  30.4142737  17.8927267  55.6431770
  30.8077765  17.2696853  55.0322676  30.0093675  18.5545957  55.0826311
  32.6957154  22.8421664  60.3175306  32.4435925  23.7617612  60.2337980
  33.6522055  22.8581238  60.3507328  24.5229006  67.5398207  56.2842655
  24.4184041  67.0549774  57.1029472  24.2495346  66.9238234  55.6045246
  11.5674329  39.3080807  31.4889193  10.9733570  38.5993481  31.7359066
  11.9206965  39.0398479  30.6406927   0.0217079  44.5323515  24.2545414
   0.3481969  44.3103075  25.1265121   0.5324972  45.2993727  23.9956832
  33.8553047  39.1136646  47.8966808  33.7136006  39.1365695  48.8430548
  34.4609952  39.8353314  47.7276564   7.7933538  18.3452177  32.4610710
   7.0314431  18.8099897  32.1150780   7.5581688  18.1400287  33.3659554
  10.0388956  60.7460737  15.7533503   9.8801029  59.8409605  16.0212815
  10.8150017  60.6979752  15.1951587  32.9933071  47.9090023  17.0409906
  32.4954724  47.3582077  17.6451588  32.8501463  47.5121593  16.1817753
  45.9470367  61.0899067   9.8732579  45.6900692  60.9090185   8.9691120
  46.9039917  61.0747433   9.8578846  49.6302080  24.0771103  49.4623566
  48.8567209  24.2352700  50.0035906  50.1772165  23.4956074  49.9904346
  18.7886047   1.2575740  32.4005365  19.2937732   1.2331247  33.2132101
  19.4493508   1.2860022  31.7085576  41.7603159  73.9517307  28.2737589
  42.5940514  73.6650133  27.9010463  41.8081045  74.9076414  28.2604289
  27.0528865  37.2537112  46.1748505  26.4487720  37.6564336  45.5510759
  27.1438408  36.3505268  45.8711767  65.3584337  45.8985233  11.7123020
  64.5126343  46.0594034  12.1306002  65.2444506  46.2093878  10.8141923
  45.7020664  72.4214983  41.8470287  46.3223648  71.8389893  42.2853708
  45.6786299  73.2042885  42.3974133  33.2912326  42.1971655  35.0618887
  33.1577015  42.8397036  35.7586956  32.4210000  41.8313599  34.9034214
  29.6933103  44.7566891  38.6048603  30.1408935  44.6756697  37.7626395
  30.3963923  44.9106026  39.2359066  14.5853353  46.4236546   9.2724776
  13.8628232  46.0814476   8.7460732  14.5099378  47.3745871   9.1932976
  50.5832338  40.7859850  13.9953947  51.4679193  41.1195517  14.1446936
  50.6892633  40.1226902  13.3134615  76.2021017  29.0825844  53.5401154
  75.3453016  29.2123127  53.9466763  76.6795826  29.8914695  53.7243700
  15.7215106  47.2167349  52.6650476  15.6845331  46.5461254  53.3470631
  15.9721804  48.0159569  53.1283426  73.5091639  76.2260580  17.8700888
  73.5773325  75.5730581  17.1735442  73.0929422  76.9797802  17.4518895
  25.5240178  43.4054852  36.9679260  26.0480475  43.5396910  36.1782336
  26.1558533  43.4521389  37.6854491   0.4593167  12.7172565  49.8588943
  -0.4197954  13.0371606  49.6562719   0.6546187  12.0940661  49.1590881
  75.2266932  10.2473330  11.1118925  75.3663015   9.5536423  11.7565119
  75.2275753  11.0551560  11.6253638  36.6318560  38.3451557  15.7065117
  35.8777499  38.5386062  15.1496160  36.2755966  38.3283949  16.5947855
   5.1544738  38.4833550  58.3847475   4.7482038  38.6064696  59.2426634
   5.8380634  37.8303790  58.5349369  26.9655275  53.2115221  34.3256307
  27.3373175  52.3612547  34.5602632  27.6946306  53.6916256  33.9330220
  28.8614154  55.1455212  33.0061722  28.2213902  55.6471777  32.5012589
  29.6168113  55.0660038  32.4236894  16.6300786  19.1555595  51.9611406
  15.9745181  19.7896767  52.2516012  16.3637257  18.9265144  51.0707331
  39.7519493  22.7164674  55.6726503  40.6945610  22.7920699  55.8209801
  39.4497538  23.6206245  55.5865955  14.8312867  28.9905596  48.9611197
  14.0995204  29.4470859  49.3762541  15.5343926  29.0256190  49.6096897
  22.3666501  54.1660213  37.4554038  22.7506661  53.9860582  36.5972805
  23.0946374  54.5028782  37.9777026  24.1466188  35.5922031  43.3224392
  24.8959351  34.9967265  43.3095980  23.5847354  35.2551126  44.0202141
  70.5206108  49.2697382  43.8017130  71.4561224  49.2856979  44.0037012
  70.1290894  49.8741579  44.4322872   2.5173348  62.9150152  38.4178853
   1.9615392  62.1839094  38.6877203   3.3896926  62.6829195  38.7362480
  16.2451661  48.3691978  16.1030304  16.6978514  47.7139282  15.5720580
  16.3574421  49.1879702  15.6200874  76.2945461  63.4475660  31.9549084
  76.9407225  62.8039265  31.6643786  75.4523659  63.0780363  31.6895556
  37.9800224  24.7270799  15.1337135  37.8755546  24.5803761  14.1936088
  38.3765459  23.9191198  15.4595995  12.0878386  50.2265024  43.3859682
  12.2820270  50.6323195  44.2308569  12.9397380  50.1476526  42.9566908
  36.1172462  70.6193972  66.7528200  36.8300319  71.2085199  67.0000076
  36.3348293  69.7891665  67.1766138  23.7170386  43.5129356  61.5622616
  24.0161180  44.3984938  61.3559437  23.2924151  43.5963726  62.4160576
  26.0622859  31.2172365  47.4162006  26.6627717  30.9376621  46.7251968
  25.5124664  31.8818903  47.0012712  23.8435721  27.0369434  47.0507669
  23.9608788  26.4822936  46.2795115  23.5046148  26.4449239  47.7222204
   5.8340693  57.6480818  36.6775799   6.6497612  58.1442881  36.7458391
   6.1074662  56.7315102  36.7147756  32.7261686  67.8312254  19.3402934
  32.6075006  68.2445955  20.1954389  31.8929815  67.3923731  19.1687143
  24.9585485  24.7537398   1.8052800  24.3579555  24.4763017   1.1135086
  24.3913674  25.1305676   2.4779880   7.3633981  33.3018637  25.3683519
   6.9290936  32.8555584  26.0952806   8.2823384  33.3504558  25.6318259
  25.9916496  37.9684305  11.6514349  26.7339969  37.6074386  11.1668336
  25.3417301  38.1705260  10.9783864  28.5230350  47.2205544  18.9300704
  28.6680341  48.1473064  19.1207004  27.8325534  46.9561577  19.5379865
  18.3162951  42.0507193  39.3276262  17.7104104  41.4562464  39.7700477
  19.1732192  41.8382215  39.6974349   1.4081398  50.0533819  31.2653065
   1.5031540  49.9763632  30.3159523   1.9350833  50.8179998  31.4975047
  35.2808976  28.4453821  42.2474146  35.7631230  29.2522931  42.0668983
  35.4548025  28.2639575  43.1710339  21.7141700  47.4239492  41.2199640
  21.7096639  47.5573587  40.2721167  22.4894953  47.8954887  41.5245247
   9.5661736  38.5166454  19.9990773   8.9618301  38.2303190  19.3142295
   9.3662977  37.9524970  20.7460833  39.6302629  15.3378260  49.1131783
  39.6766639  16.2882113  49.0090275  38.9530373  15.0619721  48.4955215
  -0.0184761  54.4479418  53.5869932   0.3835599  53.6761570  53.9856815
   0.4424706  55.1886034  53.9809179  76.8369722  28.9393020  47.6486588
  75.9647131  29.0977740  48.0096054  77.2570992  28.3590555  48.2835102
  30.0980043  21.3112140  45.2402878  30.6046128  21.5119863  44.4533539
  29.1897511  21.4807701  44.9901676   3.9550209  12.9558468  23.0650735
   4.8899370  12.9855132  22.8618908   3.6714059  12.0931685  22.7624536
   3.2801387  36.2531519  33.4450817   3.7503466  36.5943456  32.6843429
   3.4721315  36.8772221  34.1450143  28.9272714  45.5135632  22.8160071
  28.7202787  44.9451637  22.0741820  28.8757682  46.4005327  22.4598169
  15.8222353  44.8707104  37.9605007  16.6049397  44.5405531  37.5193644
  15.1143277  44.3093586  37.6442981  41.3983583  29.8196840   6.8500292
  42.1744537  30.1446128   6.3935995  41.5376806  30.0658703   7.7644759
  58.4062147   7.9307634  18.1764460  58.3943558   8.7813765  18.6152494
  57.7430248   7.4152350  18.6353970  26.3895988  50.8029413  36.6261363
  25.5981350  51.0035276  37.1257162  26.0882497  50.7254744  35.7209182
  32.5043631  20.6099606  58.1598186  33.2342148  20.1844335  57.7098417
  32.8432608  20.8064461  59.0331841  14.3087685  48.8377619  58.5740900
  14.5496631  48.8782644  57.6485825  13.6428547  48.1515932  58.6184454
  18.7888086  28.2492757  25.5078101  18.0418992  28.6419988  25.9596133
  18.4360886  27.9645753  24.6647406  16.8313348  67.3713827  60.3520632
  17.1070564  66.4592314  60.2616072  17.2702074  67.6766443  61.1460686
   4.9170339  46.2793207  20.9735680   4.2830718  45.7237005  21.4270115
   5.5607271  46.5054178  21.6449618  79.8020983  17.5216532   5.9159952
  78.8791609  17.7012026   5.7366061  80.0778103  16.9478405   5.2011842
  73.5543060  52.2078228  59.4722700  72.9573011  52.9417324  59.6178579
  73.0506945  51.4350367  59.7280216  47.6550436  57.9177380  11.3358033
  46.7171574  58.1089067  11.3285267  47.7420807  57.1678782  11.9243300
  24.1186595  47.4650860  61.6562843  24.5112228  46.7880774  61.1051178
  23.4708452  46.9983053  62.1841955  31.3737869  76.4760637  25.6183815
  31.1424875  76.9464254  26.4193130  32.3305798  76.4946413  25.5975366
  14.7093177   8.8353515  10.2509737  15.2134252   8.5748810  11.0218573
  14.9753773   8.2168496   9.5706058   6.5597117  38.4228730  29.5945692
   6.6928357  38.4725952  30.5411601   5.6317276  38.2108188  29.4940186
  23.5222840   6.6309565  13.3929491  23.6681962   5.7690036  13.0031037
  24.1364837   7.2068501  12.9376066  61.7246962  10.6179082  36.3188314
  62.2524500  10.7818007  35.5372620  62.3359299  10.7257843  37.0475197
  22.1771693  63.8399363   1.9095574  21.9183755  64.6977186   2.2464027
  23.0737162  63.9652824   1.5985543  33.0913782  12.4179280  48.2394791
  32.9408669  13.2171369  48.7443018  32.6875138  12.5920308  47.3892975
  37.8762293  55.8098459  28.4522533  38.7556171  56.1567259  28.6025453
  38.0180550  55.0059652  27.9523611   1.8802093  77.2103739  16.5750813
   2.2165941  77.5850868  15.7610393   1.6925411  77.9686880  17.1282291
  20.5886698   2.2219183  61.9296789  20.1412392   2.7749056  62.5701857
  20.1578188   2.4214062  61.0985374  21.2066698  43.1606483  26.6973662
  20.6915092  43.1582069  25.8906221  21.9246316  43.7687111  26.5212393
  27.8621674   7.7377301  66.9725466  27.3542094   7.1964347  67.5768709
  28.4891438   7.1318656  66.5775013  26.5444994  40.6007338  58.8614511
  26.6569376  40.2180815  59.7316074  27.2334933  41.2623453  58.7998962
  26.8378425  30.9851480  29.0757442  27.4472404  30.9351206  29.8121977
  27.2097707  31.6551805  28.5021949  21.2962770  36.6356754  57.5083113
  20.7039785  37.1251965  56.9375372  21.4276719  37.2078466  58.2643461
  54.4249535   8.1755489  42.5527096  54.0499735   8.8032478  41.9349575
  53.8848877   7.3913449  42.4548244  27.9351330  36.1865997  67.2845507
  27.3984909  35.5801487  67.7949047  27.3718047  36.4510775  66.5572643
  18.6247563  44.0613508  37.4468374  18.7067568  43.5797739  38.2699966
  18.6080325  44.9819231  37.7085567  72.3633099  35.6494141  21.6346669
  72.9739332  35.5517483  22.3653054  72.3670673  36.5872407  21.4431047
  31.6387105  39.7601151  67.3288107  31.0799313  40.5088472  67.5371313
  31.1838436  39.0086389  67.7090883  71.5753746  23.2447743  32.5334048
  71.6124392  23.8145971  33.3016253  72.4850607  23.1729269  32.2443700
  34.4880462  10.8816886  51.6809750  35.3567100  10.6977606  51.3234472
  34.5900869  10.7722878  52.6264143  25.2435279  58.9563227  30.8190322
  25.0732136  59.7642517  31.3032556  26.1824727  58.9810133  30.6346321
  23.9684510  13.6070180  29.2542577  23.5343146  12.7748513  29.0664935
  23.3066583  14.1241705  29.7134042   2.1872434  36.6058755  52.6141119
   2.9849643  36.0859466  52.7118111   1.8175581  36.3224840  51.7778969
  39.3451142  63.6571932  32.1899223  38.5110903  63.4833384  32.6262784
  39.9772644  63.7363482  32.9043150  21.0383797  63.9659977  36.8679571
  20.9307241  63.6928940  35.9568834  21.9686937  63.8327694  37.0496058
  55.9320879  26.3286805  49.8370981  56.5673876  26.4057112  49.1252708
  56.3993311  25.8544421  50.5248547  18.7605619  72.6740837  38.3149910
  19.6515572  73.0096722  38.2163024  18.3422077  72.8540754  37.4730802
  30.5482316  51.5465403  24.5503187  29.6735454  51.4101315  24.9143934
  30.4507399  52.3006868  23.9689493  68.3483124  26.1708093  52.1362257
  68.5291100  26.7007732  51.3599014  67.4412298  26.3775229  52.3614073
   6.3833439  61.6224003  18.7773716   5.9358865  61.1865759  18.0520618
   7.2640556  61.2474680  18.7754178  40.1762486  32.3645258  23.5917711
  41.0954523  32.5825524  23.7459254  39.8650837  33.0460763  22.9960394
  18.9526868  42.1104193  48.0475426  19.1785300  42.9844952  48.3656931
  18.5788441  41.6674614  48.8092947  41.6564894  33.1652021  19.9465120
  41.5469313  33.4798956  19.0491855  40.8768559  33.4765244  20.4063797
  26.1874533  74.5692682  22.3926640  26.5586066  75.4281282  22.5947499
  26.8171573  74.1717052  21.7912912  70.1744747   6.5990978  25.0522375
  69.8272085   7.4182957  24.6993160  70.3335953   6.0545510  24.2812777
  16.8599975  31.5863633  56.7436743  16.1547220  31.3025999  57.3253059
  16.4246595  32.1294546  56.0865831  44.9144602  56.6454840  42.8541756
  44.2610788  57.0766306  42.3033285  45.1138639  55.8295155  42.3951960
  68.9396000  65.0283384  43.9595413  69.3825912  64.1819000  44.0189695
  69.6252203  65.6390142  43.6889267  56.4085865  63.0907345  25.3106904
  56.6405725  63.9480925  24.9538374  57.2483110  62.6496744  25.4393673
  33.1576157  37.1761250  19.9285007  32.5212383  37.1227455  19.2154765
  32.6669645  36.9142509  20.7075477  58.6446571  57.4426937  20.0036144
  57.7399921  57.2811508  19.7358263  59.1211891  56.6622448  19.7206783
  48.5872936  53.8431072  40.7217073  49.1313696  54.5886755  40.4680490
  48.5979080  53.8534832  41.6787910  40.1675510  57.8468180  21.2860680
  40.0308180  57.6491928  20.3595257  40.1773500  56.9909668  21.7146087
  16.2991917  47.1943569  35.9402370  16.4620233  46.9454002  36.8500400
  17.1576369  47.1414042  35.5201197   1.0293271   3.4757262  38.6581612
   1.0679398   3.6752495  37.7227831   1.1472277   4.3224457  39.0887403
  20.9500360  43.4245586  16.0938644  21.8641281  43.5651731  15.8470976
  20.4758501  43.4175205  15.2624011  26.9253349  30.6527328  41.3783407
  26.1998367  30.0649524  41.1676455  27.6613760  30.0687408  41.5611792
  12.0572126  44.8617554  17.5443065  11.7131650  45.6154776  18.0236447
  11.4385831  44.7323799  16.8254232  45.6103182  63.9430666   5.3043777
  46.1588144  64.6113253   4.8935118  45.0708771  63.6036634   4.5902053
  16.3281059  37.8327394   7.2917247  16.4614332  37.5323033   8.1907207
  16.1603045  37.0324373   6.7941386  63.4663486   3.1209877  29.2811084
  63.0370903   3.7936056  29.8098350  64.2717791   3.5363898  28.9729571
  55.7552862  59.4757891  40.9539175  56.4807844  59.5917225  40.3403664
  54.9696589  59.5418453  40.4110956  67.0452499   6.7903787  27.9535437
  67.9264832   6.5473253  28.2374191  66.5857458   7.0131987  28.7631369
   6.4574832  76.7915201  66.5512896   6.0509652  77.6432037  66.7113066
   7.3108351  76.8488932  66.9810963  40.3601837  54.5248795  36.7651939
  39.9232602  53.8143969  37.2348166  41.2494230  54.5347643  37.1192956
  31.1717582  55.3330755  25.4555535  31.3688874  54.7043371  26.1498594
  30.4802108  55.8846951  25.8212209  13.1497490  41.3965511  58.4754038
  12.6645780  41.0036278  59.2009735  12.8586566  42.3082590  58.4585047
  12.9491174  41.3744164  21.4386368  12.3779869  40.8500195  21.9999266
  12.4674249  42.1902657  21.3022661  72.1214628  42.7934170  55.5785704
  73.0160189  43.0465841  55.8064079  71.9179440  43.3091736  54.7983122
  20.9707093  64.6595144  29.0033412  20.8346868  63.8578272  29.5083404
  20.3369999  65.2799129  29.3635488   6.5263766  72.2294807  27.2731543
   5.9607327  72.3450661  28.0366445   7.2561640  72.8305817  27.4225473
  18.2264447  65.0492668  50.6406689  17.5223005  64.9996758  51.2871647
  17.8529537  64.6610165  49.8494673   1.9147792   5.5090404  44.4265079
   2.2281784   4.6502730  44.1427279   1.0356048   5.3427839  44.7665691
  62.7783680   0.8856636   9.8945796  62.3985147   1.0188075  10.7630360
  62.1825171   1.3414909   9.3000913  39.5762920  51.6210270  17.5021529
  39.7035098  50.7059669  17.7525651  38.8621306  51.5979862  16.8652284
  18.1782532  62.9172993  41.7205048  17.8593314  63.1492758  40.8483171
  18.5497475  62.0415115  41.6145897  27.5545740  38.2304525  29.7690988
  27.4989462  38.6447620  28.9080048  27.7833915  38.9444804  30.3641129
  53.0138254  57.3487473  51.4211369  53.3735132  58.2335901  51.4836836
  52.1308279  57.4230003  51.7831230  20.7837820  47.8489208  11.6265035
  21.1521578  47.9590607  12.5030875  19.8740387  48.1342030  11.7114294
  43.5803175  68.6382723  34.9508953  43.8207006  67.7280235  34.7780013
  44.4093323  69.0697908  35.1576829   9.2452872  52.8871202  21.8606067
   8.8713026  52.1080685  22.2722435   8.6590642  53.5987377  22.1178484
  42.7400112  58.3062506  41.6310692  42.4419022  58.1771517  40.7306814
  43.5340500  58.8341618  41.5471029  21.8909407  72.0933867  19.1952372
  22.0395708  72.9906940  19.4935298  21.3061666  72.1848249  18.4429669
  66.8503523   1.3293780  48.1228256  67.5205708   1.0046400  47.5215101
  66.0262156   1.2070549  47.6515818  60.8201694  69.8802948  50.3139973
  59.8935413  69.6658754  50.4217625  61.2760401  69.2715502  50.8952475
  22.9504180  72.6500320  34.5833158  22.6888871  72.3664904  33.7072802
  23.1922674  73.5698318  34.4751120  61.4051676   7.4739188  52.4399137
  61.0321999   7.8436339  53.2401896  62.0099640   8.1456745  52.1249628
  45.7305908  15.0315595   9.3585044  46.1123037  15.2114081  10.2176785
  45.2104425  14.2386425   9.4887370  40.7463169  40.8707047  11.7069173
  41.2964964  40.8918428  12.4899137  40.0725460  40.2203321  11.9051075
  14.5978665  36.6401696  53.5652876  14.4281101  37.3737812  52.9743290
  13.8488555  36.0566401  53.4440041  72.9412842   0.9741660  30.2428818
  72.7796078   0.7322852  31.1547947  72.6865387   1.8953657  30.1906538
  81.8562508  61.2770653  30.1862574  82.7548695  61.2780142  29.8565507
  81.9245625  60.9078836  31.0667515  12.1025991  61.0318470  37.8855729
  12.4640298  60.9645700  37.0017886  12.6214421  60.4167986  38.4039855
  49.3180370  14.4197869  52.8469324  48.5050964  13.9244139  52.7471352
  49.8895359  13.8426805  53.3534622  24.5348048  55.9069920   5.6658947
  24.5606184  56.2611198   6.5548027  25.4114175  55.5493069   5.5250221
  63.7655354   5.7566261  49.0801096  64.6053267   5.6753856  49.5321941
  63.4964561   6.6619849  49.2355251  62.1115303  72.8539371   8.3141553
  62.5058937  72.5732660   9.1399497  61.2540054  72.4288225   8.3015567
  80.3363037  57.0076084  20.0769114  79.8335457  57.7644444  20.3780198
  79.8314714  56.2508488  20.3747272  37.1257877  60.8458757  41.8107986
  37.0468116  59.9634647  41.4483833  36.4918876  61.3654709  41.3164043
  72.9217386  57.4843884  42.5999928  72.6134729  56.7169380  43.0818892
  72.9872990  57.1869707  41.6925335  76.0207987  70.6104565  35.9472632
  75.7301950  71.5069962  35.7799244  76.9002199  70.5696630  35.5715132
  69.8814487  66.2397528  51.5222883  70.1712990  65.4386473  51.9586897
  70.6547642  66.8038511  51.5188456  72.1337223  44.1371632  40.0934029
  71.3384676  44.6361828  39.9069142  72.8092384  44.5545149  39.5588660
  35.1320601  70.0297785  42.8804874  34.9433827  69.1400909  43.1789732
  35.6431842  69.9105072  42.0800114  69.7141600   3.9726028  42.6031065
  70.0438166   3.6710429  43.4496403  70.4765463   3.9435458  42.0250463
  67.7175903  62.5470686  53.5237265  67.7129984  62.2951317  52.6002836
  68.6427355  62.5401640  53.7692738  37.9128122  15.9086740  35.9104800
  37.3890042  16.7090154  35.9467006  37.4202180  15.2761579  36.4334583
  72.0916414  55.4707479   9.2557108  72.1210051  55.1701260   8.3474183
  71.5925264  56.2868166   9.2218840  69.9405956  22.6435280  20.2363634
  69.8626995  21.8440485  19.7157919  70.8746338  22.8519154  20.2169681
   3.8556734  38.5930824   6.6779059   3.6053988  37.8168154   6.1769021
   3.4588152  38.4607172   7.5388443  58.0411816  61.2493181  21.5970850
  57.6165676  62.1026325  21.5088511  57.3728657  60.6200409  21.3257957
  29.1271162  70.9199095  28.8471389  29.9564457  71.3792229  28.9793253
  28.4628224  71.6076994  28.8905835  77.7263641  71.3472700  50.0177002
  77.4669504  71.1329937  49.1215849  78.6755419  71.2240505  50.0282288
   1.5083514  32.0784545   1.8720186   2.2342801  31.6147661   1.4545828
   1.9303557  32.6935816   2.4718209  52.3596764  54.5214319  33.2706809
  51.7506933  55.1730776  33.6181426  53.1504536  54.6265459  33.7996936
  34.7454810  43.4083080   1.6861621  34.3698215  42.6066494   1.3222182
  34.8896194  43.2069778   2.6107824  14.4231141  62.6057291  12.3959935
  13.5484636  62.9846001  12.3083735  14.7721207  62.9920816  13.1992114
  28.7567234  69.7154665  50.5939007  28.4866047  70.5536461  50.2187634
  28.9583087  69.9159765  51.5078974  20.0120616  48.6169195  20.7582188
  20.0280046  49.5426607  21.0010695  19.1391718  48.3175802  21.0125637
  68.7248421  14.7903526  31.2226963  68.7706089  15.6933761  31.5368390
  67.7893829  14.6245313  31.1058545  27.5079346   3.9019066  18.5696208
  26.6190362   4.2422026  18.4681690  27.5950980   3.7357092  19.5082438
  29.4927931  70.7611513  61.0398817  28.5553527  70.5790138  61.1051607
  29.5715690  71.3436651  60.2844334  45.5182886  54.9670458  29.7135139
  45.3995275  54.0181541  29.7551632  45.3596926  55.2677774  30.6082988
  35.9334207  55.4534721  60.7854652  35.2549362  56.1088371  60.6230307
  36.7558670  55.9134960  60.6175661  42.3804903  65.0845718   2.0652990
  41.5989208  65.1754093   2.6103944  42.3153687  65.7995272   1.4321890
  62.4186611  75.4932833  50.3810930  62.0269966  75.8314276  49.5758009
  62.3160553  76.2039328  51.0140896  22.7114177  50.5460024  41.7678261
  22.2527122  50.5814505  40.9284449  23.5206532  51.0352230  41.6193867
  55.7378961  21.9145094  67.4302358  56.3166007  21.4206969  68.0111677
  55.5218560  21.3002335  66.7286489  17.6322544   8.9787114  20.3172135
  17.0652437   9.3919110  20.9683633  17.3109066   9.3065387  19.4772744
  26.6762996  26.1456919  47.9365253  26.8339682  25.5500960  47.2039700
  27.3365998  26.8311071  47.8343391  29.6697474  63.6363268  11.1715829
  29.0034533  63.4964132  11.8444192  29.1804028  63.6496449  10.3490293
  17.7306628  44.9073839  26.9742990  17.7529109  44.3379831  26.2051940
  17.1174216  45.6037092  26.7391300  66.0770893  45.7354593  55.8775282
  65.3348303  46.2837696  56.1317778  65.7779121  45.2762222  55.0927830
   5.8502108  52.4057007  21.9701624   5.2094281  51.7140436  21.8051267
   5.3738672  53.2186794  21.8016529  31.6960430  72.6602030  11.2900031
  31.9163322  73.5278797  10.9511244  32.2435308  72.0595074  10.7843816
  49.8875332  45.8203888  13.9517927  50.7308292  46.0102272  14.3629444
  49.9129438  44.8797369  13.7764001  45.3019857  42.5511503  65.7776451
  45.5104208  42.2636032  64.8887634  46.1049795  42.3945093  66.2745285
  48.0584526  16.8640637  53.4665394  48.7488937  16.2458313  53.2271433
  48.4342337  17.7252734  53.2839489  33.8560724  76.8517876  42.8195429
  34.1605663  76.2480402  42.1420383  32.9040599  76.8624210  42.7205849
  58.3388853   3.6625260   7.6669407  59.1102457   3.4372124   7.1468729
  57.6696348   3.0387846   7.3853707  40.7983065  70.5769157  66.6302919
  39.8549628  70.7363701  66.6603136  40.8772802  69.6365690  66.4698458
  27.8560996  43.8102722  21.0270238  27.6017022  43.2120705  21.7296386
  27.0495343  43.9557219  20.5325246  62.5542641  31.3478851   2.2548971
  63.0366135  30.6509686   1.8100664  61.9022369  30.8880401   2.7837071
  33.6287928  58.4324360  29.9794340  33.3921814  58.2231569  29.0758586
  34.2024732  57.7152014  30.2490568  13.0404103  42.3734188  48.5083103
  12.2185802  42.1273851  48.0837011  13.2231879  43.2551146  48.1835985
  14.2674050  78.0632228  63.2338333  14.4847426  77.4836811  62.5036764
  15.1125130  78.2789513  63.6281490  20.5798984  23.1379986  63.5023880
  21.0894370  22.4033356  63.8442564  19.9967134  22.7437544  62.8537750
  24.3225193  57.1417427  42.9948139  24.8521733  56.8827915  42.2407293
  23.7269330  56.4053297  43.1333876  32.1980429  59.3724632  21.9272280
  31.6444039  59.9597025  22.4418783  32.7436328  58.9278603  22.5759935
  58.0021954  71.8345118  55.0016260  58.0188179  70.9904909  55.4528284
  57.3682547  71.7155695  54.2943764  67.2747564  51.4547348  60.8265638
  66.5833855  52.1066427  60.7114124  66.8200397  50.6786394  61.1538839
  38.9432359  35.1545858  35.7131290  39.1437840  34.5815158  34.9731278
  38.5446286  34.5758724  36.3630795  48.6137629  65.6885242  11.5923786
  48.4703159  66.6325331  11.6594636  49.0795851  65.4592991  12.3965549
  60.7027197  61.2181950  38.7310600  60.7979250  61.5265036  39.6322322
  61.2042618  60.4034138  38.7024236  54.1062927  21.1202979  43.1086206
  54.2409945  21.2183881  44.0512037  54.7343397  20.4475141  42.8456545
  78.1971836  56.7855740  38.2933950  79.0518379  56.7643118  37.8628778
  78.0050039  55.8686447  38.4896970  57.6987886  59.5796442  32.3162723
  57.6353312  59.2447281  33.2107186  57.9204082  60.5048037  32.4220943
  13.6315751  60.0306606  12.1867561  12.9631341  60.3134489  11.5626955
  14.0756464  60.8384895  12.4445295  54.3319035  73.5117388  35.8040881
  53.9559174  74.2561054  35.3342128  53.5803604  72.9584265  36.0168314
  54.3058300  37.8058124  57.6861811  54.4299221  37.4751949  56.7965031
  53.3815241  37.6439404  57.8751040  77.9049349  13.3996403  38.7590265
  78.6354589  12.8157175  38.5550642  78.2924318  14.0883923  39.2991185
   5.5237824  66.2762070  24.0982842   6.3472384  66.7503738  24.2137051
   5.6514907  65.7655191  23.2988358  80.1161480  31.0422325  13.0441928
  79.5526934  30.3203368  13.3228004  80.3277493  31.5070891  13.8537371
  22.4156690  54.0069199  33.2597685  22.4963117  54.1637135  32.3189473
  21.4722824  53.9593315  33.4146547  46.3140535  56.2700462  45.9148932
  45.4390383  56.4329386  45.5626917  46.8450689  56.9930458  45.5809355
  63.6254168  40.8783770  50.4681587  64.1373205  40.3685570  49.8402548
  62.7573299  40.4753590  50.4527950  18.9825225  52.2010994  35.7527661
  18.3799028  51.8080282  35.1214361  19.6746540  51.5488768  35.8613300
  43.6604214  70.1184177  21.3834023  43.4497166  70.1769447  20.4515171
  44.0408134  70.9704399  21.5969229  57.5414515  11.6202044  41.4597416
  57.6827240  12.1653843  42.2337246  57.6140690  10.7221246  41.7828655
  41.6148472  73.3207464  31.5471268  41.6746759  74.2510796  31.3300109
  41.3764477  73.3059692  32.4740458  63.9316034  37.8788280  48.8409376
  63.4756470  37.6113868  48.0429316  64.8427105  37.9913902  48.5699272
  22.0181775  10.8417439  31.5731621  22.8569722  10.9755278  31.1318469
  21.4589906  10.4402065  30.9080982  44.0598154  58.2953024  25.9165072
  44.9666548  58.1145573  25.6691170  44.1241407  58.7069368  26.7782807
  49.6738863  62.0214224  60.9622097  48.7780666  61.6843033  60.9527540
  49.7625494  62.4891758  60.1318026  25.6708741  71.7543745  55.2356577
  25.6593037  71.3207865  56.0889435  26.3569450  71.3009119  54.7458553
  48.3733702  55.5469179  26.9534516  47.9050303  56.2254667  27.4397278
  48.6844301  55.9896183  26.1638355  51.9922876  46.2909031  49.5741224
  51.1300230  45.8886576  49.4695902  51.9283962  46.7854929  50.3911495
  53.0042681  77.7716557  49.5275307  53.5041937  77.3519246  50.2276230
  53.6402926  77.9023532  48.8242388  39.1533470  46.2696981  11.9268537
  39.1764498  45.4317808  12.3890162  40.0331974  46.3666391  11.5625727
  15.6271613  70.8319283  36.9409966  15.0544095  71.5346909  36.6338849
  16.5122449  71.1805534  36.8346047  44.2918348  63.2017040  26.4160585
  44.1598177  63.4065008  25.4903913  44.3049240  64.0545177  26.8505383
  32.9496241  56.4251900  33.5999990  32.2686481  56.9642401  33.1975985
  33.1174111  56.8425703  34.4449091  21.4713573  67.5434256  44.3171453
  20.8591032  67.2806311  45.0043964  22.1473980  68.0417347  44.7763634
   3.1439301  25.5533075  37.2736979   3.2798749  24.9691463  38.0196929
   2.2792584  25.9356451  37.4233437  65.1630878  34.6044731  30.1034474
  64.5722008  33.8762617  29.9116325  65.3701353  34.5064878  31.0328364
  22.0978785  42.1031427  60.0505114  22.6384377  41.7424536  59.3477058
  22.6829767  42.6955032  60.5227375  55.4708195  71.4427090  32.6980305
  55.1560211  72.3466206  32.6887298  56.1099863  71.4190006  33.4101605
  57.4935579  10.1436067  24.9514818  57.5942326  10.5070961  25.8312392
  57.8589487  10.8126771  24.3726349  64.2660093   5.9065002  59.1162348
  65.0254345   6.3508755  59.4931078  64.2531443   6.1883140  58.2015467
  61.1056939   0.1980995  15.8649576  60.5919352  -0.5074622  16.2579775
  60.5808130   0.9854864  16.0090375  29.5112538  70.5160904  45.7812595
  28.6631131  70.7006168  45.3777266  30.1325011  71.0527849  45.2890778
  57.7135277  13.5051751  43.4987640  57.7135038  14.0768504  42.7310276
  58.0060768  14.0674424  44.2160511   6.9294411  33.0420446  55.4248524
   6.7187274  33.1026506  54.4931030   7.7850956  32.6137018  55.4495382
   4.2647246  10.8075631  54.1074705   5.1085597  10.8604968  53.6587238
   4.2028177  11.6268301  54.5985889  45.8166409   3.5822588  58.3717966
  46.0544491   4.4349068  58.7360382  46.4046049   2.9640165  58.8057470
  17.6629484  19.6902931  40.5780935  18.2970810  18.9863467  40.4418278
  18.1960905  20.4817295  40.6530476  18.0393684  68.8196564  50.4926205
  18.7135744  68.3705902  51.0025358  18.1757069  69.7482729  50.6805563
  73.8070250  61.6397285  46.9750834  74.7360277  61.7083979  47.1952534
  73.5961199  60.7161140  47.1117830  29.2634559  51.5190697  42.0948744
  29.8995590  51.2694740  41.4245701  29.5423913  51.0448742  42.8781796
  61.3900375  48.8493299  56.2705421  60.9326935  49.5216417  55.7655048
  60.8689976  48.0568266  56.1413336  48.0409479  73.2275677  59.3993378
  47.3802567  72.9528999  60.0351620  47.6497221  73.9814281  58.9578962
  73.8259888  14.1870618  50.8758926  73.6688042  14.3715000  51.8019104
  72.9545212  14.1892695  50.4799509  15.2090049  21.1356163  48.1563950
  15.6252217  21.5139079  48.9309216  15.3460860  21.7870259  47.4685717
  50.9409523  65.0053310  54.8448896  51.0712147  64.4788647  54.0561581
  50.4753828  65.7837629  54.5390797  57.8722000  41.5369940  58.1217194
  58.4297180  40.7664871  58.0134392  57.5916958  41.7564297  57.2332382
  30.1957870  12.2752523  20.1795220  30.1720715  12.8820932  20.9193945
  31.0310054  11.8169618  20.2723145  20.5438018  72.6941299  45.6192493
  20.6154275  73.6456394  45.6949329  19.7282338  72.5528145  45.1385117
  43.5485888  63.7305355  43.0359030  42.6306248  63.9997911  43.0686426
  43.9549303  64.1738462  43.7806129  76.9248152  51.4709139  18.8623619
  77.0037508  50.5776215  18.5276568  76.2277365  51.8630075  18.3364654
  53.6721945  77.5751448  23.9837289  54.5885181  77.6098394  24.2582726
  53.1752634  77.7195406  24.7889900  27.2197294  38.2735682   4.7474295
  27.0395327  39.2136168   4.7392458  26.5879631  37.9032183   4.1310322
  70.6222010  11.5711510  13.5582161  70.1403427  11.1539137  12.8441036
  69.9448204  11.8431401  14.1774166  64.1880655  30.3374863  61.3743448
  63.6922932  29.8323917  62.0187950  65.1039553  30.2032328  61.6179705
  49.1737080  52.2058296  38.7074542  48.2613754  51.9182968  38.7421894
  49.2365694  52.8848696  39.3791556  11.8454754  17.1818006  12.2072983
  12.7019620  17.5423086  12.4368536  11.3678646  17.9206681  11.8302131
  47.1834564  61.0402775  35.6133771  47.4205208  61.9541073  35.7713318
  46.4200783  60.8910036  36.1712289  33.4526587  64.4585085  17.3042750
  32.7126575  64.8347950  17.7807570  33.7363219  65.1557732  16.7130160
  79.2821407  31.8881822  41.8288422  78.6544466  32.4817991  41.4167166
  79.5729589  32.3538613  42.6129341  38.1522107  77.5762796  35.2371931
  37.3038983  77.8369617  35.5958557  38.3819056  76.7816162  35.7188416
  82.2877121   2.5302154  59.5616150  82.7801991   2.8516629  58.8063908
  81.4266968   2.9399833  59.4781208  27.6382470  18.4728897   1.9897735
  28.1344104  18.4777892   1.1712205  26.7438221  18.6925352   1.7290162
  48.0590296  55.7036781  48.1720066  48.9441538  55.5538797  47.8398132
  47.5035763  55.6800365  47.3928165  53.9886951   2.2760588   2.1938373
  54.2487049   2.2404759   3.1143585  53.7588882   1.3730428   1.9747868
  51.7852545  75.4675007  14.5031130  52.0713091  75.4631281  13.5896671
  52.1023226  76.3016415  14.8493981  59.5920992   3.0562016  49.5564318
  58.7392330   3.2739404  49.1803455  60.0425196   3.8974485  49.6316385
  79.1038275  10.6644058  62.7192116  79.1080427  11.5544200  63.0714703
  78.7472534  10.1281953  63.4274197  52.6174641   1.4888351  24.1076279
  52.5119114   1.6535042  23.1706262  51.8107462   1.0423526  24.3647146
  66.1404085   2.5409591  30.3944302  67.0743036   2.7508929  30.3944731
  65.7540035   3.1677181  31.0060620  64.7903156   3.7192172  41.1861801
  64.5791912   4.6380654  41.3516378  65.7207632   3.6452824  41.3983917
   1.4714020  70.5883694  22.6808524   1.9750433  71.0578823  23.3457828
   1.8977880  70.8136749  21.8540120  66.3611078   0.3139000  39.1052532
  65.6313086   0.7174832  39.5750904  66.5608835   0.9288068  38.3994126
  11.3029289  10.1992452  41.9089508  10.7225370  10.5469823  42.5860453
  11.3905632  10.9140384  41.2783766   4.0806794  39.0555930  50.0805235
   4.1563484  38.2352376  50.5678892   4.7982332  39.0253067  49.4477272
  39.5245600  60.2696943  24.2669415  39.6019769  60.8066368  23.4783149
  40.3789043  60.3440428  24.6921420  80.5727878   0.1967548   9.2432141
  80.4271904   0.6663726   8.4219366  81.4763323  -0.1137425   9.1846395
  58.3302975   7.0247561  67.4496460  59.0272045   7.6652396  67.3070431
  58.7388420   6.1800992  67.2602367  75.2370930  13.8294208  45.7162952
  75.7360744  14.0598369  44.9326086  74.3705320  14.2081523  45.5684423
  77.2356987  71.5811253  45.3131056  77.2936440  70.8414078  44.7083807
  76.9141722  71.1984921  46.1294651  27.5128651  38.1521034   7.5049889
  27.4686360  37.2238159   7.7342427  27.3240972  38.1763935   6.5669012
  48.4736824  77.0908451  58.7614679  47.9504681  76.3523388  58.4498787
  49.3627453  76.7427349  58.8294172  52.6500940  54.5701218  56.1608458
  51.7749739  54.9578571  56.1683226  52.5729656  53.7940550  56.7158222
  34.9868727  62.2934341  32.3016214  34.5365977  61.4532089  32.2149777
  34.5388794  62.7317667  33.0250859  11.9990611  42.0496368  27.7926779
  12.1507788  41.1083555  27.7078056  11.5691090  42.1472931  28.6422873
  79.0970278  54.4078398   9.6551466  79.5043039  55.1777935   9.2582464
  78.6027670  54.7544479  10.3979826  28.9984655  45.1505375  31.1267638
  28.5522938  45.9951353  31.1885786  29.8118234  45.3429079  30.6602073
  14.1542113  45.9328175  19.8305774  14.3670094  46.6917610  19.2874825
  15.0044990  45.5713463  20.0807452  76.0278416   6.1442369  40.1853466
  76.9813251   6.0995817  40.2568054  75.7224321   6.2055081  41.0904455
  53.6023045   0.9367348  50.5377579  54.2731667   0.7032305  51.1793566
  52.7823544   0.6331293  50.9272861  43.0028534  77.9734039  62.1849060
  43.3495903  77.4707890  62.9220486  42.1069431  77.6539660  62.0775032
  15.1645696  32.6113915  48.2301426  14.2912710  32.3807025  47.9133415
  15.7156646  31.8722343  47.9729033   1.6165389  70.0732088  48.7564850
   2.4792522  69.6964216  48.9296627   1.0040797  69.3575382  48.9266109
  27.3020124  76.1851978  31.5009046  27.2511482  75.6880045  32.3172665
  26.8053460  76.9845200  31.6759396  61.9366884   3.5308984  43.1426287
  61.5036678   3.9363983  42.3914289  62.6975918   4.0871498  43.3094740
  27.6503134  72.9314566  31.6184187  27.5267911  73.7587976  32.0836949
  28.0996108  72.3674297  32.2478938   3.9135322  73.4447479  57.0517159
   3.5557058  72.5634718  57.1591282   4.8092428  73.3816242  57.3832989
  15.5291533  10.7594550   8.4806752  14.9260700  10.3804970   9.1201383
  16.3584054  10.3074145   8.6363399  65.6048918  40.1877546  58.7081432
  65.8819628  39.3679094  58.2990980  64.7810936  39.9711275  59.1447973
  75.0671196   8.4468991  20.9512210  75.1345205   7.8593874  21.7038941
  75.0024509   7.8622639  20.1960707   3.7261912  54.6495199  29.7155738
   3.8603088  55.5947971  29.7841072   4.5688641  54.2694235  29.9638891
  32.4448895   2.0445806  22.1424127  33.3684039   2.1942069  22.3448014
  32.3170042   2.4571204  21.2881947  65.6128359  60.2316093  40.0103283
  65.2877760  60.4970455  40.8706284  66.5508461  60.4199791  40.0401449
  69.6577454  19.1508639   1.5742336  70.2224684  19.7343922   1.0674639
  69.4257927  18.4516668   0.9630454  22.4859786  59.3677902  52.9239321
  21.8497109  59.0164137  53.5467768  22.2260785  60.2814198  52.8057623
  55.2863932  65.6855679  48.2617855  55.1338148  65.8197308  49.1971731
  55.3285360  64.7347355  48.1599426  34.6959019  33.1863117   2.2930959
  34.9811792  32.4544454   2.8401053  34.1920137  32.7772856   1.5895158
   6.4052677  68.1851959  41.5062809   5.7272464  68.4230232  42.1387005
   6.5166867  68.9691114  40.9684181  39.1553330  72.4840403  37.1667027
  38.9197111  71.6299629  36.8043971  39.5722342  72.2821236  38.0043507
  16.9047046  49.9258184  48.8403320  16.1199772  49.8224974  49.3786240
  16.7758644  49.3202019  48.1103563  49.5990181  59.3510580  25.6379843
  49.6644592  58.4417725  25.3461814  50.0057840  59.3544054  26.5044498
  39.2709255  69.9973154  41.8216038  39.4173908  70.3741312  40.9539700
  38.9648747  70.7320786  42.3532867  54.4526052  62.0281982  32.5601077
  55.2069426  62.5503778  32.8331232  54.6084547  61.8487978  31.6328788
  32.7380085  13.1317520   8.5414213  33.5784054  12.6767457   8.4872669
  32.3378468  12.9987895   7.6821053  43.2459879  61.6309547  34.9849892
  42.7046108  62.2664452  34.5167065  42.8715563  61.5999508  35.8653688
  13.8833988  22.7591658  65.5008698  13.7424588  22.0762587  64.8451233
  13.1169569  22.7049255  66.0717058  12.5733745  69.6704960  23.9103913
  12.0077562  70.3921938  24.1850924  11.9866192  69.0658951  23.4560633
  19.9371600  55.0826168  41.4482403  19.5010448  55.9141397  41.2622213
  20.8133888  55.1832676  41.0763216   0.9725149  11.5398061  62.4632597
   0.6643532  12.0538223  61.7168999   0.3312536  10.8343995  62.5493908
   3.3645114  26.5349150  20.9423423   3.6887300  26.7161226  20.0601411
   3.7855178  27.1953678  21.4926004  22.3501754  47.5850439  21.4895797
  22.2904277  46.8094540  20.9317970  21.5949082  48.1178236  21.2406778
  14.4536388  21.2919688  27.9554033  14.0307450  21.3559914  27.0990777
  14.3981302  22.1766305  28.3166862  82.4530029  17.1079254  44.7566700
  82.6834393  17.1077299  43.8276196  81.5328121  17.3708868  44.7751427
  67.5653744  18.0069757  44.4534636  68.1266212  17.7543914  43.7203646
  68.1399679  17.9718053  45.2182102  32.8541970  57.1644306  23.4969664
  33.7567782  56.9387388  23.7220001  32.3232412  56.7068005  24.1488051
  26.6870141  61.6079855  43.0818129  25.9421635  61.0494566  43.3042383
  27.2315049  61.0652351  42.5115633  79.0802383  15.8289611  31.4713812
  79.2813683  16.6771615  31.8667722  79.9179459  15.3660238  31.4585185
  50.3450394  11.7245197  40.8398056  50.2106094  12.0587218  39.9529719
  50.1086092  12.4561858  41.4098883  38.3332944  57.4492264  46.9566631
  37.5157928  57.9180956  47.1242523  38.3551383  57.3380709  46.0061932
  74.5458698   2.3851319  41.3219070  74.2157888   2.1727917  40.4488707
  74.1659021   3.2410634  41.5199900  64.2265987  51.6904974  34.0379858
  64.9422359  51.0806370  34.2173505  63.4888983  51.3495111  34.5437074
   7.9114151  13.7560940  37.2552919   7.5284189  12.8955185  37.4254584
   8.8411969  13.5801864  37.1110868  69.6105337  71.1671209  54.5601177
  70.5369043  71.3864756  54.4603539  69.1569042  72.0073605  54.4934130
   6.2503338  62.6752901  29.0147662   5.8275872  62.1829271  28.3111358
   5.9754151  62.2308826  29.8167348  66.1580181   7.8357679  40.3373241
  65.7081175   7.2007149  40.8945751  66.9390631   7.3748153  40.0311804
  55.5256653  71.0599184  48.4809971  55.1581430  71.9372082  48.5883570
  55.5745935  70.7102108  49.3706799  10.0338458   0.3984331   9.6360946
   9.6458815  -0.4689814   9.5207244  10.8857344   0.2282594  10.0380337
  35.4260111   8.8108063  16.7071152  35.7923007   8.4653056  15.8930552
  34.5137191   9.0078050  16.4946437  79.5305920  65.9318876  58.8557768
  78.6831760  65.7764196  58.4387112  79.6868801  66.8689489  58.7386084
  29.6824288  73.0998659  17.9854965  30.3933072  73.7000799  18.2105041
  29.7638750  72.3848391  18.6166346  11.8273711  10.0941741   4.0107733
  11.9498944  10.9577858   4.4049722  12.3839617  10.1051652   3.2321090
  16.1005926  10.4386973  30.8788276  15.5025804  10.3940773  30.1327562
  15.7337940   9.8265183  31.5167356  59.2871571  76.7972136  34.1807723
  59.3797016  77.2340298  33.3340955  59.8140717  77.3245478  34.7812033
  78.2694817   9.8988903  14.9523687  78.6702442   9.8079294  15.8168614
  78.5687208  10.7521212  14.6382260  17.2912657  29.6369052  50.7871008
  16.6832471  29.7773075  51.5129328  17.9824471  30.2845931  50.9249496
   8.0352485  57.6874638  12.9394460   7.3601305  57.0108795  12.9912758
   8.8168371  57.2745466  13.3066678   0.6253923  39.0823483  20.7630801
   0.8120695  39.9422097  21.1399364   1.3437501  38.9287233  20.1494098
  71.5976810  60.9286451  48.7389660  71.8120003  61.8142414  48.4456635
  72.0534801  60.3553534  48.1226730  58.8120651  26.3258290  16.1837447
  58.2817888  26.5593362  16.9456589  59.2129421  27.1505117  15.9090972
  20.8051586  48.5274649  48.7056160  20.6596255  48.3107948  47.7846909
  21.6090369  48.0621958  48.9369917  10.7215679  71.5507269  38.0501819
  11.5707004  71.8985701  38.3225918  10.7833207  71.4872932  37.0970845
  18.8891697  76.1757231  47.8989697  18.6919045  75.3968716  47.3786783
  18.2662404  76.8338394  47.5906229  39.9859285  24.7264242  59.1848850
  39.5187306  24.7661233  58.3503914  40.6028032  25.4574609  59.1490316
  36.4826131  66.5035343  28.7825656  36.3725948  67.2117281  29.4170618
  36.7363024  65.7463598  29.3103504  54.5650387  73.8062191  48.6091709
  55.0127316  74.1614342  49.3770456  54.7508001  74.4347477  47.9115486
  43.3208179  75.3395987   8.8703519  43.7014484  76.2070417   9.0077978
  42.9607534  75.3737259   7.9841125  37.1793962  71.7801428  29.3847394
  38.1200290  71.9556713  29.4098115  36.7856956  72.5170994  29.8517752
  40.7088089  24.9854565   6.4010024  40.5326748  24.0562940   6.2531400
  41.5369606  24.9988556   6.8808162  31.8396831  11.2145329  51.6113186
  32.7859735  11.1066890  51.5157270  31.7407894  12.0130944  52.1297312
  36.7994952  11.7457867  22.2374296  37.6699972  11.5957558  21.8687153
  36.5930343  10.9346557  22.7018332  29.2287040  51.1290455   4.7758329
  29.4294524  50.2931404   5.1967788  30.0275660  51.3553143   4.2995399
  37.0688224   5.9284788  25.2684140  37.7430010   6.0795552  25.9309053
  36.2424040   6.0161799  25.7433558  27.2418928  42.4842119  28.8595557
  26.8466830  41.9145346  29.5194864  27.9961896  41.9905519  28.5377312
   2.1303183  14.2010236  63.4227085   2.3862398  14.9428916  62.8746510
   1.6333008  13.6304069  62.8365326  15.8072686   0.5924669  27.3181152
  14.9744332   0.8776987  27.6939607  16.1724591  -0.0049698  27.9707527
  44.4852018   0.6727191  59.8947620  44.1742468   1.5680939  60.0283384
  43.9956045   0.1516884  60.5311966  77.5316095  39.1405296  35.9323001
  77.2262096  38.2335806  35.9524369  76.8947411  39.5955300  35.3812957
  60.8285379  29.6356201  24.8471141  60.5382681  29.7576952  25.7510352
  61.4197540  30.3705454  24.6840858  51.8944979   6.8231964  24.4200325
  51.1436224   6.4358282  24.8698807  52.6521730   6.3576645  24.7742128
  24.5704746  32.3681402  55.8812284  25.1405907  31.6849375  55.5284786
  23.8622451  31.8900084  56.3125420  62.1130323  25.8038545  46.1977243
  61.5254450  25.1141071  45.8891487  62.9697514  25.3807902  46.2549973
   7.6851457  28.3074474  43.3439779   8.1511652  28.1682348  42.5195551
   7.9753733  29.1700602  43.6404610  50.2917957  54.2362356  58.3510971
  49.3845320  53.9346647  58.3046293  50.8133221  53.4351397  58.3012772
  43.1800032  74.6881247  56.4633179  43.5027313  75.5020523  56.8501043
  42.5226307  74.3724585  57.0833540  79.3749809  21.8800378  52.7062941
  78.6648417  22.5121355  52.5949955  79.8691368  22.2050214  53.4589052
   5.0314206  14.2854571  29.2873073   4.4303343  13.5590434  29.4523859
   4.4683176  15.0586212  29.2503691   4.0800178   7.0635861  33.7196326
   4.1974548   6.4696860  34.4610643   3.6104107   7.8132480  34.0852928
  21.8401098  73.0895090  62.2297382  22.0701599  73.7042809  61.5330601
  20.9053373  72.9253483  62.1052885  74.9180508   3.4158143  25.8914781
  75.4731941   2.6456529  25.7694316  75.4492283   4.1465253  25.5750275
  50.0945520  77.3287249  55.1699591  50.3792906  76.7221308  55.8534765
  49.2221355  77.0206594  54.9245739  45.1315022  59.9410439  41.2815905
  45.3113127  60.5507517  41.9972420  45.8920193  60.0171185  40.7053423
  25.4742193  22.7761149  16.3445604  24.6163774  22.5202823  16.6835165
  26.0920358  22.4946260  17.0193183  59.9766684  17.3154414  34.8710847
  59.6951246  17.7592361  34.0710759  60.9204674  17.1996164  34.7612596
  44.0708065  71.5009022  33.7962294  43.2700205  71.4606953  34.3190646
  43.8478804  71.0503483  32.9816508  69.3395138  12.1998072  52.2617865
  69.5495653  11.7458940  51.4456558  68.5645962  12.7215171  52.0530891
  22.9476976  74.8992491  41.9005871  23.1456161  75.0958681  42.8162289
  23.5996985  74.2448616  41.6497946  42.9861101  76.8665848  58.4869909
  42.0626339  77.1083386  58.5575628  43.4300122  77.4285275  59.1221285
  69.7453260   8.9761657  24.1553950  69.3695736   9.8206961  24.4040132
  70.6194687   9.1897023  23.8290334  73.8893747  62.4735451  20.3376937
  72.9743862  62.2008753  20.4061127  74.2329502  61.9753313  19.5960939
  62.9899979  74.5324612  43.7240791  62.0821381  74.8200607  43.8205862
  62.9280281  73.5883141  43.5792446  49.5213699  27.9942012   4.2882088
  49.8080492  27.1415329   4.6153235  49.2226267  27.8202081   3.3956224
  16.0952806  50.6183338  14.4539535  15.1912808  50.6855059  14.1465366
  16.1137974  51.1365891  15.2585042  68.5759115  60.8518267  40.0637960
  68.8597584  60.1535034  40.6537151  69.0045691  61.6387081  40.4003954
  20.0765824  61.3569069  47.5370455  20.1787329  61.6842079  48.4307289
  19.2506409  61.7357540  47.2361660  79.8505974   9.3617064  52.6943541
  80.7797909   9.1582859  52.5873709  79.6233559   9.0001768  53.5510254
  43.5452843  66.0269308  33.9875126  44.3977451  65.5916834  33.9978218
  42.9304695  65.3565741  34.2856026  17.0924580  74.2523050  62.5718069
  16.3819158  74.6363592  62.0581293  16.6516113  73.6815596  63.2011986
  37.3554087  69.5597267  37.4836230  37.2070670  68.9299440  36.7782164
  37.9239607  69.0988541  38.1005335  43.5124016   7.1390045  61.8210506
  42.9140949   6.3932854  61.7744923  44.1881514   6.8655407  62.4413824
  69.9459314  20.3701091  18.5574853  69.8844528  19.4309974  18.7321901
  70.8830786  20.5329561  18.4503829  25.6353903   3.5808203  34.8210096
  25.1791978   4.1633806  34.2137671  24.9562025   3.2895592  35.4293704
  32.8183722  76.3753176  20.7234597  32.5822020  75.8972025  21.5183568
  33.6805511  76.0340548  20.4859400  60.5082703  61.8350220  41.2614584
  60.2918863  61.4648819  42.1172667  61.1343384  62.5330830  41.4537811
  25.0646901  69.6844387  10.6819582  24.5908165  68.8588047  10.7819605
  25.0256443  69.8709106   9.7439098  52.4168062  46.4520264  66.8602848
  51.6210508  46.3774729  67.3870182  52.8508806  47.2379923  67.1920490
  51.7039347  26.4713526  33.5993361  52.0156336  27.0426917  32.8974462
  52.2519302  25.6893635  33.5327840  32.9395819  29.7099042  60.5180836
  32.1744251  29.6318030  61.0878801  32.5763083  29.9091864  59.6552134
   5.9019047   5.5709791  45.3939819   6.0426825   5.8537459  46.2975597
   6.7652059   5.6354326  44.9855852  33.1069016   8.6183524  30.7506442
  33.5774755   8.9477718  29.9849582  33.6669874   8.8467103  31.4925241
  49.0784073  55.7133722  51.3509750  49.3883562  56.3876820  51.9555140
  49.5999193  55.8437204  50.5589724   9.0964991   0.4651900  26.1085987
   9.2500639   1.3340567  25.7374930   9.0369439  -0.1129799  25.3480697
  74.7060680  12.1890557  55.7927179  73.8846207  12.6749814  55.8657503
  74.4583511  11.2763166  55.9402847  63.1067467  24.0212178  40.7379627
  62.2492981  24.3800592  40.5093718  63.2434464  24.2880487  41.6470003
  81.9633865  53.7549114  39.0811110  81.6267681  54.5114088  39.5613599
  82.5547791  53.3234882  39.6978378  71.0388470  16.7886543  27.3049164
  70.5642748  17.5000560  27.7349377  70.3620529  16.2945747  26.8422413
  79.3898058  12.2724998  33.0626822  79.9856472  12.0824432  32.3380566
  79.0151978  11.4225531  33.2939625  33.8862848  61.2169218   4.1272813
  34.4231105  61.6199732   3.4449333  34.2558146  61.5442753   4.9473536
  68.9178514  35.6508088  40.8910894  69.8634911  35.7978463  40.8716202
  68.8217402  34.7008252  40.8238268  16.7783141   7.3730344  29.7377658
  16.2641871   8.0954969  29.3772745  17.5549781   7.3300552  29.1799331
  54.6795082  26.8517661   5.7781601  54.8363495  26.7529964   6.7172426
  55.4481459  27.3219371   5.4551035  19.1587746  56.8658018  64.2026901
  18.2516527  56.9045258  63.8996029  19.1000581  56.9871664  65.1503468
  73.9703941   1.3807920  34.7593951  74.3531656   0.6738768  35.2789998
  74.5841551   1.5053570  34.0355086  65.1097488  21.1043215  52.3684883
  64.6179056  21.2413931  53.1781387  65.7055330  21.8519759  52.3206758
  54.3397856  51.5206337  52.9458809  54.4462681  51.1025095  53.8003206
  53.9821720  50.8321571  52.3852205  77.5669432  67.5279140  65.4162836
  78.4401894  67.4675751  65.0289536  77.4807358  66.7301035  65.9381104
   7.0632136  48.6459208   3.9251587   6.9349337  49.1631174   4.7203207
   7.5435942  47.8715229   4.2180291  27.6869535  46.7888021   0.3094917
  26.9771409  46.8627119  -0.3284238  27.8671217  45.8500481   0.3596389
  72.4584579  51.5283394  23.2166433  72.8886795  52.3663664  23.0467916
  72.4031687  51.1091042  22.3579121  24.4800305   8.7428468  50.8729696
  24.1585612   9.1027081  50.0462961  25.3189993   8.3402222  50.6487799
  72.0141935  11.0576630  39.7275615  72.0604897  11.9257402  40.1282263
  71.2730265  10.6335032  40.1599789  77.4837351  10.8455646  51.3062096
  77.2669315  10.0957918  51.8603468  76.6844845  11.3720870  51.2921858
  73.1781816  69.7845316  34.4516039  73.3117199  70.0932741  33.5554576
  73.5182905  70.4904795  35.0013280  31.5253139  41.9986582  10.7309890
  30.9860468  42.6301003  10.2548480  31.0508561  41.1710548  10.6523061
  35.2478027  53.0734158  24.6975470  34.4202805  52.8513956  25.1243329
  35.0862932  53.9242363  24.2898130   6.3581628   0.3544565   7.6380891
   6.7293763   0.3477673   6.7558265   7.1192127   0.3349041   8.2183063
  77.7466631  37.2477388  61.0527802  78.1501293  38.1129503  61.1224604
  78.0586147  36.9047308  60.2153683  42.1549749  38.2052779  12.6675427
  42.4777126  37.4099374  13.0912209  41.3120270  37.9513192  12.2917998
  32.3944974  46.9427109  10.5253816  32.5741935  46.1473608  10.0240254
  32.6532745  47.6567030   9.9427348  48.0977154  67.6978922  37.1803379
  48.6718512  68.1839418  36.5884280  47.3074961  68.2345486  37.2418547
  42.7904034  27.6203251  10.4480505  41.8647003  27.5165677  10.6683683
  43.0017376  26.8438482   9.9297315  26.1884904  19.1601288   7.0787114
  26.3232803  18.7693369   7.9420447  26.6244316  18.5601819   6.4735264
  56.8349791  61.8107367  61.8722677  57.6628113  61.8944263  62.3454762
  56.4724064  60.9762669  62.1696520  23.9374423  41.1418486  -0.0689850
  24.6280241  40.7765722   0.4840968  23.7993169  42.0253468   0.2724640
  75.4672623  13.5877335  40.1669884  74.9504757  12.8045893  40.3563261
  76.1068487  13.3008373  39.5151782  70.3698683   7.1214187  37.0534992
  71.2426567   7.2990054  36.7028809  69.7767878   7.5971705  36.4719939
  20.6770587  61.2575293  37.5802088  20.4037952  62.1415472  37.3351216
  21.3679075  61.3916206  38.2290387  76.2612534  10.0694621  26.0862184
  75.7868767   9.6575314  25.3640604  75.5806351  10.4934597  26.6089177
  28.5689855  15.0784469   6.9208866  28.8294053  14.2541194   7.3318583
  28.5674620  14.8883724   5.9827495  24.3774366  11.4339125  61.9040823
  24.6867800  12.0383704  62.5787449  23.4573960  11.6660559  61.7781305
  10.4840887  23.9060926   7.8073823  10.6441510  24.8276353   8.0107856
  10.9982574  23.7425184   7.0167458  73.7738800   5.0440037  29.6933413
  73.3214092   5.7744163  30.1152420  74.6734667   5.3516042  29.5821810
  28.5654664   9.2361856  24.4202757  28.3120608   8.3244658  24.2761064
  28.8596773   9.2618948  25.3307772  36.8475127  20.6650066  43.6167574
  37.3781848  19.8847961  43.7776661  37.3251367  21.3729000  44.0491819
  10.8776832  20.2801156  14.0533745  11.8058813  20.4743862  14.1835272
  10.7502162  20.3431892  13.1067991  10.9700286  57.8886414  49.7676945
  10.3361475  57.1948910  49.9497223  10.4806972  58.7007284  49.8992395
  23.6261368   3.7569490  58.4895372  23.7163138   3.1033230  59.1829872
  23.4734988   3.2444030  57.6956654  61.9985962  25.7485890  29.1725326
  62.4511671  25.3900385  29.9359798  62.2184277  25.1483798  28.4600329
  44.1622734  59.0707207  16.1352181  44.7660065  59.7350645  15.8029723
  44.5561123  58.2378435  15.8755291  29.6225524  12.1458614  54.6579313
  30.4839110  11.8830538  54.9823093  29.0051866  11.7675149  55.2839851
  28.1498551  37.3295236  26.6884446  28.4520769  37.5806355  25.8156133
  28.4349179  36.4212489  26.7885041  15.4937172  73.3918428  21.6272020
  15.1826096  72.4918127  21.7240667  15.4103398  73.7696171  22.5027394
  18.2876992  46.8484020  14.5802653  19.1852820  47.1096754  14.7859633
  18.3850515  46.0971498  13.9951372  45.6155300  15.4733634  39.6789789
  44.6860981  15.6230664  39.5058346  45.6471348  14.6066916  40.0840902
  53.2283974   5.2282184  55.8510494  52.4642467   4.6721047  55.6992435
  53.0054140   5.7334554  56.6328716   6.7991287  39.1114736  32.2427821
   5.9992933  39.5946407  32.4502492   6.7345095  38.3082080  32.7593279
  74.4772434  77.0831060  52.6380873  73.9490795  76.8907309  51.8633223
  75.3812551  77.0550203  52.3247004  26.6917372  77.5493240   8.8323528
  26.3320494  77.2547960   7.9956275  26.6384363  78.5042334   8.7931353
  51.6953850  71.4839888  43.5318947  52.5517464  71.9012785  43.6253977
  51.0670805  72.1898556  43.6842394  51.7764568  20.8543181  66.7225027
  51.2630463  20.0690341  66.9121695  51.8500853  20.8676481  65.7682323
  31.0416746  62.5582266  41.5280819  31.2508273  61.8602228  42.1487904
  31.8758368  62.7594280  41.1039114  35.7785010  40.1228571   5.1750726
  36.1248899  40.1538467   6.0668606  34.9360490  39.6765709   5.2607250
  24.0410781  51.2415314  -0.2367320  24.9148703  51.0279751   0.0905471
  23.5764885  51.5842295   0.5267772  74.5059156  51.5681982  39.5011497
  74.6487331  52.3506021  40.0337696  75.3500080  51.4084864  39.0789819
  74.8702431  74.2210627  51.7751551  74.6377707  75.1159811  52.0227528
  75.8140039  74.1682911  51.9260454  16.4960635   9.3605459  34.8802066
  16.1877215   8.5107195  35.1947761  16.4779162   9.2837960  33.9262629
  60.2393579   4.4598970  19.9702370  59.7915316   3.7777674  19.4698548
  60.7565308   3.9812520  20.6180501  42.7137947  74.3833923  64.7239017
  43.3930206  73.7280607  64.5644426  43.1880045  75.2136135  64.7696114
  43.0622768  68.8236189  40.1663923  43.1160688  69.4069338  39.4093704
  43.2793140  67.9587841  39.8182750  61.6050816  68.8480234  57.8638744
  61.0365248  68.8179970  58.6333370  62.0920372  68.0244780  57.8936005
  21.9606686  36.5168762  51.0217285  21.4598513  37.3245406  50.9073257
  22.8734255  36.8034458  51.0531044  26.2585258  50.7665110   1.6681944
  26.5610337  51.4342022   2.2837494  26.9787407  50.1375628   1.6240221
   3.5976362  42.2638988  44.9837399   3.2296711  43.0042601  45.4661322
   2.8710106  41.6461468  44.9023247  39.3640089  28.5178733  60.9315586
  40.1185513  28.4820414  60.3436661  39.7444797  28.5172534  61.8098927
  71.5645170  11.2068081  26.1186481  70.7324266  11.4209104  25.6967211
  72.1272373  10.9119833  25.4026508  74.0574837  49.0106821  50.5239916
  74.1832590  48.7282419  49.6181011  74.8535204  49.4983196  50.7355595
  68.5345840  23.9410734  54.2536879  68.7952566  24.5870256  53.5971642
  68.9384794  24.2481256  55.0653648  78.1209660   4.7356272  31.5477538
  78.1181574   4.0168524  30.9156251  78.0662298   4.3046764  32.4007010
  45.2648354   6.4770859  63.5556555  45.9089470   6.4800119  62.8476048
  45.4219103   7.2959834  64.0257263  12.2466874  63.5446024  16.0787582
  12.2734511  62.5925493  16.1742258  12.3164475  63.6927986  15.1356769
  24.4230461  40.2679300  12.8011847  25.2606106  39.8046803  12.8120208
  24.6560979  41.1801529  12.6286519  71.0343409  36.1099005  48.5277987
  71.5723228  35.8469200  47.7810383  70.1334810  36.0263729  48.2152176
  18.4289098  18.3737171  36.9283533  17.6115739  18.6610377  36.5213609
  18.6869299  17.6000261  36.4272952  38.3961228  51.7547275   0.4073768
  38.1116882  51.8698932   1.3140541  39.2094174  52.2557462   0.3460174
  41.2574959  67.0469809  12.7950013  41.2910795  67.8850698  12.3338020
  40.5226564  66.5824461  12.3944354  25.0438428  16.3274193  14.4659007
  24.7161579  16.6867840  15.2903461  25.4061103  15.4739630  14.7038186
  38.5139465  48.1428051  65.8253527  39.1364288  48.5371971  66.4362574
  37.7257013  47.9958344  66.3481331   4.0044099   5.4313064  60.0024652
   3.0856034   5.6923705  60.0646877   4.4316670   5.8834511  60.7299566
  30.9810638  64.7750807   2.4939339  31.7518854  65.2949953   2.7214384
  31.2476373  64.2770386   1.7211965  43.9425325  36.4774370   1.0308280
  43.6182165  37.0910668   1.6899996  43.8842392  35.6200814   1.4524655
   7.5473446  54.7643328  33.9089465   7.9773098  55.6080341  34.0487003
   7.7027297  54.5663929  32.9854155  51.9796801  61.7325497  44.6959019
  52.6718616  62.0204306  44.1007233  52.4307060  61.1912537  45.3438234
  55.6081390  66.5958261  42.8717613  54.9577332  66.0173416  43.2699537
  55.2358294  67.4730015  42.9622269  27.3681092  37.5341177  52.9332829
  27.1767616  36.6263151  52.6976728  27.1349025  37.5953984  53.8596153
  57.2758818  28.4373069  32.1593380  57.3251247  28.0010486  33.0099177
  56.3517809  28.6666131  32.0609140  66.7195749  63.3728600  28.2711267
  66.0430956  64.0494442  28.3000255  67.2601509  63.6067295  27.5165963
  60.4091787   0.3434355  34.7412014  61.1555386   0.7304648  34.2836094
  59.6614456   0.5168965  34.1693282  71.4954329   3.2095554  30.3848958
  72.0179319   3.8890523  29.9588537  71.1395550   3.6349532  31.1650372
  64.7804117  13.7397873  61.4876938  64.7116852  13.4091759  62.3833561
  64.8196888  12.9528010  60.9442425   3.4634632   2.2893932  57.6295900
   3.8575158   2.4342209  58.4898090   4.0936354   2.6603779  57.0119476
  16.2442315  12.8934300  37.2585225  16.6474009  13.0971098  38.1024408
  16.9552517  12.5208759  36.7370963  70.2683544  13.0610406  35.2932978
  69.9259806  12.5925636  34.5320225  71.2182522  12.9629982  35.2275825
  35.7866049  21.4903140  24.2711902  35.5343103  21.9314551  23.4600353
  36.7077732  21.2634134  24.1439152   8.6529934  40.7904005  65.3621101
   9.3690276  41.0058260  65.9597015   8.8705480  41.2510538  64.5517397
  30.3527522  24.7067928  20.2393889  30.6927657  23.8259792  20.3968406
  29.5644927  24.5689011  19.7141588  26.8494749  71.6818953  17.7120090
  27.1501780  72.1551466  16.9362247  27.3198128  70.8487749  17.6816070
  80.0644875  24.9900150  59.5035982  79.5688963  25.5408621  58.8976383
  80.9152126  24.8738122  59.0805244  43.7213707  46.4172840  16.0265040
  43.9165020  46.2575006  16.9498813  44.5052671  46.1242914  15.5618620
  76.7244530  29.3849635  43.3745432  77.6609612  29.3232393  43.1864738
  76.6772079  29.4856262  44.3252611  15.3538847  70.1589918  27.3984456
  15.3180909  69.4106531  26.8026757  14.5596421  70.6570959  27.2053146
  65.9817457  74.2433500  41.8160725  66.6315842  74.5213556  42.4615622
  66.2518120  73.3586025  41.5700674  80.1656151  22.3417974  10.9892821
  79.9180079  21.5888286  10.4526615  80.7099056  21.9719100  11.6843772
  23.1339955  11.4783597  57.3446274  22.7152133  12.1411741  56.7955065
  22.9215503  10.6469285  56.9205713  68.5465384  50.1319456  36.2043309
  68.4203100  50.2091980  35.2586412  68.2013321  50.9509420  36.5597367
  80.5235100   2.8392568  64.0040064  81.0225296   2.4123579  63.3076096
  79.9859285   3.4882891  63.5501385  71.0572863  57.3483038  18.4301305
  71.6020107  58.0695152  18.7453508  71.3959503  56.5763998  18.8836741
  19.4733691   1.5384251  26.4016342  20.2949762   1.1139929  26.1545444
  19.6878242   2.0333807  27.1923685  62.4787283  73.0773067  16.6166997
  62.4082613  73.1077957  17.5708151  62.1416044  72.2135162  16.3791144
  64.4069481  63.4281445  35.8318353  64.1504192  64.2999983  36.1323190
  64.3288565  62.8744555  36.6087294  44.6279049  46.7844439  55.6293058
  43.7968826  46.3161325  55.5497789  45.2521896  46.2494326  55.1391459
  72.5444794   3.3313370  11.0073256  73.4511423   3.1551754  10.7560074
  72.5478363   4.2455816  11.2908340  80.3685570   6.1308223  12.2260928
  79.5458412   6.2017512  11.7420053  80.5493355   7.0226324  12.5231206
  22.8022027   6.8816459  22.2696328  22.6947331   7.7448791  21.8702459
  22.0739579   6.8109369  22.8867960  24.3465185   1.5731533  29.9611735
  24.4443440   0.6388439  30.1448250  23.4279728   1.6732195  29.7111869
   3.3645585  29.6989369   1.9054012   2.9937586  29.0497327   2.5031248
   3.1748274  29.3563008   1.0319973  19.7667837  76.0557175   3.2211053
  20.3910208  75.5801630   3.7692010  19.2588532  75.3704643   2.7867505
  68.6082840  56.5405273  38.4803247  69.3704128  55.9666300  38.5579753
  68.8734245  57.2062445  37.8456974  62.4200010  40.4136324  63.6325932
  62.0305252  40.6660795  62.7954483  62.8741503  39.5916557  63.4472895
  29.8457694  31.2221742  27.4090219  30.5540466  31.1378622  26.7706919
  30.1350904  31.9198442  27.9970551  72.6507616  70.1292658  38.5100842
  73.0385590  69.6533966  37.7756476  73.2672596  70.0008583  39.2309666
  13.8995028  20.9524512   3.6833978  14.3074846  20.1904726   3.2720944
  13.6715794  20.6557202   4.5644388  69.4620419  50.6913900  15.5788434
  69.8575974  51.5337610  15.3548431  69.7195339  50.5401468  16.4882696
  17.5578249  44.7659063  23.1280923  18.3961380  45.2239418  23.1886792
  17.7935040  43.8611841  22.9227567   1.9596855  49.8523092  18.5175228
   1.9046399  50.2817965  19.3711865   2.0529261  50.5717182  17.8930318
   8.5564065  27.7045131  40.9152079   9.3124950  27.1840000  40.6438637
   8.7342638  28.5810637  40.5742359  65.0749874  76.1260891  39.9822927
  64.1251945  76.1521721  39.8663545  65.2258348  75.3739166  40.5547571
  21.0133886  17.5187850  50.6835985  20.5852818  17.8109932  49.8788834
  20.2951026  17.3846054  51.3018990  72.9044437  64.1293192  11.1085427
  72.9941702  65.0721645  11.2471616  71.9619513  63.9892721  11.0172856
  18.4025478  75.9579659  64.3866110  17.8987670  75.2493572  63.9862204
  17.9344213  76.7549324  64.1377497  20.0706911   1.8638268  34.9138236
  19.9050343   1.2928477  35.6640053  20.0161576   2.7502692  35.2708650
  70.0437307  65.0080395  16.8183136  69.5073652  65.0275946  17.6108766
  70.3000402  64.0905094  16.7251456  19.7711754  14.6028900  21.1312771
  18.9838779  15.1370251  21.2366033  19.5974088  13.8157570  21.6474748
  15.2610254   7.9741079  13.0545747  14.9565482   7.2667021  13.6229956
  14.4589460   8.3971936  12.7481449  46.6561794  41.4924097  58.8105249
  45.9964228  41.1117220  58.2308435  47.3622465  40.8463144  58.8267183
  23.5089374   9.7089386  12.1523774  23.0067730  10.0783992  12.8787112
  22.8663254   9.2138135  11.6443086  17.0494020  64.5966864  38.2256722
  17.7351618  65.1329613  37.8277087  17.4634945  63.7455750  38.3683991
  36.4558291  24.3879914   5.0404841  35.9381604  23.8222623   4.4675937
  37.3386955  24.3587160   4.6718100  74.8220539  19.7456384  22.8917933
  73.8906193  19.7871459  23.1084442  74.9226379  18.9160657  22.4249697
   5.4174072  25.9852457  14.3597257   5.1735717  25.6176519  13.5102260
   5.1415294  26.9006205  14.3126917  78.2586813   0.8648841  20.9011817
  78.2332754   1.1737096  19.9955249  77.4805403   0.3143278  20.9884167
  14.1823220  31.4929914  11.4424479  14.0294993  32.4187326  11.6318667
  14.5988500  31.1521387  12.2340012  32.4374199  72.7458382  60.1303434
  32.8208780  71.9640017  60.5277348  33.1902242  73.2596684  59.8379421
  29.1891837   2.6380348  44.9043417  28.9497042   2.9861903  45.7632208
  28.4893322   2.9340667  44.3222761  18.8590503  30.2053547  55.0342369
  18.3865499  30.6134486  55.7597923  18.5945737  30.7076287  54.2635202
  70.9018803  28.4723711  65.2976322  70.7490683  27.5315094  65.3851509
  70.3159618  28.8710546  65.9410524  23.2347655  69.2161512  40.7921934
  22.7588820  68.3916998  40.6919861  23.8935471  69.0325689  41.4619207
  45.7441092  70.6860352  45.9692717  44.8704910  71.0584164  46.0890675
  45.6483936  69.7662830  46.2165070  44.3163347  77.4247169   3.7869465
  44.0596390  77.2087812   2.8904471  44.4725847  76.5765667   4.2022267
  80.5722809   6.6897303  25.7484412  79.9181938   7.3885065  25.7592297
  81.1837196   6.9446445  25.0575089  63.5562706  18.3779728  16.5426612
  63.0708742  19.1980541  16.6325855  62.9611492  17.7090454  16.8811774
  68.2044697  70.9286833  50.5392218  67.9546118  71.2373734  49.6682930
  68.8248634  71.5847063  50.8569956  16.5524983   3.2166994  36.8235517
  16.3917923   3.6042997  37.6838827  16.1302972   3.8160968  36.2081647
   6.7281282  34.0006995  30.4682803   6.7594260  33.2166386  31.0164618
   7.5646472  34.4378495  30.6275511  37.7311659   2.2985347  36.7719913
  37.7262592   1.5003300  36.2437129  36.9529462   2.2249216  37.3244262
  64.3670940  64.5811176  22.2335386  64.0300894  64.5665121  23.1293321
  63.7117577  65.0733423  21.7390895  70.2942896   6.9987327  18.4099865
  69.3583870   6.8254250  18.3085656  70.6738758   6.7679030  17.5621295
  77.6036358  17.4991608   3.3508906  77.3609638  18.0356014   4.1055909
  77.4108219  16.6019022   3.6228853  13.0163538  24.4216132  56.8143940
  13.9283419  24.1309547  56.8195152  13.0450654  25.2935195  56.4204550
  10.8362150  44.9474001  34.4921827  11.7262805  45.0722456  34.8214674
  10.3234816  44.7203970  35.2679420  32.5986028  29.7719312   3.9233035
  32.8416038  29.9087262   4.8389837  31.9904995  30.4848289   3.7278065
  11.0157216  51.2622452  24.9663067  11.6753078  50.8066702  24.4432068
  10.5448139  50.5630445  25.4197383   4.7325966  16.9471550  36.3528609
   4.3008566  16.5080166  37.0856571   5.2431512  16.2580156  35.9278274
   7.4632466  28.2637143  38.2117343   8.0627912  28.7143064  38.8064981
   8.0352777  27.8248668  37.5821114  68.3435202  12.2035730  15.1399779
  68.0264282  12.8755820  15.7433772  68.4442091  11.4220190  15.6833613
  40.0518274  34.9061131  12.8118086  40.1479387  34.9551797  11.8607104
  39.1509104  35.1846027  12.9761851  73.6279249  61.9703054   4.8688352
  73.4532642  61.2301970   4.2874843  73.8027954  62.7028561   4.2780572
  26.9887209   7.9902834  31.6526675  26.9279838   7.4272406  32.4243689
  26.6504240   8.8362384  31.9461751  48.7586832   8.7469488   5.5019391
  48.4555817   9.6399003   5.6662482  47.9767370   8.2785505   5.2097201
  82.5608871  25.2402091  34.4632673  82.2343888  25.2980161  33.5653305
  82.3760973  24.3390274  34.7277617  79.4992208   0.9401695  53.2637978
  80.2144432   1.0712044  53.8863039  78.9412975   0.2802450  53.6754465
  81.6271782  70.4309416  21.6538620  81.3805866  69.6170235  22.0931315
  82.5779629  70.4784584  21.7537379  57.1822405  35.6045604  15.1867950
  56.5114689  36.2672186  15.0219250  57.9450750  35.9083676  14.6948445
   4.1800132  55.4295778  60.7166862   4.5582426  56.2048006  61.1316586
   4.9094403  54.8132896  60.6506777   4.5327628  20.2932787   4.2341685
   4.1381407  21.1646461   4.2691597   5.1710755  20.2906084   4.9474579
   6.2644172  63.6184454  51.9629955   6.8729901  64.3116140  51.7072868
   6.4251369  63.4915304  52.8980350  64.0153933  72.0809221  66.1658621
  63.1675243  72.3879480  65.8447933  63.9883995  72.2453547  67.1084452
  67.9009485  71.7474556  62.4732018  67.7016687  71.4274311  63.3530331
  68.4644079  72.5078011  62.6168156   7.1682888  37.5945783  36.1123395
   6.4123857  38.1532145  36.2933636   7.7105075  37.6632309  36.8981624
  71.5394831  71.4492798  30.3411055  71.9994307  72.1264839  29.8450446
  70.8550215  71.1406946  29.7473717  69.8392153  73.2998991  45.3630161
  70.7738495  73.3121157  45.1567698  69.7609472  73.8365889  46.1517334
  16.7450225  67.8184175  29.3573070  16.5253496  68.3760357  30.1036572
  16.0014927  67.9115343  28.7617183  40.0201893  20.3161955  21.7890167
  40.5680084  19.6066189  22.1246171  39.5242810  19.9180722  21.0736108
  57.3348904  70.3708553   2.3702438  58.2473087  70.4897165   2.1064299
  56.8280840  70.6103516   1.5943441  42.9207659  15.5370319  39.1176486
  42.1673250  15.1122689  38.7076068  42.5423050  16.0822594  39.8073769
  71.3040781  53.5803509  66.9576263  72.0934725  54.1108608  66.8497181
  70.9099388  53.5573149  66.0856438  74.2252684  75.6000566  32.1659636
  73.9989901  75.9692764  33.0196047  74.8307753  74.8863745  32.3665833
  29.7866178  32.9312778  14.6100509  29.3403411  32.3483944  15.2243125
  30.7166815  32.7400661  14.7310925  17.4170995  29.7963428  66.7351055
  17.8862131  30.4685497  66.2408352  16.5170777  29.8466444  66.4131403
  54.2416000  29.9520707   3.3114490  54.5403099  30.3428769   4.1325915
  54.8154449  29.1968060   3.1829581  37.4045277  63.3237934  66.1030293
  37.6354957  62.4028921  66.2247896  36.8841743  63.5443783  66.8755627
  79.5348597  39.9493313  19.6332693  79.6504784  40.8907318  19.5043147
  80.1721668  39.5467210  19.0433693   2.3762405  69.4339418  27.6776743
   1.9498006  68.6126566  27.9223514   3.3083725  69.2189789  27.6437187
  18.8705301  35.8318496  51.7722988  18.7271214  36.7707753  51.6536283
  19.6263015  35.6332421  51.2194872  36.4395761  60.4195642   9.5568877
  36.6208410  59.9394035  10.3648615  35.6048894  60.0655174   9.2499989
  22.7947140   7.5274587  53.0602217  23.0904198   7.0316625  52.2966909
  23.5112858   8.1350607  53.2434607  46.2347126  61.8404150  23.0080295
  46.3120556  61.9225168  22.0574999  47.0798826  61.4886332  23.2876110
   7.4370527  17.5902116  25.7600403   6.9864053  18.4044516  25.9840083
   7.7795118  17.2687697  26.5940833  82.0325947   7.0088762  31.9663405
  82.6974010   7.2120512  31.3083172  82.3589134   6.2210518  32.4011755
  36.7241883  61.6077757  17.0607853  37.3687673  62.3139572  17.1061695
  36.3424540  61.5751886  17.9379678  77.9024982  68.5226536  24.9660444
  77.9251528  68.6484528  25.9146714  77.1388865  67.9651880  24.8165321
  63.9589310  22.5456119  48.1044722  63.6722994  23.0172348  47.3223925
  63.4118271  21.7604351  48.1246376   2.0250225   2.4430908  61.3695431
   1.9278526   2.7090386  62.2839069   1.1298607   2.4156567  61.0316610
  43.5234213  70.2544212  65.6828737  43.6973858  69.6160269  64.9911928
  42.5709248  70.2513790  65.7775784  11.6219974   9.8781264  32.4499893
  11.8151939   9.4789618  31.6017103  10.8851850   9.3711346  32.7910161
  21.6870213  24.3591881  50.2587128  22.0371056  25.2359605  50.4166508
  22.4618816  23.8039446  50.1719475  66.4333916  74.1742229  24.5737195
  66.6213322  73.3266735  24.1705203  67.2379827  74.6791840  24.4558930
  27.9576659  67.4528790  31.8145347  28.5860419  67.9837465  31.3250923
  27.1229863  67.5983763  31.3691473  76.1615944  70.1442671  19.0644562
  77.1001816  70.2615595  18.9177227  75.9611750  69.2966795  18.6673844
  31.7905974  18.1745243  26.8339968  32.4132586  17.5463474  26.4680481
  31.2976122  17.6726806  27.4831128  20.5246544  77.2967434  51.1305141
  19.7391045  77.8184557  50.9663248  20.5995965  77.2703505  52.0844126
  14.1033232  73.2442284   1.4724168  13.2237005  73.6063051   1.5791693
  14.6864569  73.9953041   1.5822892  24.7144175  28.3862734  41.1704397
  24.2761397  28.9204717  40.5080414  25.1271272  27.6797628  40.6737041
  18.1791174  61.7758560  38.3190703  17.8901768  61.3494158  39.1258502
  19.0933251  61.5095091  38.2215333  27.5946617   1.3577847  22.4148273
  28.3312821   1.0995555  22.9688478  28.0021095   1.7326485  21.6339970
  16.6481328  18.3816564  44.2954922  16.5146697  17.6292396  43.7190485
  15.9464657  18.3146620  44.9431086  71.5992546   9.9764043  10.5363238
  71.3775015  10.4137719   9.7142720  72.5439787  10.1011086  10.6267166
  13.9559495  28.1944776   7.2380388  14.1678309  29.0043449   6.7738676
  13.8458776  28.4629846   8.1501895  79.3824387  46.8552637   1.6616905
  79.1055393  45.9460497   1.7751996  79.4657135  47.1933651   2.5533089
  45.6283903   6.6367471  58.0783463  46.1777353   7.3291111  58.4458780
  45.0218201   7.0954603  57.4970627  25.6563377  56.5028238  45.9188843
  24.7304916  56.4175034  45.6913757  25.7324696  57.3833084  46.2865639
  75.8330774  66.0892105  21.1613703  75.1234388  65.6873512  20.6602168
  75.6356478  67.0257282  21.1474347  11.7243993   4.4637898  45.1520967
  11.4270258   3.5770512  44.9483919  11.6085947   4.5436662  46.0989046
  19.5026457  39.2101002   4.2389470  18.9458120  39.7510290   3.6789772
  20.0264931  39.8391223   4.7350809  79.7809792  51.4927435  17.2135222
  78.9922714  50.9542274  17.2781277  79.4538116  52.3900986  17.1506727
  12.6153493  37.0259356  66.1500692  13.1759667  37.7139854  65.7915545
  13.1995153  36.5027499  66.6989374  15.3462756  25.5254817  33.9895344
  16.2286985  25.8655167  34.1376472  15.0778794  25.9110427  33.1555462
  55.9020185  16.4943779   6.5396887  55.8592129  17.3652506   6.9346309
  56.3080931  15.9464788   7.2113585  31.9868755  15.2789557  10.0112319
  31.7353892  14.9198794  10.8621442  32.2015882  14.5112872   9.4813120
  29.2846179  23.4651279  52.2429609  29.0279365  24.1403985  51.6149807
  28.6012983  23.4888458  52.9128408  78.6698484  20.9631729  32.3659015
  78.4288073  21.1963797  33.2624197  78.6657238  21.7951846  31.8926430
  49.5282650  21.1661482  59.8065567  49.8672485  20.7452631  60.5966091
  48.9874411  21.8858314  60.1318216  41.0566807  24.1278052  14.5888257
  40.1601171  24.0949202  14.9224854  41.4519501  23.3071399  14.8829412
  66.4720154  39.4221926  17.6680839  65.5869055  39.5276499  18.0169284
  66.9756842  39.0615988  18.3978260  13.6940789  25.8519483  39.9931312
  14.3095529  25.8280039  39.2604303  13.0994809  25.1196694  39.8304939
  18.2494676  40.4531574  59.1230297  17.4919236  40.8753967  59.5280886
  17.9010546  39.6438313  58.7490845  10.8274305  30.0264382  57.2011614
  11.7755783  29.9884415  57.3268747  10.4839766  29.3263435  57.7562666
   7.5586307  63.6346388   3.5568494   7.1670371  64.5040655   3.6404553
   7.6015729  63.4810495   2.6130289  23.8598609   6.8694836   7.8523791
  22.9937315   7.2769701   7.8545028  23.7892318   6.1600608   7.2136599
  81.6981220  33.2660818  26.5860701  81.2168121  32.4535179  26.4301515
  81.9918728  33.1998801  27.4946713  31.3940430   7.3264301  36.4331150
  31.0017776   8.1060332  36.0399508  32.0331430   7.6690346  37.0579386
  26.6071534   9.6785200  47.5046873  26.4678121   8.7470543  47.3338413
  26.6673970   9.7407919  48.4579563  56.6311407  75.1701784  53.6238527
  55.7362175  75.4049444  53.8692617  56.9402361  74.6197462  54.3433809
  81.9537830  64.5001936  57.9354286  81.8663597  63.5481977  57.8875589
  81.0675240  64.8132944  58.1163883  69.4587326  65.4480028  23.8341451
  69.9653721  65.2595139  23.0441976  68.6738873  65.8932543  23.5147595
  42.4315214  17.8942084  15.9024143  43.2322931  17.4519515  15.6206203
  41.7721748  17.2008777  15.9304702  81.1793900  17.9154038  25.8627152
  81.1588097  18.6218989  26.5082169  81.6982651  18.2670033  25.1392674
  12.2815371  29.5527077  33.0931330  12.4320877  29.4956112  34.0366936
  11.3917434  29.8963165  33.0129242  31.3442039   6.6139203  15.9226823
  30.5220556   6.9415629  15.5580544  32.0136833   6.9052196  15.3036702
  78.3227062  52.3735476  52.6746655  78.1443262  51.5220308  53.0738306
  79.2692709  52.4855995  52.7623463  29.4501138  68.3913326  29.4514728
  30.1109505  68.7076139  30.0675035  29.0525365  69.1868162  29.0973949
  19.8375380  12.6084769  38.6543345  18.9003181  12.4240553  38.7163043
  19.9147165  13.5353780  38.8804507  56.5848780  52.6175785  51.1874056
  55.8499670  52.3318434  51.7300797  56.7941904  51.8556070  50.6472015
  17.3370516  23.6469889  44.3796396  17.9859138  24.2350268  44.7661877
  17.8197455  22.8389549  44.2055130  52.2533226  55.7878685  17.2861159
  51.7647457  55.5972481  16.4853740  52.9519463  55.1337242  17.3018789
  64.3789005  30.4963899  31.7978764  65.1587963  30.4222155  31.2478781
  63.8355875  29.7500205  31.5449500  21.4948297  23.6981082  39.7339582
  22.2451282  23.8947129  40.2948761  20.9075809  24.4452071  39.8488927
  59.1337347  43.5996675  64.1027641  59.0533495  42.8862906  63.4696293
  60.0426149  43.5550785  64.3997192  54.9546099   2.8806317  42.9106236
  54.9310732   2.4533844  43.7668562  54.2783356   3.5561445  42.9613495
  20.5703378  37.0616126  47.2366142  20.1101947  37.8193951  47.5975370
  20.8184028  37.3309326  46.3522148  48.9110994  52.5848293   4.7965267
  49.5248985  51.9376516   4.4491866  48.8853312  53.2719994   4.1306701
   5.3466231   3.4323338   4.3937379   6.1563540   3.9424387   4.3747592
   5.3675652   2.9195890   3.5857242  66.1144257  58.2005167  29.1403604
  66.4806747  59.0768242  29.2594242  66.7596865  57.6153040  29.5370865
  11.6217136  65.9744883  25.1315427  12.1412039  65.8794880  24.3332076
  10.8319831  65.4595232  24.9661040  23.7608480  17.8058481  49.6088505
  23.6130905  18.5234463  48.9928532  22.9481339  17.7505088  50.1115036
  61.8895864  28.8727093  31.9743729  62.0295858  28.7286592  32.9102588
  60.9431076  28.9869261  31.8885708   3.4001729  22.8319240  56.0088444
   2.9238987  23.5861373  56.3560581   3.5837775  22.2904778  56.7765427
   6.7385721  24.4090152  55.9404612   6.1423028  23.8076353  56.3865995
   7.0708537  23.9081359  55.1955175   8.7439966  15.6933212  43.1741095
   9.2840576  15.6003475  43.9589167   8.9266485  16.5793192  42.8612566
  29.9647427  19.9111927  57.6820135  30.8657289  20.2193975  57.7793074
  30.0468397  19.0679884  57.2364855  20.0588608  70.3949165   5.8597428
  19.9715090  69.4433641   5.9159070  19.1760743  70.7049656   5.6577796
   0.8119897  28.0273271  27.0647717   0.4312100  27.2389269  27.4516344
   1.1042900  27.7507687  26.1962605  13.3090305  44.3451309  36.0248947
  13.3837569  43.4606075  36.3830400  13.6406446  44.2700434  35.1301193
   9.4482768  14.0483928   9.6001941   9.4033051  13.4432173   8.8599426
   9.3936700  13.4861040  10.3729045   5.9566724  24.6208453  23.4055591
   5.3020549  24.0466499  23.0080581   6.1569864  24.2096496  24.2464089
   6.6163081  28.9046907   1.7190570   5.9595293  29.2419004   1.1098260
   6.3690919  27.9901099   1.8556580  77.0590401  73.1845665  19.1857982
  77.7769756  72.6696968  18.8174129  77.1560287  73.0873108  20.1330924
  22.6528120  25.6239152   9.3949527  22.1949792  26.3967848   9.0643537
  23.3264613  25.4456282   8.7387198  29.4867563  11.7832005  30.5802560
  28.8438559  11.8967700  29.8802471  29.2421365  12.4341333  31.2380385
  15.6642270  67.2815990  40.8515882  16.1948717  67.3520660  40.0580645
  16.3018823  67.1747112  41.5574217   6.5886074   2.3059119  67.5066948
   7.3487449   1.7260867  67.4595213   6.3384086   2.4475838  66.5936995
  11.8381751  63.3586025   7.6673698  11.7826474  63.7738180   8.5280371
  11.6146195  62.4419785   7.8287798  72.0238066  45.5695581  36.4022183
  71.5400457  44.9766016  36.9772029  71.5183449  45.5804253  35.5894303
  14.4390929  77.3372602  35.7519579  14.9747109  77.4418497  34.9655700
  13.6283970  77.8059626  35.5536580  14.0495348  70.6927395  46.5687799
  14.8579168  70.2168846  46.3782120  13.4799433  70.5057383  45.8225679
  26.0846734  27.7677345  26.1480069  25.4241705  27.2486115  25.6892252
  25.8885431  28.6728191  25.9059596   4.0166953  74.5494318   1.4006796
   4.1238207  74.8463106   2.3043498   3.0958319  74.2954445   1.3395850
  37.9942322  10.4246867   6.2945318  38.3419299  11.2454534   6.6433603
  38.7705421   9.9030745   6.0908264  20.9665632  20.9458089  32.2771645
  21.5372372  21.0807848  31.5206313  20.3028679  20.3285241  31.9694304
  72.9190254  63.7432146  23.8334441  72.9362154  63.7954617  24.7890639
  73.1175947  62.8270245  23.6400580  15.0721061  12.9131067  31.3162899
  15.4943204  12.0565605  31.3818336  15.3045607  13.2285166  30.4429531
  17.2626495  35.3761530  14.3378115  16.7870212  36.0803533  13.8972330
  16.5775216  34.8175144  14.7049046  33.8198805  42.4152756  31.1557961
  34.5072389  41.9562340  31.6385484  33.2324266  41.7210388  30.8571911
  72.3101664  61.3555002   2.1912467  73.0474615  61.8498564   1.8331410
  71.8455696  61.0270548   1.4215007  65.0985670  71.0202837   9.1193259
  64.7290945  70.2983570   8.6108577  64.4257879  71.2247515   9.7687775
  82.0833206  52.2916889  28.9886236  81.4471149  52.5791502  28.3337712
  82.6722717  53.0387926  29.0944910  31.4901447   3.0425072  64.8387146
  31.1390066   3.1342036  63.9529800  31.5888000   2.0982496  64.9606848
  40.7417081  59.2738950  67.4627779  39.9554859  58.8943505  67.8552478
  40.9829221  58.6605048  66.7686587  26.3750219  40.7772493   4.6584693
  25.5675864  40.7727861   4.1444051  26.2105274  41.4103270   5.3573161
  33.3421564   8.2069629  45.3139257  32.4531054   8.4523851  45.5700254
  33.8636208   8.9932156  45.4755163  34.9501300  13.4995210  31.6329336
  34.7778153  13.2544482  32.5420427  35.5969858  14.2025256  31.6928697
  51.6410494  11.4094317   2.9413810  50.9592199  10.7539666   2.7940542
  51.2744856  11.9907510   3.6076629  74.7540522  40.3144932   3.3002770
  73.8661337  40.6239510   3.1211862  74.7065353  39.3663645   3.1776881
   1.8145274  31.1101913  33.5245085   1.8507870  30.6829929  34.3803239
   0.9725410  31.5654564  33.5195518  28.7728691  14.2396176   1.4316957
  29.0246320  13.3169293   1.3930455  28.5715628  14.4711399   0.5249956
  80.9256840  63.7784433  25.4543233  80.5299759  63.0116558  25.8686662
  81.2263203  63.4619665  24.6024489   8.7482589   7.9540652  42.2944546
   9.0688127   8.5947883  41.6596746   8.3365297   7.2740239  41.7613029
  15.7496560  36.2894654  29.7564960  16.1489820  37.1542025  29.6616268
  15.6051242  35.9925199  28.8580728  78.3074093  54.6730423  20.6064272
  77.9520893  53.9864206  20.0420403  77.5486279  55.2079296  20.8396101
  18.6844039  35.3855968  63.0466557  19.5002818  35.1374388  62.6119232
  18.5546303  36.3031054  62.8067255  36.2797236  27.0977092  18.0431330
  36.4866567  27.7288747  18.7323642  35.3272367  27.0092654  18.0774665
  32.4628806  18.3709764  21.6116929  33.2326794  18.8567877  21.9077158
  32.6528645  18.1542063  20.6989241  17.7164841  64.9575663  59.2909336
  17.1534240  64.2111301  59.0859318  18.0857444  65.2179241  58.4470797
  21.4024758  58.3761311  62.6259136  21.4450884  59.3047714  62.8540373
  20.7240009  58.0195379  63.1992769   5.1993716  27.2436762  31.5112829
   6.0096842  27.3687744  32.0052218   4.9453506  28.1259084  31.2404180
  43.5592890  40.9338999   3.0974796  44.4215631  41.1385536   3.4591836
  43.7316990  40.6984615   2.1858466   0.6872781  19.9130380   1.9503242
   0.0247085  19.9021637   1.2595889   0.2708456  19.4684696   2.6886836
  10.3865910  76.6747904  62.0552778  10.1047730  77.4887800  62.4726915
   9.9236697  75.9873104  62.5341368  59.4559622  72.2866488  38.4085059
  59.6102953  72.2896862  39.3531775  58.8661146  73.0257034  38.2598066
  28.1508422  67.8260612  54.9859190  27.5642514  67.9552984  55.7311964
  28.3151054  68.7089014  54.6544981  72.8647661  43.0631685  42.9511213
  72.9489374  43.6233568  42.1795416  71.9255447  42.8926516  43.0219936
  42.4397087  11.4892805  26.7116952  42.2923565  11.4500999  25.7667160
  42.8321552  12.3500836  26.8574190   4.9656832  40.1227617  10.8085632
   5.4353660  39.3008304  10.6669366   5.3399014  40.7261515  10.1666009
  26.3581729  32.9163313  21.8214679  25.7134342  32.3830676  21.3565254
  26.6532254  32.3605967  22.5428104   4.1849279  15.2344954  44.5447493
   4.1676801  16.1775565  44.3817472   4.9841893  14.9315405  44.1138983
   9.6232742  59.9880648  39.7541046   9.3730032  59.1604328  39.3434691
  10.1940620  60.4108286  39.1124606  37.0656109   9.0766597   9.4718319
  37.3515654   9.7483891  10.0908971  37.8670049   8.6067533   9.2412043
  44.8394775  15.5900872  52.5679445  44.2707205  16.3472390  52.7074623
  44.6720076  15.3283167  51.6625929  59.2463207  71.7602682  19.9131107
  58.4789038  71.3294125  19.5367241  59.1007710  71.7257071  20.8585477
   1.1267601   3.5230491  64.1402674   2.0239466   3.2625350  64.3486404
   0.5793272   2.8999323  64.6180487  27.8212047  67.2809076  60.7824898
  28.4020233  67.1329498  60.0361729  27.1161199  67.8257847  60.4329300
  41.4161968  23.3127880  26.5247655  40.9307766  22.5183296  26.7471051
  42.2360992  23.2369995  27.0128679  35.4755163  22.9785919  37.3966789
  35.5872250  22.3718262  38.1285191  36.3651395  23.2552767  37.1770215
  13.0274832  31.0678124  37.7339458  12.4071336  30.8009768  37.0555663
  12.9550397  30.3891706  38.4050846  53.0726910  71.5009880  17.6960111
  52.9814863  72.0450020  18.4782910  53.1577492  72.1273851  16.9772482
  37.8249192  68.1604815  15.3281653  37.9675364  67.2499323  15.5866194
  37.9263449  68.6583996  16.1393487  72.3101473  17.1598637  40.8398771
  72.9540110  16.5857303  40.4250956  71.5401936  16.6051650  40.9652090
  27.1869183  26.1038661   6.6728848  27.0692086  25.8815074   5.7493412
  27.6620293  26.9347382   6.6605240  77.8263426   7.5988495   0.7433147
  77.6791096   8.3105940   1.3661896  77.2387981   6.9011664   1.0335891
  34.6627688  61.5457296   1.4969413  35.4403806  61.8648052   1.0389653
  33.9804149  62.1816826   1.2820205  22.3472595  35.5040216  41.1569214
  23.0544019  35.8473754  41.7030811  22.6460624  35.6489301  40.2591753
  56.3811398   4.8527566  63.0831718  55.8833313   4.1068274  62.7484894
  56.6000652   4.6103135  63.9829063  69.0900660  10.2976441  11.4043689
  70.0406122  10.2972937  11.2917101  68.7721395  10.9248447  10.7549310
  64.8325682  70.3466654  27.5793743  64.0742064  70.8666849  27.8452659
  65.4808617  70.4997540  28.2667685  80.4736805  69.1726255  15.0063157
  79.7174025  69.4335461  15.5318606  81.1999416  69.6858454  15.3604007
  13.2618487  74.8482800  37.1440387  13.6421072  75.6074572  36.7021275
  13.2592428  74.1602421  36.4785838  25.9474540  20.8507109  13.1420124
  25.9013820  19.9574125  12.8012359  25.3547120  20.8512092  13.8936031
  75.0715971  31.5021276  34.9436474  74.4256735  30.8248377  35.1443672
  74.7116041  32.2992158  35.3326058  31.8412638  11.8685818  33.2712650
  31.0970640  11.3258231  33.0108619  32.3756766  11.2948143  33.8202882
  19.3329179  60.4892445  32.3899436  18.6731553  60.0326967  32.9119682
  20.1147580  59.9414539  32.4598193  12.4790859  13.7019312  31.5014029
  13.4033465  13.6624646  31.7472005  12.3530149  12.9504502  30.9220791
  29.0659189   2.8237841  21.0031295  29.8659277   3.1910354  20.6271696
  28.9357495   3.3140638  21.8148637  13.0272424  14.6279454  28.6289454
  12.5953460  13.7865365  28.4815454  12.6038170  14.9806583  29.4115925
   4.7923118  65.6128263   7.0037985   4.5131201  64.7106171   6.8479097
   4.3596926  65.8595753   7.8212267  81.8609428  28.9406133  37.6984024
  82.1519947  29.6632028  38.2546234  81.6102505  29.3584967  36.8745303
  81.7572784  66.0270500  47.4560118  82.2279739  66.7744207  47.8249454
  81.4072895  66.3504982  46.6258812  56.8557358  29.7399950   9.0283847
  56.0299969  30.2064395   8.8987112  56.6599226  28.8346982   8.7868816
  20.8941507  44.7437716  35.9136391  21.6056418  44.6690464  36.5495849
  20.1127791  44.4726038  36.3954639  14.8904121  16.0163534  55.5633020
  14.9631381  15.7962346  56.4920044  14.1717541  15.4709566  55.2434492
  42.2986603  44.8702955   1.2977017  42.5954247  44.8919821   2.2074786
  41.4806366  45.3673458   1.3006903   8.0372131  10.5538082  10.4867494
   8.6160773  10.7795429  11.2148917   8.6183542  10.1744974   9.8274845
  11.4681625  14.4290018  12.9445541  12.2933781  14.3752575  13.4265935
  11.4609385  15.3140295  12.5799906  13.3955002  38.3579278  48.0955172
  13.9471602  39.1082311  48.3167601  13.1570077  38.4979391  47.1791363
  70.7631826  50.5049324  48.5333586  71.5945101  50.0378895  48.4496975
  70.2765369  50.0113392  49.1934872  26.8349743  63.0255747  19.6656692
  27.5195789  63.6102867  19.9907279  26.0403728  63.5592127  19.6739793
  10.7729661  25.1686859  42.4794483  10.7833707  26.0872388  42.7484941
  11.6489720  24.8468542  42.6922178   6.7919052  45.9818363  30.4616308
   7.3317868  45.5465841  31.1214161   7.3831505  46.1203194  29.7217107
  75.5811167  69.7394800  26.9135571  74.6762466  69.5624876  27.1706843
  76.0959864  69.5374727  27.6947975  72.3680639  73.5246420  50.8417463
  72.9665184  73.6134291  50.0999880  72.8993702  73.1277370  51.5319729
  33.6805224  14.9472129  41.3599968  33.1436443  14.4568777  40.7374525
  33.5487199  14.4986331  42.1952438  11.2309849   5.5854297  14.5243001
  11.1730874   5.7086384  15.4717696  11.1608005   4.6387842  14.4011414
  72.8034019  29.1812086  47.2409534  73.3915424  28.9973474  47.9734230
  73.2813358  28.8794541  46.4684534  11.8992412   7.4894696  30.0752044
  12.7128434   7.5473154  29.5742679  12.0370197   6.7536199  30.6716704
  25.6391072  48.6019325  19.7572935  25.3345084  49.0229130  18.9534116
  25.8629775  49.3288946  20.3383589  26.5557671  12.1428657   4.6373734
  26.1110473  11.9385648   5.4600012  25.9569430  11.8329287   3.9579767
  67.7160501  67.4740028  15.3819144  67.8487444  68.3399677  15.7675707
  67.0393753  67.6084471  14.7183859  78.4509563  38.2731581  41.4826727
  78.1787729  38.8270998  42.2143126  77.7760410  38.4066534  40.8171701
  36.5766406  27.2701573  15.4953849  36.5516877  27.4932098  16.4258993
  36.8709731  26.3595581  15.4751754  34.6672511  14.2358029  24.5529246
  34.1399574  14.9446809  24.9212766  35.5446863  14.3811965  24.9067640
  60.8973789   3.5914612  64.4146872  61.8479681   3.6321497  64.3099689
  60.5846882   3.1837803  63.6070633  72.0467663  51.1599350   8.7335777
  71.9934750  50.2412987   8.9972055  71.7751980  51.6482878   9.5107502
  81.5685177  40.0275469  23.3638358  81.6911793  40.6671381  22.6623344
  81.1134148  39.2970037  22.9450011  28.0078912  12.6117146  28.6290002
  27.3703837  12.1839154  28.0573320  27.6092982  13.4551632  28.8433552
  79.3983793  25.5255079   6.0696524  79.6614695  26.2024331   5.4461223
  78.5148287  25.7775021   6.3381064  81.1216354  20.6391120  30.6703591
  80.2676392  20.4199648  31.0430503  81.7095757  19.9614179  31.0039473
  14.3245029  54.4975901  65.3306484  14.4892359  55.4361486  65.2401257
  13.4057081  54.3908310  65.0843763  33.2018328  66.2930822   2.9601109
  33.9075613  65.8890390   3.4650132  33.4617281  67.2105646   2.8769800
  51.3141537  57.4110365  19.3208790  51.6328049  56.8083763  18.6489475
  51.0084724  56.8421268  20.0273728  74.5250559  40.5330038  39.1795063
  74.8162699  41.2372494  39.7587037  74.6693707  40.8738041  38.2967496
   2.0843469  75.7958794  54.0725660   1.6939360  76.6683054  54.0208244
   3.0277944  75.9530354  54.0346050  76.5079403  48.6889076   9.6189684
  77.3749065  49.0894365   9.5543498  76.0660458  49.1842699  10.3085887
  23.8224292   6.6778606  38.3530450  23.3812284   7.4773145  38.6401796
  24.2989612   6.9373012  37.5644755  25.6047964  36.2022424   9.0526599
  25.3500009  36.2528849   8.1313854  24.9981570  35.5678248   9.4344133
  18.1690300  19.2178786  61.3177919  19.0742540  18.9393401  61.1791658
  18.1755626  20.1562262  61.1288643  10.6150138   6.1297625  57.3327398
  10.5118275   6.2453622  58.2773161  10.0942254   6.8341511  56.9469309
  19.5722711  72.5743532  25.9433413  19.0221560  71.9385958  26.4009619
  19.6904385  73.2857656  26.5727544  41.7497778  30.7824373   9.2015409
  42.4734926  30.7515240   9.8272550  40.9666729  30.6429482   9.7340053
  57.5592995  36.4425945   6.3245469  57.3953056  36.4211130   5.3817445
  58.4192991  36.8543601   6.4087433  21.4643002  21.2866664  48.9702988
  21.7247081  21.4415884  49.8782730  21.2108183  20.3639102  48.9479446
  51.4951611  66.1627054  21.8746257  51.7271233  66.5693140  22.7095485
  52.3269939  66.0829020  21.4078021  25.2559924  17.9230630  12.1743727
  24.4482136  17.8966784  11.6615117  24.9968219  17.6215959  13.0451083
  58.1201172  66.3189173  11.6122329  57.4370003  65.8399296  11.1430335
  58.2632494  65.8110905  12.4108934  17.7052999  71.8702841  18.3163869
  18.1326878  72.6904869  18.5630429  18.1489980  71.6014767  17.5119567
  38.3713794  15.5510986   8.8160855  38.3406711  15.3558600   9.7526598
  37.6547790  16.1702383   8.6768693  41.1642027  54.2210770   2.3599587
  41.7981625  53.7275410   2.8802949  40.3137493  53.9810562   2.7278653
  28.3931041  21.7674875  24.9171591  28.1817937  22.2364402  24.1099024
  29.3036175  21.4946151  24.8043013  80.1498985  26.3264155   1.5354364
  80.3599072  25.4117036   1.3472183  79.4361830  26.5370703   0.9333868
  47.8501177  63.6410189   8.7211144  47.2621489  63.5034418   9.4638073
  47.2891092  63.5482979   7.9511124  72.8905106  20.4165697  67.5223589
  72.8106976  21.0334420  66.7948103  72.1497869  19.8202276  67.4131060
  80.3950596  49.1489458  13.1795859  79.4516230  49.0883636  13.3295560
  80.5461407  48.6280394  12.3908758  30.6544876  41.7520905  17.2343922
  31.1530590  40.9605885  17.4373329  30.1980901  41.9630957  18.0488932
   3.5488413   0.2850221  54.1485119   3.7548922  -0.6426503  54.0336514
   4.1695880   0.7404588  53.5797644   6.3093567  42.7827358  39.3577147
   6.6838115  42.2413349  40.0526237   6.1121023  42.1654940  38.6532044
  55.4057407  11.0045743  39.8325944  55.9880733  11.0607219  40.5902052
  54.5764017  10.6882644  40.1908922  61.9644785  71.9875288   4.6606144
  62.0443726  71.8959188   3.7111643  61.1407709  71.5496111   4.8750234
  20.5249262  23.2860899  28.5533857  20.2800727  23.3224416  29.4780254
  20.5380559  22.3517966  28.3456469  47.5103617  38.1553292  34.9614310
  47.3487139  39.0405774  35.2876830  46.6712141  37.7059841  35.0621986
  30.9641886  37.7992725  49.0945101  31.3748407  37.7881026  48.2299423
  31.6303039  38.1733084  49.6712399  22.6389408  28.6175799   8.8108063
  22.7921152  29.4397640   8.3452058  23.2513332  28.6410403   9.5461005
  28.8219810  50.0097799  20.1184392  28.0033183  50.4930019  20.2303290
  29.3220043  50.5284023  19.4881701  43.2447815  41.7830658  35.6594563
  43.6599731  42.0062780  36.4925361  42.6720142  42.5263596  35.4705620
  54.8684359  31.1547065   5.6657851  55.7734871  30.9728503   5.4127097
  54.9410105  31.6067719   6.5063798  62.5986910  32.1876025  43.1499386
  63.0339479  31.6468000  43.8089657  61.6644192  32.0488906  43.3052826
  35.3406858  29.4277239  23.8797450  35.8355212  29.2020464  23.0920649
  35.1580715  28.5859609  24.2972565  30.8247995  15.9509683  17.4684536
  30.6010032  16.8172061  17.8087163  31.4320993  15.5895996  18.1140769
  47.0396852  40.7386732  35.9035659  46.4002848  41.0841751  36.5264845
  47.2805071  41.4922667  35.3647375   1.6608638  44.4282961  20.3133917
   0.9638509  45.0657988  20.4682970   2.1762751  44.8054457  19.6004105
  30.0242758  43.1040621  28.5219979  29.9109173  43.8358307  29.1285467
  30.9322190  43.1755638  28.2274485  31.8727446  33.9799118  11.1312938
  32.3447824  34.1335392  11.9497144  31.0527420  33.5667324  11.4016747
  41.7477608  69.9079752   4.5931309  41.1961269  70.0233316   3.8194203
  41.5312004  70.6521940   5.1548034  39.0367341  33.0457425  33.7070775
  39.0738630  32.6112556  32.8549790  38.4179688  32.5221157  34.2161703
  37.6774979  30.1742196  21.5244770  37.3460007  30.3145599  20.6375456
  37.7774262  31.0552716  21.8850255  19.1497934  23.1186557  31.3587523
  18.5387397  22.4587107  31.0311651  19.1664112  22.9805636  32.3057938
   2.7968797   6.0735154  53.7953091   3.2944897   6.6378355  54.3870497
   2.8878170   5.1964700  54.1678047  47.6901197  36.3243914  46.5585995
  47.1728325  36.0087585  45.8176374  47.0592260  36.7839193  47.1127081
  29.5485210   2.0515241  33.7947369  29.7285461   1.9127537  34.7245574
  30.1789880   1.4910047  33.3424520  42.6894951  33.8837028  22.8496385
  42.0839453  34.4685698  22.3941445  43.4690523  34.4177532  23.0023265
  39.0593433  36.6341233   9.3911368  38.5548520  35.8219647   9.3451387
  39.9565315  36.3706899   9.1864705  55.8621883  53.3846807   5.6814253
  55.9226274  54.2673779   5.3161490  55.3542805  53.4924984   6.4855605
  54.0853786  36.6098428  16.4983559  54.7973680  37.2236013  16.6789234
  53.7235451  36.9021702  15.6617856  34.8488379  25.7146335  28.1226325
  35.6387615  25.6401849  28.6580825  34.7376919  24.8453760  27.7375746
  38.0148435  28.2788706  25.9742451  38.6400747  28.9040136  25.6074858
  38.0856705  27.5096655  25.4089689   9.9498326  47.4973869  34.4293833
   9.9949652  46.5412521  34.4299579  10.2882874  47.7536583  35.2872920
  32.2043228  25.0855255  40.7156467  32.8544831  24.3854260  40.7738495
  32.6675558  25.8079386  40.2916622  17.8799033  42.2650576  44.4836950
  18.7348688  41.9706821  44.7977161  18.0792475  42.8132153  43.7247372
  36.6779971   0.5343699  58.5394621  36.7088652  -0.4187590  58.6220694
  36.1203027   0.8195752  59.2632437  15.3654885  12.3307967  25.1491308
  15.6669199  13.1517887  24.7601056  15.7111120  12.3475456  26.0415983
  43.8648319  76.6949081  39.5029593  43.1354237  76.2213802  39.1030049
  44.3659115  76.0202122  39.9611497  16.5157065  17.9826056  67.0222427
  16.5212569  18.9393793  67.0503778  16.1987623  17.7194201  67.8862517
  59.6360540  28.6725855  54.0983915  59.9098110  29.5881748  54.1530752
  58.7296581  28.7114239  53.7931585  26.5038514  24.2287064  30.3032875
  26.4245176  24.9026299  29.6281838  26.8673038  24.6890688  31.0597277
  78.8098288  76.8663073  10.0342429  78.7461805  77.1756887  10.9378254
  79.6173620  77.2591591   9.7028911  54.1099501   8.3522934  57.6207447
  53.8360310   8.9945835  56.9660187  55.0484848   8.5060567  57.7290916
  48.5187292  22.1815538  25.7584786  48.3083773  23.0811453  26.0089159
  48.9484978  22.2641897  24.9071836  45.9983730  29.0500426   7.9738379
  46.5343428  28.3701825   7.5654745  45.6906652  28.6547494   8.7894917
  28.9457417  68.1411457  20.5810332  28.2055759  67.5936413  20.3190708
  28.7232947  68.4384918  21.4632654  18.1550848  31.3531613  34.7337198
  19.0305126  30.9975433  34.5807719  17.7333105  30.7130313  35.3069305
  49.5395470  17.8987670  22.8048635  49.3157434  18.4931540  22.0887303
  48.7143660  17.4657345  23.0234671  34.3448853  11.2806356  36.7999291
  34.8563647  11.8409705  36.2162828  34.8342228  11.2817037  37.6225948
  61.9350863   8.2619494  40.3531170  61.0963821   8.4482354  39.9310923
  61.6984367   7.8672665  41.1924362  77.0769596  68.3879757  51.0569429
  76.9637966  69.1637754  51.6060877  77.8690767  68.5667324  50.5501556
  19.6141589   2.6679423   0.3403954  20.3425908   3.1734955   0.7009962
  19.6990991   1.8041705   0.7440226  38.6489558  33.6888981  30.1824951
  38.0903459  33.4520197  29.4421744  38.6395502  34.6459937  30.1930332
  39.5819521  21.8969321   8.8257986  38.9684725  22.2184896   9.4864613
  40.3497219  22.4612284   8.9170653   7.5367892   6.9388258  38.4077811
   6.9169617   7.4208617  38.9552188   7.6747531   7.5039256  37.6476121
  26.3948727  45.5646038  24.0588450  26.1953020  44.6824455  24.3722153
  27.2714400  45.4920387  23.6812258  44.2906857  38.9131451  36.8613052
  43.6763573  38.5510302  37.4998236  44.7114420  39.6405768  37.3196054
  24.8008895  33.5862613  34.9020433  24.3453741  34.3169999  35.3200817
  25.2663779  33.9837003  34.1661096  55.5703831  60.7347918  47.2628593
  55.9131289  60.5477762  48.1368065  56.3296843  60.6545591  46.6855764
  52.8720903  35.6698346  63.0385733  52.3935843  35.3584599  63.8068867
  53.7866449  35.6950426  63.3199787  20.4193568  47.9463434  24.7868848
  21.3163972  47.9923153  25.1177001  20.3291273  47.0501041  24.4630814
  28.8245130  59.9259043  24.0967798  28.4525132  59.7652340  24.9639773
  29.3193698  59.1311646  23.8974428  29.4782495  41.0656548  22.7226710
  29.0318346  41.6773033  23.3081913  30.2676010  41.5313482  22.4464679
  10.6270194  78.0278111  15.7031250  10.0307703  77.3619318  16.0456467
  11.3230693  77.5289011  15.2755356  34.4084024  72.8320456  32.2262192
  34.7173905  72.1643877  31.6138554  35.1595855  73.4130526  32.3461723
  17.8188694   6.1444777  10.0454998  17.0279515   5.9276646   9.5518678
  17.9393387   7.0835340   9.9044621  19.0597308  50.6106472  24.4139409
  18.9997101  50.7736206  23.4726286  19.6403110  49.8533678  24.4893646
  29.2613983  29.5855927  43.2185841  29.8365021  30.0588083  42.6172924
  29.4694471  28.6627555  43.0725861  50.2854729  63.3086920  35.8953357
  50.2542877  63.8903189  35.1357484  50.0670338  62.4451494  35.5449009
  20.8322167  36.7602992  17.2391617  19.9304008  37.0806289  17.2578919
  20.9183908  36.3371539  16.3849068  21.3040709  10.9617341  10.7571185
  22.2463942  10.9975934  10.9213614  21.2276840  10.9452903   9.8031127
  45.7307005  46.1826706  10.1843095  45.0911427  45.4844189  10.3244770
  46.3705301  46.0659361  10.8866072  17.2889352  25.5175185  29.1502810
  17.7656138  24.8087597  29.5823383  16.6119814  25.0740743  28.6390853
  69.0473127  37.5374413  28.2966423  68.8627911  37.0754671  27.4788642
  68.4807873  37.1159768  28.9429045  45.3371716  60.8881807  37.5585961
  45.1806593  59.9572325  37.7169466  45.6452703  61.2257099  38.3996582
  42.1204472  32.7864075  39.0912771  42.1366501  32.4600863  39.9909878
  41.9995546  33.7316489  39.1814733   6.6574860  10.3219819   4.1736910
   6.7627466   9.3741810   4.2563060   6.4623326  10.6196463   5.0622535
  40.9529400  37.8048944  19.2196715  40.2855539  38.4736896  19.0662587
  40.8162832  37.1653891  18.5206807  32.3402882  47.8173494  31.2059402
  33.2745838  47.6328135  31.3022089  32.3078561  48.6821651  30.7969475
  24.6082926  20.6709623  33.0638409  25.4711318  20.8038545  33.4563708
  24.4894004  21.4247036  32.4859381  79.9859396   0.0722812  64.7420120
  80.1607385   1.0025285  64.8845625  79.5637480  -0.2186991  65.5502939
  27.8999019  53.6270952  17.4369621  27.5162959  53.0775023  16.7535710
  27.2989488  53.5431767  18.1772614  10.3469622  32.6695275  51.2466097
  10.8452034  33.1474113  51.9096422  10.3010595  33.2699609  50.5025625
  28.2778502  27.4544692  11.2253189  28.4153914  26.5075493  11.1996508
  28.1773472  27.6567698  12.1554828  30.2662158   0.5016770  56.6833878
  30.3679967   1.3352920  57.1426916  31.1578846   0.1637375  56.5999937
  12.2888231  58.8371563  19.2752814  11.9443893  59.1752625  20.1018906
  13.1299257  58.4445286  19.5089984  34.8838902  25.2296162  42.8356981
  34.6661544  26.0831547  43.2102537  34.4204760  25.2102375  41.9983768
  28.0339813  70.5143070  21.8226862  27.2870183  70.6991386  22.3919964
  28.6642623  70.0713015  22.3907757  48.9914083  75.7478762  46.4653444
  49.0092802  76.6687727  46.7258453  49.4782925  75.2947474  47.1537113
  58.2547426  63.2647228  55.0985193  58.3395386  62.3268795  54.9267817
  57.3148918  63.4354448  55.0371122  66.3555670  70.3829861  20.8687210
  65.8499050  69.8759222  20.2335620  67.1568918  69.8753738  20.9969592
  49.8306179  68.5799360  61.2515068  50.2348471  69.3421078  61.6661501
  50.3986406  67.8476334  61.4909124  22.4672532   1.6989952  33.6502552
  22.4133587   2.6448295  33.5134172  21.7185163   1.4950135  34.2106271
  71.1620235  46.9087934  48.3029509  71.2746572  46.1493635  48.8746262
  70.2432632  47.1550417  48.4100628  17.3645449  13.2268178  11.3736463
  16.6940010  12.5792813  11.5911257  17.1731198  13.9708567  11.9446075
  37.5549269   9.2863613  39.5621419  38.4986520   9.4443864  39.5368624
  37.1903896  10.0764108  39.9610996  12.4061632  26.3609910   5.7563907
  12.6188564  25.5711699   6.2535584  12.4721742  27.0709944   6.3949579
  30.7984138  20.9446883  23.7212062  31.7063451  20.7999158  23.9875412
  30.8645916  21.3757944  22.8691506  20.1596427  47.3423910  30.0455832
  20.2461958  47.6711988  29.1508055  19.4349217  46.7185736  30.0024652
  43.3117342  72.8729248  59.3743277  43.4071350  73.8136673  59.5231056
  44.1141081  72.6200676  58.9177275  77.0696735  30.7335472  57.5496340
  77.7740431  31.2537646  57.1630239  77.4542141  29.8661542  57.6760817
  41.8488693  43.9365005  34.3533278  41.7388535  43.4369707  33.5442543
  41.0834455  44.5103121  34.3864918  37.7557278  67.9357195  26.6958809
  37.5369740  68.8193226  26.9918919  37.3668361  67.3595333  27.3539162
  37.1758151  34.8189974   1.2630403  36.4575720  34.3683195   1.7071632
  36.9172740  35.7406211   1.2639414  34.9154830  40.2431536  34.6171641
  35.6572652  40.1713610  35.2178621  34.4903374  41.0659981  34.8588395
  40.1948929  71.0901451  61.0906696  39.7401261  71.8188238  61.5130901
  39.6681666  70.3209448  61.3077497  11.8719256  36.4516449  31.2954831
  10.9517074  36.3608170  31.0481358  12.3544526  36.0411024  30.5779505
   1.1900679  55.9477758  50.6848526   0.2656372  55.9592533  50.9328985
   1.2098902  55.4682779  49.8566484  52.0630836  19.8426592   0.5470303
  51.2375402  19.9692678   0.0793936  51.8043423  19.4908428   1.3987988
  15.8245957  37.7044535  19.3832707  15.0208175  37.4655890  18.9216268
  15.7829213  38.6577249  19.4592059  30.6604290  47.1748495  12.5396216
  31.2534881  47.3528194  11.8096638  30.1055598  47.9530144  12.5926161
  75.6581688  74.5234919  63.3625746  75.2931881  75.4083681  63.3593893
  76.2528849  74.5070028  62.6127243  52.5561938  78.0650543  46.1575222
  52.6328978  77.1628454  46.4679527  52.8556952  78.0320209  45.2489853
   5.9458685   1.7333850  40.7755041   5.9185821   0.8586907  41.1633110
   5.0964642   2.1179536  40.9919500  52.1182489  15.6745672   6.1970615
  51.3258982  15.6544352   5.6604052  52.8357506  15.6994903   5.5639684
  37.1456480  48.5183573  22.0228362  37.3818493  49.2626572  22.5764251
  37.9694009  48.2531738  21.6137671  21.1216807  10.5670416  23.7118912
  22.0429730  10.3361595  23.5929585  20.6397057   9.8342210  23.3286071
  14.3898726   1.3393021  19.5685542  13.9046335   1.8733531  18.9396155
  14.2520368   0.4387904  19.2747653  62.0593023  49.0120745  49.0477705
  62.9318857  48.9331770  49.4332647  61.7666483  49.8892593  49.2950153
  61.3901281  59.7755384  47.9069567  62.1088791  59.7676849  48.5390711
  60.6068754  59.6137857  48.4328699  23.6972690  39.9954748  15.6031168
  24.5802021  40.2594280  15.8619356  23.6953330  40.0691748  14.6487594
  56.5443611  12.7233350  22.4062777  56.6227770  12.4922454  21.4807081
  55.6167936  12.5980568  22.6066685  41.4771223  45.1664352  66.0706758
  41.6637230  46.0968733  65.9453726  42.0599651  44.7203922  65.4562092
  24.7488046  59.3143320  27.3922992  23.8085580  59.1352224  27.4016881
  24.8349857  60.1645184  27.8235602  80.6047535   8.3253419  20.2702808
  80.0611877   9.0117258  20.6571150  79.9802494   7.6611692  19.9785650
  43.2074070  40.1145029  17.5888598  43.1233692  39.4608164  18.2830238
  42.7394915  39.7353220  16.8448758  49.4011927  57.3025417   9.3856913
  48.8072729  57.3482370  10.1349604  49.9155045  58.1081152   9.4382590
  45.6966686  68.9509392  37.3333836  45.9106302  69.7185802  37.8636456
  44.8535252  68.6520243  37.6739597  11.4364994  29.9934506  62.4993753
  12.0100653  29.2305827  62.5720739  10.5639267  29.6248102  62.3617077
  80.4927444   6.9523269  61.9977093  79.9633265   6.2069809  62.2812700
  81.2754536   6.5576756  61.6132021  65.0334024  59.4673252  16.1363614
  65.5037689  60.2501917  16.4229071  65.6686831  58.7577534  16.2320662
  61.3756227  72.1537542  36.0317397  61.6630316  72.9206991  35.5363321
  60.7606983  72.5022316  36.6772389  68.1602049  67.3383188  31.6243386
  67.6661634  68.1394291  31.4500642  69.0769291  67.6129293  31.6034293
  60.3272438   0.9915983  21.4980125  59.9970341   0.2142475  21.0475469
  61.0382223   1.3076134  20.9404469  44.8111391  51.9066095   1.2294555
  43.8631439  51.7753649   1.2470742  45.1710129  51.1050224   1.6091588
  67.3630762   3.7894467  41.4606619  68.0734348   4.1580874  41.9857550
  67.7988911   3.4251827  40.6902027  78.9490795  26.3449144  28.8558054
  78.3326578  26.4186025  28.1272268  78.4611368  25.8813167  29.5364094
  56.8486786  38.4894538  63.4818602  57.0269918  39.1587996  64.1424704
  56.5728188  38.9828253  62.7093840   8.2614332  16.2088370  30.8150625
   8.1362587  17.0575321  31.2396574   8.9617908  15.7911992  31.3163710
  24.0449476  53.6829662  10.7568991  24.1418624  52.8001642  11.1139643
  23.7453246  53.5462523   9.8581409  38.6525869  55.6161690   5.3971642
  39.5998144  55.5503464   5.5182540  38.4807897  55.1363468   4.5869240
  25.2846116  50.2513564  67.3849664  24.7425192  51.0116649  67.5954312
  25.8237427  50.5382478  66.6479022  57.9870558  58.9624357  61.0609674
  58.0596209  58.0343294  60.8382940  58.8711977  59.3080425  60.9381533
  26.5949607  43.2482290  17.3789978  27.2065258  42.5403070  17.1763408
  27.1474385  44.0254021  17.4626827  41.4469051  49.9624634  20.9432530
  42.0258808  49.2512751  21.2175345  40.8341694  49.5509529  20.3337908
   1.7500687  41.8223524  51.8749285   2.2309718  41.0821104  52.2450781
   0.8286395  41.5819597  51.9719458  43.7121248  50.5508375   6.4283043
  43.4443045  50.8697653   7.2901571  44.1778898  51.2883425   6.0341191
  29.5131135   0.8612860  18.8365054  30.4539800   0.9972659  18.7246561
  29.1970038   1.6788444  19.2210901  24.7653604  60.8898115  48.9774895
  24.0287995  61.4002323  48.6410713  24.7952127  61.0990477  49.9110651
  37.5290179  72.2122335  59.5917130  37.9373407  71.5851974  58.9947748
  36.6114569  72.2386408  59.3203926  45.0607586  58.5010529  11.4276671
  45.0050306  59.4507504  11.3218212  44.5037651  58.3111000  12.1825910
  29.6868706  54.3004036  39.6452427  29.9968910  53.3957338  39.6041489
  30.2811432  54.7835541  39.0711021  49.5502853  64.0937805  40.8511877
  49.5278692  64.2989063  39.9164939  49.9039745  64.8830938  41.2612104
  27.4695396  41.7115879  66.9739056  27.2706342  42.1871567  66.1673641
  27.0627451  42.2329903  67.6659203  10.3393435  16.3859439  63.3639574
  10.8092153  17.1391892  63.7218332   9.4626302  16.4483619  63.7430477
  50.3162670  52.4915266  34.3956995  50.7738352  52.8472853  33.6339259
  50.9824657  51.9849586  34.8602414  57.6760626  30.3855848  14.4629216
  57.3073721  31.2681532  14.4999707  57.6561546  30.1565075  13.5337496
  39.3338919  39.2514563  23.7539768  39.9747992  38.7875986  24.2927790
  38.5710025  39.3527675  24.3231559  79.2698669  30.3071690  21.4296317
  79.6865654  30.4213738  22.2837687  78.5290432  29.7255754  21.6004014
  73.4824562  70.9245300  47.3079491  73.8857746  70.1800060  47.7543211
  72.6169443  71.0040188  47.7089548  18.0264699  65.6786680  26.8593073
  17.2871530  66.1621475  27.2279453  17.6572132  64.8324776  26.6066408
  63.5438824  54.6195745  11.6280723  63.5174084  54.7002649  12.5814986
  63.0961466  53.7935734  11.4450860  11.5101242  14.1942036  41.7303562
  10.7762790  14.6746171  41.3470745  11.3602006  14.2412853  42.6745701
  63.8568878  61.5073538  38.0919147  64.4482565  61.1606503  38.7599826
  63.4716034  62.2859573  38.4938645  51.1291647  46.8510580  52.3204517
  50.3463030  46.4121008  51.9877720  50.7985592  47.6461744  52.7384520
  49.5021391  60.8458519  38.5852170  49.6557426  61.7210627  38.2293558
  49.1410637  61.0020781  39.4578266  74.9660349  15.2441263  15.7411957
  75.1123810  15.3378356  16.6824889  74.1518593  14.7453058  15.6738794
  63.6972189  68.2433796  29.6309280  64.1554880  68.2892036  30.4700470
  64.2738104  68.6994314  29.0179110  72.9242849  52.4673939  12.3006976
  73.2865191  52.9822588  13.0217612  72.7725077  53.1053925  11.6034460
  80.4033279  55.9123087  44.6558428  79.5452547  56.2455082  44.3933153
  81.0065269  56.2601662  43.9990520  50.1979303  73.4291410  11.5191734
  50.5095243  74.1733122  11.0040498  50.9361887  73.2037783  12.0852315
  44.5330286  73.4615326   3.3193138  44.2726803  73.9257526   4.1148961
  45.4877949  73.4160328   3.3701333  70.3063822  76.7841959  44.7314405
  70.3555155  76.1201000  45.4190397  70.0927305  77.5938129  45.1952314
  68.1940651   5.9144384   9.8603857  68.8331079   5.2018529   9.8513669
  68.0111742   6.0838497   8.9362198  18.1147826  69.8545837  14.2905879
  18.2810235  69.2712688  13.5500872  17.9730058  69.2659998  15.0320053
  53.8592196  16.2131929  19.9761415  54.1986561  15.4567528  20.4544878
  54.3619585  16.2268436  19.1617095  70.4278851  48.8175201  65.0951147
  70.7003403  48.5553455  65.9744692  71.2346220  49.1116142  64.6721268
  49.4132423  72.6303291  37.9989934  49.4403458  71.8639326  37.4261665
  50.1526880  73.1677961  37.7151227  74.5344734  45.7962275  62.3743296
  75.2127457  46.4468908  62.5554657  74.0526390  45.7169676  63.1976080
  35.7645082  70.8648348  24.2688441  35.7270980  69.9181080  24.4050002
  36.3011265  70.9728622  23.4836030  29.7470498  71.1030340  41.9622660
  30.3117132  71.4954662  42.6281404  30.2839351  70.4157829  41.5677166
  69.0702486  55.6284094   0.8538549  68.8588715  54.7025299   0.7343023
  69.5036745  55.6669855   1.7064321  12.5114512  11.5843713  22.4845004
  12.9764831  11.1964107  23.2257581  11.6761625  11.8744636  22.8510666
  12.7573597   1.3721803  50.1880884  13.2952857   1.7467737  50.8856153
  11.8640292   1.6387613  50.4051781  70.5466747   9.8833686  47.8777647
  70.3271103  10.2384448  48.7391233  71.1747742   9.1843933  48.0598450
  76.8473387  59.5017719  15.4392755  77.4733067  60.0792265  15.0023031
  76.3399029  59.1149044  14.7257829  69.2858744  33.3335352  14.3941224
  69.6957922  33.0595350  15.2145660  68.5343933  33.8603544  14.6660888
  45.4610157  71.8899584  66.5122700  46.2217474  71.4789057  66.1017275
  44.7194242  71.3518286  66.2353420  81.5163136  49.8655224  39.4509697
  81.3448906  50.0800133  38.5339952  81.1998177  48.9676142  39.5501232
  73.2780361  41.3764048   8.4464943  73.2587957  40.5322504   8.8973427
  72.4377775  41.4235735   7.9904485  81.8318939  58.5134840  26.7767382
  82.5271606  59.1390896  26.5731430  81.3305569  58.4399080  25.9646559
  76.4747286  77.3590565  47.2747660  75.9904671  78.1566525  47.4882269
  76.4733887  76.8533039  48.0874443  71.2880373   2.1196347  27.3569727
  70.5090523   2.3007019  27.8829265  71.8807125   1.6648820  27.9554415
  57.2291183  72.4775791  44.9550867  57.8047800  72.7007008  45.6865644
  56.9460964  71.5815973  45.1377010  28.3165574  12.8420281  60.4277945
  28.4782934  13.0938506  61.3369989  28.6745739  11.9571269  60.3570414
   3.2892898  68.9310694  41.3095427   3.1853718  68.9845371  42.2595835
   2.5049114  68.4726048  41.0082293  18.5230827  61.8112040   8.6739272
  18.2457232  61.7865181   7.7581251  19.3682814  62.2601557   8.6561865
   4.3085483  16.2273300  49.9347401   5.1447940  15.9819162  50.3305864
   3.7793440  15.4310012  49.9798393   9.2731541  68.5050678  42.7965403
   8.4576774  68.2259178  42.3802376   9.5171499  69.3058300  42.3323441
  56.7789555  63.6923790  18.7150860  56.7208052  63.5357046  19.6575844
  57.6939344  63.9320517  18.5681283  52.1192026  36.7693973  60.7522011
  52.4419928  36.5018821  61.6127110  52.6188564  36.2373328  60.1329422
  20.1150179  49.1387844  32.1683455  20.2757716  48.6432171  31.3653469
  19.9123061  50.0243282  31.8667603  62.9083061  68.0592155  26.2556124
  62.6406813  68.7308550  26.8829131  62.3207092  67.3233652  26.4273167
  45.3559446  38.5705996  48.6229610  44.5884752  38.2810163  48.1296396
  45.2595186  38.1567168  49.4806528   9.8570532  53.5513449  38.5576344
  10.1333094  53.5028315  39.4728184   9.9117672  54.4818544  38.3399343
  64.0482664  54.4711018  34.0717888  64.3061161  53.5540628  33.9780593
  63.1744528  54.4356298  34.4609237  78.3363867  45.7865906  39.2826247
  77.4439955  45.9046412  38.9571476  78.6492300  44.9961996  38.8425756
  69.9228191  23.3394504  47.6301003  69.4762182  22.4929380  47.6161051
  70.7316065  23.1916833  47.1399355  60.2392006  72.7369499  43.8716602
  60.2913427  73.3577967  44.5983410  59.8170757  71.9640779  44.2467690
  19.1152906   7.5575525   1.1013228  18.6409724   7.2549546   0.3269274
  18.8004363   6.9959837   1.8096583  15.2147543  40.5674267  48.4128714
  15.6903756  41.0447884  47.7330637  14.5395851  41.1788368  48.7070751
  59.7786427  34.1938615  59.5052195  59.0788412  34.1406417  58.8543129
  59.3236446  34.3392348  60.3347206  46.3592958  69.7373915  40.4410458
  46.7630053  70.1235437  41.2183094  46.4087391  70.4261875  39.7782087
  77.3036146  50.6958485  21.4203238  77.3490334  51.0452127  20.5303144
  76.4026213  50.3853846  21.5100718  24.2397857  42.9011869  31.3401198
  24.5134091  43.2991266  30.5136800  24.6508145  42.0367336  31.3373685
  42.7465200  60.3758001  30.9366608  43.1079102  61.2513685  30.7987857
  42.1587992  60.2395248  30.1935291  70.0922394   5.6739044  66.4742947
  70.9564209   5.6688279  66.0627222  69.9629307   6.5817899  66.7486238
  18.0619335  18.9317787  33.6583972  17.6386666  19.7442412  33.3809400
  17.9801798  18.3491576  32.9033470  37.9802155  14.5373452  47.2137547
  37.1006608  14.8344409  47.4468899  37.9985666  14.5705366  46.2573051
   4.4275340   8.8493508  48.4154320   4.0781993   8.3685219  47.6650953
   3.7238008   8.8255996  49.0638351  43.8927031  51.3265371  36.4650321
  43.4412193  51.2956095  37.3084998  43.4784889  50.6369734  35.9462237
  65.5706930  32.4846673   9.0530533  65.6677914  33.4190083   9.2369187
  64.7640848  32.2344542   9.5036191  66.9946098  71.4691639  41.6642618
  67.6231050  70.9591627  42.1752644  67.0876598  71.1382532  40.7709122
  74.1213799  68.6266613   6.1651635  74.9604034  69.0529203   5.9903049
  74.2949772  68.0533934   6.9117975  30.9712172   8.7461710   5.8568275
  30.6288004   8.9021134   6.7369783  31.4672804   7.9311639   5.9337389
  17.7875888   3.3828029  21.5733361  18.2687378   3.2225832  22.3851609
  17.8433454   2.5557616  21.0946655  77.1181393  45.6987619  34.9104619
  77.0860147  45.0483751  34.2088938  76.4681959  46.3548565  34.6587753
  69.3734360  38.6253524  40.0590706  68.9870882  39.0818143  40.8064699
  69.2486954  37.6967549  40.2549648  81.5302253   6.0046351  50.1119566
  82.3758093   6.0217184  50.5602074  81.5968794   5.2693129  49.5027828
  18.2902753   5.8589238  52.0428276  18.3105755   6.5880907  52.6626158
  17.7759337   6.1861145  51.3048363   4.9707249  73.9668179  22.9370046
   4.0858325  74.2281675  22.6822615   5.2943742  74.6981287  23.4629941
  29.3494248  31.9009113   7.0215094  28.9802623  32.7414870   6.7506140
  30.1593256  32.1306658   7.4770355  61.3044500  10.2992332  23.7553024
  61.2295055   9.8630804  22.9065466  60.6005716  10.9479165  23.7542272
  78.1892538   2.3323466  23.4055877  78.4649563   3.2465357  23.3386779
  78.4434843   1.9436350  22.5686288   5.1553738  18.0579138   2.6599547
   6.0936904  18.0542839   2.4707980   5.0079209  18.8816178   3.1247157
  30.2245498   1.7888525  36.6335368  30.5229497   1.1219648  37.2519612
  30.8005929   2.5368270  36.7914557  20.6855369  19.4828165  34.7326565
  20.6769395  20.1583099  34.0545225  19.8593128  19.0141964  34.6144104
   6.9068009  23.8317513  15.0127959   7.5771821  24.0124202  15.6717181
   6.4137435  24.6491647  14.9423695  55.2810287  44.9208403   9.1737938
  55.1340151  45.7864094   9.5551145  54.5153666  44.4100952   9.4367242
  73.7813091  70.3055525  31.8239260  73.5701370  69.3835926  31.6768765
  73.2570171  70.7775021  31.1769247  57.5742102  64.0445137  21.4534593
  57.2391129  64.9404240  21.4175653  58.4765291  64.1383457  21.7588282
  69.1312313   1.1093501  25.4955220  68.7777948   0.3789378  26.0032725
  69.9628592   1.3169855  25.9215713  15.2885771  19.8045743  10.9182179
  15.8259583  20.1736784  10.2173507  15.4167104  20.3996253  11.6569519
   4.6833470  11.0807514  36.9456124   5.0215524  11.2255931  36.0619426
   5.4497439  11.1671424  37.5125360  17.8139055  10.7462096  41.5173960
  18.5379589  10.2989638  41.9555187  17.3764873  11.2341559  42.2151089
  52.1324968  61.0255384  14.1695344  52.7991056  61.7103863  14.2229116
  51.5212297  61.3377619  13.5023761  55.5380964  63.2583666  28.0203414
  56.3371134  63.7261629  28.2631850  55.7311106  62.8850555  27.1603298
  23.1605482  57.7786064   9.9515736  22.5143290  58.3192253  10.4058492
  23.2257557  56.9854975  10.4835117  40.6283855   2.2049884  46.8104124
  39.7781301   1.7941545  46.6538525  41.1538076   1.5188134  47.2219086
  16.4058053  50.8663988  22.1435976  15.8185661  50.6923008  22.8791738
  16.5553653  51.8113184  22.1749640  66.3391018  36.7635536  23.0481791
  66.0882235  37.4303269  22.4088764  67.2916746  36.7065120  22.9734850
  71.1352158  64.3152905  21.5606689  71.1769867  63.5124683  21.0410857
  71.6157532  64.1072750  22.3619461  25.5447030  57.0678282  40.3116989
  25.3590751  57.2246456  39.3858576  26.3199878  57.5988626  40.4938269
   4.3899995   5.6910592  18.1779110   3.9950597   5.1353425  18.8497984
   4.7572052   5.0755489  17.5434518  72.6012945  45.8641911  21.1060309
  73.5058069  46.0326052  20.8419681  72.2347879  46.7326021  21.2726688
  24.1658020   7.3748809  61.1350346  23.5383391   8.0927938  61.0506439
  23.6397862   6.5828204  61.0246706  48.4392500  39.5723987  59.0824366
  48.9827776  38.8308740  58.8160801  49.0644646  40.2316999  59.3835258
   5.7306892  32.8122354  60.9522867   5.7330513  33.6470222  60.4839277
   6.2985897  32.2440100  60.4318619  35.8038688  67.5555515  32.8390503
  35.9396243  68.0457020  32.0281529  35.5592251  66.6765976  32.5495315
  70.8741331  66.3267469  55.2975178  70.0817823  65.8634329  55.5690813
  70.5834579  67.2244692  55.1367855  47.9874992  58.0244970  21.5541196
  47.2779799  57.3864174  21.4788055  48.7126732  57.5320435  21.9386196
  82.2502708  25.5689073  28.1479645  82.1341610  24.6377206  28.3367467
  82.2448444  25.9900475  29.0075254  74.5249224  33.0566955  40.7813692
  74.8649216  32.5345254  41.5079880  75.2213717  33.6853790  40.5917645
  57.7558136  52.1924925  22.2373891  56.8998718  52.0714140  21.8263650
  58.1558275  51.3230896  22.2182584  67.0057344  56.3985109  32.6510048
  67.6832867  55.7675362  32.4080443  67.4415588  56.9957638  33.2589340
  43.4283400  62.1092272  23.3191490  44.2442799  61.6217661  23.2057524
  42.8575802  61.7863798  22.6218414  70.4750204  11.3340831  43.5908365
  70.5473137  12.2867107  43.5316181  71.3422966  11.0123122  43.3448219
   6.6298050  34.1075182   9.6918803   5.7368284  34.3646026   9.9215150
   7.1869904  34.6889281  10.2093148  64.0890074  39.7513056  13.2223189
  64.8727655  39.2030978  13.2600105  64.4203568  40.6473351  13.2820964
  16.6717505  10.1904356  23.9024472  16.1946809  10.8952034  24.3405557
  16.1002052   9.9264681  23.1814122  53.8469934  57.2369862   0.5732709
  52.9616642  57.0270777   0.8705242  53.8646793  58.1930351   0.5298000
  10.4175031   2.9685986  38.3248329  10.1658046   2.8031167  39.2334008
  11.1584079   3.5713911  38.3875394  19.6382058  38.4179449  30.2395272
  18.7015486  38.3470798  30.0554514  20.0492239  38.4629154  29.3762350
  67.9803991  37.3899555   3.9166644  67.9193687  38.1123734   4.5416611
  67.6738453  36.6251850   4.4038886  43.3101749   3.8607717  55.3940010
  42.8277922   3.8002232  56.2185431  42.6350117   3.8110015  54.7173119
  63.8417244  42.8715420  17.3184395  63.1325912  42.9148102  17.9599118
  63.5007191  42.3104763  16.6219115  72.8857994  38.7881088  41.7303753
  72.2822046  38.0553222  41.8525600  72.4059296  39.4038892  41.1765051
  52.7488756  57.4992704  14.1485608  53.6363745  57.4065447  14.4949317
  52.6272440  56.7298269  13.5923290  46.8935013  74.9482822  29.1356516
  46.6046906  75.6981421  28.6155272  46.1056376  74.6578169  29.5951462
  76.8902254  69.8032570  47.7581501  76.0761309  69.7358894  48.2570982
  77.0918131  68.9021587  47.5059175   5.9636891  23.1247854  30.6949830
   5.6705451  22.2210979  30.8118081   5.5885780  23.5963106  31.4387465
  13.5233831  67.5353813  27.8544641  13.5869384  66.6703367  27.4496269
  13.2256269  68.1089783  27.1483779  14.3010104   6.6041100   8.2198745
  14.3113995   5.6507182   8.3045375  15.2092266   6.8374062   8.0276585
  25.0199318  10.8560693  31.3985229  25.0851059  11.7352080  31.7714834
  24.7803068  11.0013425  30.4832578  32.0279098  62.0110083  20.2716208
  32.5151634  61.5183306  19.6112514  31.6425061  61.3399982  20.8350372
  28.9399195   3.3478799  15.8316600  28.5394216   4.0443885  15.3113616
  28.2812715   3.1335095  16.4923120  50.4604721  51.3375139  22.2238803
  50.5940247  52.0407772  21.5884161  49.6385288  51.5618181  22.6601481
  62.5607204  21.3993764  42.3353386  62.4940968  22.1469283  41.7412329
  63.2279253  20.8381605  41.9402409  23.3264589  50.2921867  31.1955523
  23.6429930  49.6746159  31.8548274  23.5841990  51.1515808  31.5290880
  68.2449961  45.3660488  20.9035206  68.1478357  44.4157457  20.8426070
  67.3817968  45.6781530  21.1750078  45.8291578  69.4232512  27.4080706
  44.8946095  69.3063641  27.5789142  46.0964346  68.6131239  26.9739223
  35.2292991  58.9736462  18.0203915  35.5942082  59.4095135  18.7905180
  35.9688616  58.8926125  17.4181354  34.4240713  62.6552439  28.4509325
  34.1831470  61.8904734  27.9281378  35.3601909  62.5458479  28.6180925
  59.7030449  62.9943180  24.4321275  59.5806551  62.1347284  24.0291977
  59.9181700  63.5732079  23.7007976  13.1752694  13.7260556   2.1944486
  14.0056694  14.1987419   2.1375690  12.5731993  14.2332089   1.6498938
  55.0172853  54.8712254  42.0577049  54.4760370  55.1606750  41.3231945
  55.2095461  55.6729174  42.5440741  41.7296743   3.7137914  53.1070375
  42.1664047   4.5002678  52.7799988  41.8929291   3.0521336  52.4348831
  16.7948329   5.6031030  20.2255154  17.2507584   4.8526156  20.6064796
  17.4327183   5.9925056  19.6274352  45.5029392  74.0048552  39.6729445
  45.4445934  73.3699465  40.3868914  46.3819170  73.8820267  39.3144202
  48.3426285   7.7442318  38.4524322  48.4858751   8.3233058  39.2010212
  47.8084326   7.0303512  38.8006234  69.3511629  61.4592123  25.7220793
  68.6676502  61.2234068  25.0948334  69.1242838  62.3462105  26.0013580
  44.1889524  58.7130737  28.8004899  44.2683983  58.9028835  29.7353125
  43.5145855  58.0356359  28.7501073  65.5419922  56.0395575  21.0581207
  65.1906586  56.6604376  20.4199123  65.0210762  56.1869669  21.8475175
  79.2687225  75.1193810  13.6214221  80.1711082  74.8069000  13.5558808
  79.2382145  75.5902863  14.4542170  76.6757536  27.0310879  15.6232464
  76.9901323  26.6035843  16.4198887  75.8916759  27.5055718  15.8995032
  40.3007588  26.2816941  66.9125821  39.9447998  25.4914509  66.5063290
  40.4392990  26.0387884  67.8280247  57.5955057  61.4221859  58.3005953
  57.4822330  61.5363264  57.3570013  58.5436726  61.3791466  58.4245300
  12.4318397   9.5375043  20.4651928  11.8683338  10.2848423  20.6656361
  12.3783696   9.4455576  19.5139217  15.0036526  16.9687819  20.1756549
  15.4836988  17.7338135  19.8586130  14.2885649  17.3338044  20.6968451
  26.8304658  43.0204725  57.0339251  25.9611416  42.8128242  56.6913080
  27.4318981  42.7538967  56.3386202  61.4729548  62.7370024  11.0914075
  61.4653397  63.6422539  11.4023554  61.5181017  62.2100735  11.8892431
  64.2088079  65.8766222  41.6266108  63.9286757  65.9635162  42.5377703
  65.0851631  66.2611771  41.6077518  19.8779011  31.3205361  28.4694672
  19.6790266  30.9085226  29.3102574  19.4795644  32.1889377  28.5281157
  70.6190825  68.5253525  16.7911673  69.7507191  68.9098835  16.6715205
  70.4474878  67.6085138  17.0061040  81.8060207  10.1414740  46.4182329
  81.2399101  10.9076071  46.5119600  81.6690445   9.8513412  45.5164051
  79.4248724  24.3492985  46.2357044  78.6334753  24.0183806  45.8109522
  80.1219368  24.1927361  45.5986643  71.7782068  12.7905977   4.8641545
  70.9720278  13.2077670   4.5603770  71.8359756  11.9820166   4.3551445
  77.5188017  72.4922514  39.2453599  76.8585491  71.8223858  39.0676379
  78.2477236  72.2696829  38.6662555  71.9445896  60.6755972  24.7843361
  71.7751455  59.7666454  25.0319839  71.0852194  61.0961151  24.8140264
  31.8841934  68.7630033  49.0813303  32.4452591  68.8512039  48.3108425
  31.9219828  69.6207094  49.5045853  32.2923875  57.8967190   1.4798413
  32.4213982  57.1280670   0.9241736  33.1500888  58.0533743   1.8748590
  68.0750704  23.8415861  28.1323075  68.7804079  23.2166982  28.3003783
  68.5078335  24.5831299  27.7091455  25.1372170   7.1818346  10.7370150
  24.6902442   7.1726680   9.8906320  26.0604477   7.0493776  10.5217659
  77.5917912  57.0228958   2.6643062  76.8780565  56.6113377   3.1515715
  77.2367859  57.8675365   2.3872024  32.4619484  34.9903560   0.3369264
  32.1312237  34.1290474   0.0819734  32.7081871  34.8898029   1.2564301
  50.6566095  64.0961456  18.5178089  51.3323021  63.5570192  18.9289200
  50.0416517  63.4652758  18.1435597  28.1542993  74.1737795  45.6915617
  27.6882648  73.7820148  46.4301825  29.0757799  74.1489506  45.9494114
  82.3581123  21.4247823  62.8896713  82.9086113  21.1427879  63.6201906
  82.1542072  20.6173229  62.4177980   3.9885700  47.7679062  24.5078015
   3.8061592  47.2761536  25.3085113   4.7881582  47.3723888  24.1607308
  47.3982382  57.2798014  33.8587999  47.3351240  56.5753794  33.2137918
  47.8631353  56.8870926  34.5976377  53.7886477   5.8468735  40.2009773
  53.4685087   6.7380464  40.0611401  53.0029583   5.3392273  40.4040003
  48.6810398  75.0277567  13.9255071  48.5185766  74.4982862  14.7062111
  48.6352682  74.4050407  13.2000005  78.8041258   1.8473960  14.5362973
  79.0481997   1.9706237  13.6189783  78.3032370   1.0317397  14.5433784
  40.2324200  16.0955453  15.4168582  39.3966460  16.5441144  15.2884042
  39.9999166  15.2765298  15.8543372  52.3932028  67.3885918  45.9490585
  53.0552340  66.7418003  45.7049131  52.7316380  67.7867270  46.7510462
  36.9330597  31.8949533  56.4773273  36.9588351  32.1934175  55.5682135
  37.7631593  31.4349294  56.6020107  51.5592146  70.0753784  22.5497556
  51.0261154  69.5307541  21.9706011  51.1189032  70.0251055  23.3981824
  15.2486050  40.6925774  38.5168076  14.4689977  40.1373577  38.5300493
  15.7809377  40.3754282  39.2463756  34.1932392  60.6463957  35.5785131
  33.5602856  61.2141466  35.1389003  34.1482353  60.9051371  36.4989781
  74.0784979  15.8295512  39.3334627  74.8286343  15.2889419  39.5809937
  74.2782354  16.1238921  38.4448123  73.0758238   7.3566055  36.5257859
  73.0473614   6.8078226  35.7420373  73.8667583   7.8851461  36.4194918
  56.2152052  50.4197693   8.1563646  55.5957603  50.3147078   8.8785040
  55.7006264  50.2351856   7.3706359   8.0875856   3.6861408  60.1961565
   7.5571150   3.0560523  60.6838226   7.7364445   4.5403317  60.4477262
   2.9050326  68.0823231  32.3577499   2.6230103  68.8369083  32.8747630
   3.2496399  67.4651051  33.0031300  74.8025084  56.2738752   3.9748022
  74.9122667  57.1932316   3.7319723  74.0227985  56.2642241   4.5299503
  67.8279877  65.5216026  11.7969728  67.1524334  65.7727194  12.4268901
  68.5869026  65.2983809  12.3359072  64.0915966  55.5187654  16.9417870
  63.3010721  55.7178497  17.4434555  64.7162294  55.2025938  17.5945497
  36.9955564  68.1824493  23.7615585  37.9175138  68.1232357  24.0120029
  36.5243387  67.7636051  24.4818068  12.0903814  12.2214580  40.1622915
  13.0458283  12.2307253  40.2194357  11.8133020  12.9919469  40.6580782
  54.9885654  40.5980349  54.7791386  54.7936106  41.5295649  54.6767712
  54.1841984  40.1540709  54.5105696  62.8803444  64.8797941  24.7394037
  61.9645739  65.1545143  24.6933031  62.8515768  64.0197086  25.1585221
  13.7822187   4.7767723   3.9337164  13.4113872   3.9812386   3.5518235
  14.1117489   5.2715057   3.1834626  65.5894566  33.1729007  41.0115242
  64.8455000  33.7450719  40.8234310  65.3171682  32.3129201  40.6913280
  61.2611246  11.2225235  53.2698679  60.9703016  11.1484420  54.1788054
  62.0909834  10.7461667  53.2443333  61.4240789  72.6314831   1.8012914
  61.7434311  73.3820200   1.3003509  61.1991072  71.9790411   1.1380106
  52.0956850  69.6862268  51.5090275  53.0344105  69.5434332  51.6300297
  52.0376682  70.2683878  50.7514334  53.0467129  69.8651981  13.6906397
  53.4041214  69.5614767  14.5250523  53.7352753  70.4188967  13.3224905
  21.0721684  10.6429863  36.8994021  20.8648634  10.6410170  35.9649229
  20.3861380  11.1800766  37.2957945  81.4906788  18.4720635  64.7837877
  82.1273422  18.4859502  64.0691566  80.8172989  19.0977859  64.5168400
  57.0330000  63.0412292  35.9323072  57.4248266  63.0449057  35.0589848
  57.0322037  63.9607191  36.1983347  43.8684273  10.0359523  63.2994413
  44.4027042  10.8292592  63.3374023  44.2897511   9.4338518  63.9127827
  72.8892040  14.7888052  56.5907240  73.2850170  14.4301128  57.3850203
  73.6263323  15.1481950  56.0970545  10.7659888  38.6863637  55.3494835
  10.3171456  38.7296581  54.5051527  11.2106764  39.5303631  55.4278994
  40.4942751   4.5222083  19.7916853  39.7505093   4.7689483  20.3413773
  41.1820364   4.2825106  20.4127836  67.9385138  66.4263487  27.7685046
  68.2090616  66.7016172  28.6444402  68.3406782  67.0664930  27.1813869
  37.5655913  60.5879402  66.8645239  36.9774008  60.3961945  66.1341143
  37.4486971  59.8522806  67.4656630  13.6853540  24.4737744   7.6592124
  13.8587379  24.4674468   8.6005569  14.5143187  24.7448683   7.2648036
  65.5728817  50.0552607  66.7944813  66.3209009  49.9507904  66.2064409
  65.6962538  49.3797159  67.4612999  17.2912264   7.4354416  62.9415035
  17.3481488   6.5293795  63.2448864  17.9126644   7.4842834  62.2150993
  64.5093966  68.1701469  55.6847858  63.6069822  68.0132103  55.4068518
  64.8356962  67.3065901  55.9378290  52.0478773  71.9789791  25.7728791
  51.9200420  71.7007875  24.8659635  51.3238049  71.5754271  26.2515211
  72.3417282  70.5797386  44.8309040  72.3782873  71.4059544  44.3489599
  72.7896643  70.7640219  45.6565094   8.8108677  14.4163156  39.9344087
   8.8455343  13.5456967  40.3307056   8.6352438  14.2510021  39.0080929
  19.8361695  15.7844138  17.9235899  20.1426697  14.8805332  17.8508496
  19.8817408  15.9781599  18.8598680   1.5350412  11.1428678  47.4229288
   0.6763419  10.7549632  47.2544146   2.0400730  10.4390275  47.8300953
  11.0787594   7.9543924  50.3393078  11.3516498   8.8662964  50.2383471
  11.8866444   7.4504024  50.2415943  75.7421350  73.7393999  40.8984947
  76.2946939  73.3761120  40.2064466  76.2176800  73.5520649  41.7078114
  39.2666030  67.7318811  38.8179040  40.1001358  67.6504374  38.3544135
  39.3344331  67.1113539  39.5435619  68.0551863   7.2354406  52.3497200
  68.6781883   7.9330510  52.5532770  67.4877310   7.6101422  51.6760540
   2.3229951  76.4565659  23.9055085   2.1858254  77.3597813  23.6198163
   2.1919498  75.9328270  23.1150961  24.7047591  12.3600662  53.7200737
  24.9746346  12.8522491  54.4954205  25.4973221  12.2998643  53.1867361
  37.2879767  57.3075962  43.9682341  37.1332169  58.0891991  44.4986868
  38.0291033  57.5405312  43.4090376  63.5405922  64.7631550  39.0551376
  63.1978941  65.0690079  39.8949265  64.4223022  64.4494677  39.2561865
  12.9222929   9.6928900  12.8886771  12.2330391   9.1753638  13.3050025
  12.5420868   9.9722737  12.0558393  62.5250196  74.3052912  34.8237801
  62.5004005  74.8006344  34.0050888  63.3351994  73.7981224  34.7725940
  71.4687347  57.1264887  25.8194923  71.1309528  56.8102455  26.6574216
  70.6881475  57.2616386  25.2822304   3.4359062  66.0411024  47.3447800
   3.4061807  65.8486795  46.4075899   4.2586070  66.5151310  47.4659872
   5.5895883   5.7717097  35.9288549   5.9169614   6.1671835  36.7367268
   6.3708770   5.6447673  35.3906107   9.3194783   6.2077308  49.2024279
   8.6291695   6.3248557  49.8551035   9.9223512   6.9346869  49.3583441
   3.1173894  64.9356127  60.7858229   2.4920464  65.5851603  60.4644728
   3.6481252  65.4101515  61.4256382  24.5940256  15.9162450  33.3570600
  24.1942048  16.1880553  34.1831923  25.1146173  16.6713250  33.0830646
  44.5599174  66.8510246  20.0562501  44.1371918  66.7041397  19.2101061
  45.3745604  67.3053408  19.8413408   3.2865247  66.1483288  44.1866112
   2.7471590  66.8792534  44.4883823   2.6569626  65.5023146  43.8663769
  53.0798769   8.0465347  16.7155719  53.3723354   8.4087735  17.5519240
  53.0112505   7.1049142  16.8732834  66.1756611  63.4717655  33.7059045
  65.3879118  63.5951281  34.2354965  65.8464527  63.2463026  32.8358364
  31.1253977  14.3616796  34.3559527  31.4137244  13.7993395  33.6370134
  31.5335679  13.9831328  35.1346254  49.2752409  16.6021252  27.5599861
  49.9550438  16.7425382  26.9009089  49.4698668  17.2418654  28.2448816
   0.4446357  63.3174467  12.5089276   0.7048269  64.1336203  12.9360068
  -0.4569437  63.1735182  12.7964520  17.1008575  45.4313183  63.4585810
  17.1416926  44.8009729  62.7393961  16.2948394  45.9228992  63.3007383
   6.8282080   0.2162575  30.2998090   7.3385918   0.9843601  30.0433755
   6.1733145   0.5564571  30.9094095   6.2696481  43.5555553   6.2143892
   7.0000899  43.3626127   6.8021476   5.5229223  43.0996180   6.6026622
  71.1838865  17.3437381  37.7664566  71.9985294  17.8233385  37.6162195
  70.5008650  18.0131042  37.7256632  38.2579994  72.5883865  34.4802570
  37.8435898  71.8250895  34.0779233  37.9654098  72.5673389  35.3913975
   1.8892258  22.0416689  29.7786689   1.0562295  21.5712070  29.8105431
   1.7261647  22.8505635  30.2637768  23.6331081  59.5526218  13.8696492
  24.3148208  60.2223206  13.9244413  24.1123962  58.7314224  13.7594366
  49.3185997  53.0234289  24.7441363  49.7998905  53.7169743  25.1953387
  48.5911751  53.4756517  24.3168402  58.6102057  69.0650368  30.9058118
  58.6068439  68.1149244  31.0220289  59.3656540  69.3654633  31.4110589
  19.4753206  21.7871809  40.0367403  19.6496439  22.5862670  40.5340385
  19.8578799  21.9530272  39.1751313   7.4075145  49.1948938  17.6905143
   6.7462856  48.5178614  17.8341734   7.2319722  49.8485804  18.3673513
  69.1293383   0.7405222  30.7424521  69.1134930   0.8377968  31.6945648
  69.1516924   1.6379823  30.4103422  80.0384331  15.9668458  46.3691425
  79.3575716  15.3648460  46.6695595  80.3118801  16.4327431  47.1593332
   0.2206443  21.4980888  44.8250198   0.9066779  22.0300746  44.4218063
   0.6925426  20.7864571  45.2575970  37.0257759  15.5054832  44.4422770
  37.2031188  16.1344433  43.7428522  37.4494624  14.6979725  44.1513300
  71.0672522  67.6291275  30.1246572  70.6742477  66.7564440  30.1106143
  71.8330050  67.5378609  30.6916857  81.8642902  50.1588202  45.9242201
  82.7295589  49.7496128  45.9335947  81.3648033  49.6483135  45.2869320
  78.2861662  26.3660860  35.5342412  78.6427736  26.5599227  36.4011288
  78.1256723  27.2251344  35.1437140   7.0816523  55.2078867  36.6158104
   8.0266654  55.1224375  36.7418313   6.8809301  54.6095848  35.8961034
  20.2727866  53.0924416  58.1299591  20.0510383  53.8184452  57.5468779
  19.8754966  53.3285379  58.9682055  82.6240789  19.3082309  42.6118326
  82.7719818  19.7281146  43.4592152  81.8791437  19.7789645  42.2380495
  66.9782829  60.8587170  29.7666216  66.8889713  61.8025923  29.8983502
  67.8590965  60.7491779  29.4082808   5.6141311  55.2969837  56.3114309
   5.0928539  54.6629572  55.8189774   5.5890715  56.0923624  55.7794714
  39.3483448   4.8313165   5.8407450  39.7146249   5.4332972   6.4885795
  39.7649765   3.9910555   6.0320836   9.1720265  30.4405904  14.9981844
   8.9407963  30.1497412  15.8803236   8.3784997  30.2962708  14.4827056
  22.2899103  40.0606680  49.7086096  22.3983335  40.7769394  50.3342533
  23.1782651  39.8681498  49.4086218  48.3450189   0.0081180  31.6288495
  48.2209674   0.2879213  30.7219005  48.8617817   0.7085680  32.0270443
  71.1925268  77.2359514  42.0906544  71.8080997  76.5811682  41.7611742
  70.9394550  76.9130087  42.9554653   6.2541121   9.6205443   1.0020241
   6.1990261   9.8537713   1.9287400   5.4712975   9.0938652   0.8406509
  30.0222611  17.2231436   9.9849862  30.8274341  16.7056382   9.9956745
  29.9610996  17.5524783   9.0883088  74.5029497  35.2958107  17.1235263
  74.8051119  34.8082137  16.3572514  74.4882965  36.2087035  16.8360448
  23.5462427   9.8690450  48.6383438  23.4856749  10.8232403  48.5927868
  22.8622079   9.5570737  48.0458879  20.4377627  20.7002831  27.7333093
  20.1175594  19.9089730  28.1663585  21.3183999  20.4711318  27.4363232
  18.0717719   5.3043520  38.3692789  18.8674855   4.7875467  38.2428527
  17.7739978   5.0741881  39.2493844  30.9297776  73.6325169  25.5224133
  30.9516788  74.5696878  25.3288531  31.6950703  73.4847593  26.0780430
  79.4468260  48.5930729  25.2624154  79.5152283  49.3186617  24.6418738
  79.8192453  48.9365530  26.0745478  19.5720923   6.9125128  41.4658689
  20.3303027   6.7325467  40.9100246  19.8230648   7.6864696  41.9700861
  14.2245054  10.8897829  49.4169188  14.9987876  11.3138056  49.0468884
  14.5035958  10.5963492  50.2842331  29.2175364   2.4370526  28.2875633
  28.4925103   1.9580047  28.6889148  29.3436885   3.1987450  28.8533759
  47.9012966  18.0165589  64.8430252  47.6333904  17.8516865  63.9389944
  47.1914196  17.6541483  65.3730869  57.2388601  68.2983589  18.6582124
  58.0261469  68.1371307  19.1782284  57.2237492  67.5857735  18.0192876
  58.7167978  74.3548346  35.6255984  58.8654661  75.0584888  34.9939322
  59.0516901  74.7008801  36.4528441  61.2394238  42.9233742  65.8478785
  60.6494570  42.3182487  66.2973118  62.1107197  42.5486660  65.9769964
  66.1251688  71.8471003  29.3955827  66.5194559  72.2295570  28.6116862
  65.7380199  72.5913811  29.8564458   4.0278774   2.8847304  45.3345823
   4.4457534   3.6641386  44.9683428   3.5842580   2.4785367  44.5899773
  46.5608549  16.9142091   1.9541866  46.7023325  17.1043909   2.8815740
  45.7835245  17.4219573   1.7214337  59.3730831  72.1148443  41.3157129
  59.6947432  71.2454033  41.0773230  59.7506428  72.2814083  42.1793890
  53.8490200  71.6970062  64.7116947  54.4999695  71.5885830  64.0183401
  53.1492615  72.2083902  64.3054247  34.7312403  28.9634871   1.2299486
  33.9918852  28.4727168   1.5887378  34.9981999  28.4642053   0.4581437
   1.3364662  11.6784680   3.5029274   1.1060055  10.9007072   2.9947841
   0.8345765  12.3861516   3.0985492  55.7777023  77.3744583  45.2278042
  56.4972639  76.7623186  45.0736904  55.6459808  77.8066015  44.3839264
  71.5443468  54.9172688  50.1245165  71.5419340  54.0818977  50.5918312
  71.2717247  55.5592394  50.7800913  82.2655678  48.4903288  56.2819004
  81.7035389  48.3002281  57.0330429  81.7881680  48.1386614  55.5304718
  56.2425613  50.0170565  45.9589958  55.4480124  50.5154896  46.1500120
  56.0420704  49.5478725  45.1491165   4.1658735   4.5099467  32.4272323
   4.4670647   5.2857870  32.9000831   3.2931408   4.7452247  32.1122503
  34.1551065  19.3350506  43.4942341  35.1100540  19.3813109  43.5407639
  33.8533449  20.0661612  44.0333557  80.1307297  36.3561749  29.0657663
  79.5980644  36.5749359  29.8303843  80.7270527  37.0986414  28.9689255
  71.5225792  11.3176823  30.2676463  70.9055138  11.8571889  29.7732830
  72.3354912  11.8230569  30.2682400  56.9575639  25.8687579  -0.2663035
  56.4854466  26.0502374   0.5463463  57.8256032  25.5840194   0.0194650
  62.7262831  68.1069326  23.5199142  62.8327465  68.0157900  24.4667983
  61.9771194  67.5499201  23.3084178  56.1190701  36.1405206  19.5245230
  56.3464832  35.3048682  19.1168439  56.1081219  36.7655349  18.7996316
  58.8185120  62.0376444  27.4167538  58.0575466  61.5718889  27.7634978
  59.4777203  61.9668341  28.1071615  66.9869328  52.2896862   3.3367106
  67.4175930  53.0095482   3.7977499  67.0793629  51.5396500   3.9241952
  27.6496601  50.3724432  30.1987362  26.8417287  49.8957396  30.0083876
  27.4482441  51.2822104  29.9796700  13.4296525   0.2862447  66.3049603
  13.2095480  -0.1251470  65.4691744  13.5987127   1.2021047  66.0839415
  13.5340273  48.9150190   8.3928055  12.9145837  48.6172390   7.7265859
  13.5992491  49.8598480   8.2539731  17.5037682  13.3470845  56.0310841
  17.2817385  12.5180757  55.6071997  18.2067347  13.7106586  55.4926729
  68.7561464  72.6055717  58.4296989  69.5591736  72.0914268  58.5135841
  68.1908035  72.2829914  59.1315222  48.1829023  72.3550653  30.8475399
  47.3463011  72.1412325  30.4344964  48.7764883  71.6616774  30.5592752
  48.5083866  60.2659702  23.0154777  48.8886547  59.9636221  23.8402271
  48.4298944  59.4741488  22.4834132  69.8657942  70.8948994  37.9160285
  69.7811460  71.1135721  36.9879937  70.7535267  70.5469179  38.0001020
  82.6040183  48.9721680  23.7278175  81.9236921  49.0166235  23.0559468
  83.0592407  48.1483698  23.5535908  80.7193279   0.1297530  33.7563920
  80.0972939   0.0459097  34.4790745  80.1919842  -0.0071227  32.9693699
  31.2785292   5.9403920  56.8250418  30.5175781   5.9369314  57.4057055
  31.9932151   5.6025547  57.3647833  41.1901045  72.9935360  34.4600511
  41.4204931  72.0879650  34.6676421  40.2332163  72.9977417  34.4359899
  12.0028472  12.2084129  29.3605042  12.4174666  11.3531566  29.4739103
  11.0979557  12.0752156  29.6427464  73.2983589  43.9946795  50.7650948
  73.0602026  44.1372347  51.6811657  72.5357056  44.2938089  50.2700090
   2.2972296  -0.1277996  39.5289063   2.8155993   0.4627918  40.0754690
   2.7145623  -0.0860001  38.6684871  57.6801634  45.0411558  67.1543503
  58.3863449  45.3514719  66.5875673  58.1126499  44.4587135  67.7788115
  72.3108149  50.1525879  28.7457347  73.2112169  50.3426743  29.0091133
  72.1959019  50.6295872  27.9238486  24.2842555  69.3243694  37.3985171
  23.3875155  69.0067339  37.2926974  24.5815516  68.9331484  38.2199764
  11.6995120   2.6261109  14.0468884  12.4982309   2.2152525  13.7160170
  11.6348922   2.3278657  14.9541402  25.1208353  78.0229330  27.0750093
  24.8892665  77.5118828  26.2994838  25.9840369  77.6959324  27.3283625
  29.5245862  74.5212078  35.7563257  30.4522038  74.7570562  35.7447362
  29.3866205  74.1342497  36.6208839  57.9483080  76.7714167  59.7874784
  57.0167685  76.9549990  59.6659994  58.3924675  77.5414133  59.4324350
  16.0326993  57.5148630  24.4639683  16.7445445  57.9565573  24.9270201
  16.3849962  57.3436737  23.5905766   7.9927605  50.3601646  14.9512601
   8.9294302  50.4015207  14.7584629   7.9431498  49.9376535  15.8087313
  55.8844423  32.2348905  56.3849783  55.1717949  32.0051837  56.9812965
  55.4797840  32.2364450  55.5175209  15.6970990  11.1206281   0.7014902
  15.7784081  11.8052268   0.0374523  16.3459885  11.3529551   1.3657176
  77.2525072   9.7022265   3.2526293  78.1937885   9.8190874   3.1239215
  77.0829868  10.0639033   4.1225058  27.9356289  66.1571789  66.9266462
  27.6852918  66.9372845  67.4216175  27.1139097  65.8341837  66.5569353
  26.8885803   6.5560788  33.8545942  27.5258851   5.8572900  34.0021420
  26.7153192   6.9103080  34.7267938  33.8473487   8.4405440  21.5494442
  34.2815304   7.6168704  21.7714357  34.1310811   8.6272550  20.6545329
  40.4136181   9.1809905   5.7817709  40.8990812   8.5722280   5.2250248
  41.0713196   9.5341718   6.3808715  62.6433849  75.8439016  21.5791178
  62.5530386  75.6881475  22.5192308  63.4046173  75.3235626  21.3222003
  17.1064436  69.0278387   0.3430586  16.3911355  69.6551752   0.2381099
  17.3801506  69.1270256   1.2549132  46.8490744  61.9121504  61.5690470
  46.6643333  61.8483782  62.5060844  46.2875271  61.2484837  61.1684990
  54.1256475  10.7294631  29.9901676  54.0526533  11.0974061  29.1095304
  54.9193764  10.1952291  29.9615002  41.7746925  70.4500914  35.4187179
  40.9864664  70.0629330  35.0378871  42.4793911  69.8517704  35.1704311
  59.9604797  62.5001049  20.1093817  60.5931044  62.5821590  20.8230209
  59.3114090  61.8765831  20.4352045  20.4159474   9.5716608   2.0508617
  20.1124859   8.7654543   1.6335195  19.6655953  10.1639307   2.0016737
  30.2247095  18.1776226  23.0187607  30.2355170  19.0662098  23.3744693
  30.8855247  18.1887555  22.3263526  63.5780954  51.5391445  65.9880209
  63.5936022  51.2575054  65.0733232  64.4043541  51.2200451  66.3509226
  16.4847755  62.0419216  44.1348696  16.9831288  62.3090124  43.3625126
  15.9513450  61.3066006  43.8332319  48.2384300  76.1258745  43.2580280
  48.5958242  76.8887329  43.7125063  47.6367998  76.4930439  42.6103783
  14.4001722  19.7975743  59.6013546  14.7518492  20.1097465  60.4350805
  14.8265886  18.9518142  59.4631815   0.3314720  72.5760317  17.6340497
   0.0640039  73.3327246  17.1124148   0.0353420  72.7799177  18.5211623
  17.2408962  76.0024357  28.3807611  16.7676187  76.8156815  28.2050538
  17.4591064  76.0486364  29.3116117  40.8615160  13.7164247   5.9206676
  40.5588388  14.5886183   5.6678897  41.7356825  13.8617992   6.2825114
  12.2911394  34.0205741  11.5923643  11.5930188  33.3726668  11.6876245
  12.0432520  34.7288847  12.1865702  27.3288274   7.1402210   6.3200629
  27.0131421   6.9782740   5.4310477  26.8400645   7.9099852   6.6112781
  75.3111553  57.8291655  66.5828037  76.0079002  58.4633207  66.4136267
  74.5804596  58.1257105  66.0402346  37.5550580  24.5234776  18.6351287
  37.7552319  25.1426244  17.9331195  36.6520023  24.2543817  18.4668732
  41.6346455  30.2181864  19.9401391  41.8636560  31.1422300  20.0397706
  40.7767153  30.2284622  19.5157862  12.5793982  38.4964228  29.0793061
  12.4891949  37.6557493  28.6305714  13.4028971  38.8565230  28.7500501
  16.5015054  53.3852863   2.1425268  17.3680961  53.7908363   2.1145175
  16.0838544  53.6559629   1.3248870  35.9632564  18.4103954  26.5106559
  36.8170214  17.9820335  26.5724945  35.5577731  18.2607281  27.3647141
  12.8445125  70.7363605  43.8740349  12.1406031  71.3849640  43.8813448
  12.7448308  70.2841520  43.0362988  30.0233984  19.7326910   3.0025929
  30.5571723  19.4701922   2.2526504  29.1462111  19.4093299   2.7971423
  54.8211622   4.8273110  47.1647978  53.8787889   4.6612459  47.1406364
  54.9549150   5.3321242  47.9669857  24.2591977  18.1666994  16.3568902
  25.0608134  18.4901905  16.7679822  23.8861394  17.5644338  17.0005798
  12.9460406  20.4621840  18.9886546  13.1679666  19.8018253  19.6450913
  12.8721726  19.9710965  18.1703579   6.1978650  59.8278475  21.9174671
   5.4340047  60.4026175  21.8685722   5.8743948  58.9745140  21.6286421
  15.5146658  26.8895125  12.1303558  15.2508926  26.2349868  12.7770805
  16.1643910  27.4263239  12.5841427  79.2833805   2.4122968  59.5765066
  79.2901707   1.5988845  59.0719843  78.3560562   2.5864428  59.7376728
  62.5817585  34.5125604  58.8328552  61.6596937  34.5160389  59.0897894
  62.5682878  34.3226123  57.8947878   4.0490413  33.3326411  10.2115607
   4.0084657  32.4511194  10.5823791   3.3824751  33.8249445  10.6906843
   8.6805904   9.2419809  24.2159700   9.0096939   8.7988865  24.9980140
   9.0817767   8.7697256  23.4864116  63.5459362  55.6826830  67.1107841
  62.7670823  55.3493524  66.6652436  63.4629403  55.3633750  68.0093305
  65.5346727  60.3271770  51.2018776  65.4200411  60.6258011  52.1040487
  66.4297676  60.5813885  50.9773445  82.1479034  49.0683937  62.0948315
  81.4019108  49.5378351  62.4681330  82.9087162  49.5962048  62.3373270
  13.8563085   7.4931717   2.0267035  13.0460000   7.0532459   2.2838011
  13.6034954   8.0493146   1.2898034  60.7622337  17.5869119   6.6948062
  61.4018536  17.2869635   6.0489357  61.2800837  17.7650809   7.4798656
  31.9583654   7.9875958  54.8884916  31.5478420   7.2203875  55.2873564
  31.3147736   8.3002353  54.2526627  77.1398544  54.1359711  57.9556608
  76.6484308  53.4210491  57.5511646  77.9083204  54.2453289  57.3955441
  73.8561249   0.3270908   6.2004274  73.5467815   1.0101607   6.7953682
  73.2251978   0.3326716   5.4806155  17.0079207   6.6549009  16.3876176
  17.5522840   5.9927887  16.8136537  16.3733280   6.1513484  15.8777547
  55.9412670  42.6351595  66.2488937  55.8073568  43.0213785  65.3833675
  56.4346933  43.2973433  66.7329121   7.4442989   6.0304302  31.8897009
   7.6145381   5.7812023  32.7980685   7.9586089   5.4116923  31.3711619
  28.7780023  11.9555914   6.8279678  28.5995984  12.0802498   5.8958387
  28.6144090  11.0249341   6.9807690  42.6397753  39.1544271  61.5456438
  42.9758787  39.2702293  60.6569052  41.6883421  39.1392827  61.4418173
  80.6678486  71.6747665  28.8645267  80.1698112  70.8645010  28.9725089
  81.5340233  71.4724302  29.2181230   8.0123591  74.0116882  28.2951260
   7.9803878  74.0275431  29.2516613   8.7610376  73.4517431  28.0897546
  58.5436249  22.1158242  30.6751728  58.1936169  21.2443280  30.4901862
  57.9216003  22.7159953  30.2639389  31.5572834  71.5138197  52.9856014
  32.2246766  70.8450031  53.1389189  30.7727814  71.1721039  53.4145784
  44.5827246  52.4469090  15.9998655  44.4631004  52.7695417  15.1066518
  43.7810946  52.7025509  16.4562309  57.6809120  71.2281799  22.4043798
  58.0163050  71.8537140  23.0466008  57.2103357  70.5782080  22.9262328
  66.3796282   2.5650689  53.9954138  65.9700060   2.0281014  54.6737242
  66.2107372   3.4666181  54.2691231  47.8603411  21.0799503  35.0332379
  48.4326267  21.5995073  34.4686317  47.0526171  20.9807372  34.5292830
  67.0291853  14.2941451   2.2417161  66.5285158  13.6875510   1.6961831
  66.7664957  15.1627660   1.9372085  49.4588280   9.9022031   2.7812356
  48.7099981  10.3751588   2.4181896  49.1618681   9.6083802   3.6424646
   7.8530061  72.9552269  19.5496106   7.4936706  72.7816772  20.4196620
   8.0258960  72.0874834  19.1844213  24.8350191  63.3136129  29.5880389
  24.8466825  63.7472296  28.7347674  24.0994668  62.7032518  29.5364952
  40.0341558  23.2034755  39.7775936  39.8082972  24.0562582  40.1490545
  40.2037573  23.3824277  38.8526917   1.9942294  66.9393969   1.1844987
   2.0640711  67.8898811   1.2735859   2.1832231  66.7708254   0.2614079
  37.9438925  30.0502229   1.7173365  37.2019267  30.1975322   2.3038648
  37.5647879  29.6074295   0.9580956  81.3373280  51.7077637  31.7174411
  81.5168476  51.8247032  30.7845235  82.1841621  51.8420458  32.1429682
   9.3443787   6.2134683   2.4377702   9.3811274   7.1512049   2.2492722
   9.9654162   5.8212698   1.8239911  81.8765545  31.7858791  18.8915694
  82.1456909  31.1312318  19.5359552  81.0869884  31.4195013  18.4933519
  67.8802681  61.4052534  50.8745527  68.1026602  61.7855024  50.0247383
  68.5427952  60.7288265  51.0150433  55.2607632  76.6766787  38.1490564
  56.0573292  76.8545008  38.6491489  54.9850893  77.5340796  37.8248644
  65.0210094   7.5286603  53.5947895  65.3223228   6.8589050  52.9808903
  65.7065105   8.1964713  53.5761213  55.8815050  40.1443624  61.3942766
  55.2385902  40.1761961  60.6858444  55.6409073  40.8711100  61.9688940
  50.1596642  17.4959493  13.4227490  49.7521305  17.1410918  12.6326680
  49.4904518  17.4013984  14.1005743  54.3770266  25.5043030  66.9723463
  53.8118887  24.7736311  66.7214155  55.2324295  25.2828670  66.6042614
  54.7457218  66.9437504  39.7787380  54.4945192  67.1795464  40.6717825
  55.1213121  67.7459288  39.4158697   1.2045910  67.0267439  40.5259991
   0.4569475  66.8572187  41.0991669   1.1731440  66.3237906  39.8770761
  39.3555641  39.6392202  15.4243124  38.5749722  39.0877461  15.4770648
  39.0632367  40.4244566  14.9615121  33.7553716   8.6406928  42.6290464
  33.6123490   8.3102745  43.5159540  33.0247068   9.2397851  42.4759197
  40.1212502  16.3417697   5.5037427  40.2378654  17.1499121   5.0042033
  40.0542116  16.6303730   6.4139324  62.7753592  55.0156355  62.1340752
  63.7321138  54.9927807  62.1524239  62.5077057  54.3559456  62.7739239
  68.5355186  58.0678654  17.7382445  68.2175922  58.4235764  18.5680807
  69.4225836  57.7647257  17.9317641  27.7530551  76.9830990  11.3438237
  28.3595061  76.2559509  11.2034631  27.3852777  77.1588326  10.4777455
  23.0805254   1.2668733  27.1522069  23.7117481   0.5850435  27.3821974
  22.4298620   0.8185193  26.6119766  20.2529407  34.1411710  10.9597361
  20.6405497  34.2159414  11.8317449  20.7043576  33.3978033  10.5599093
  26.1637950  48.1567144  22.8239131  26.1088991  47.3174047  23.2808352
  26.9036674  48.0554819  22.2251034  37.2798419   6.5375388  12.0615017
  37.9717755   5.9769493  11.7105031  36.5290380   6.3778406  11.4896441
  53.7430429  10.1782870   2.0095688  53.8590717  10.8885145   1.3784234
  52.9408264  10.4047072   2.4801232  47.8757286  57.6839638  56.6721153
  48.2985783  56.8546915  56.4491129  48.5090113  58.3531475  56.4125443
  24.4503999  64.5520401  20.1076555  24.3191695  64.1504812  19.2487252
  23.6263132  65.0038624  20.2892423  16.8387306  38.0076313  23.8963509
  16.9048595  37.0915627  23.6267638  15.9247875  38.2401609  23.7324309
  58.9451790  61.8822336  63.8824081  59.0437651  60.9681606  64.1488266
  59.5226336  62.3671722  64.4719982  51.5774536  11.6767681  22.7926779
  51.3944817  11.2556756  23.6325788  50.8750439  12.3186469  22.6885128
  21.7145681  69.2987776  19.3972862  22.0454431  69.8891640  18.7203872
  21.4540648  69.8777580  20.1136303  60.2095509   9.6933997  27.8807259
  59.7088480  10.4561615  28.1700706  60.8328772  10.0434625  27.2442126
  48.0621338   7.4803770  35.3480482  48.1582785   7.5630933  36.2968087
  47.8359365   6.5606630  35.2095127  49.8670721  67.2094679   3.4452313
  50.5475855  67.0825386   2.7841538  50.1428509  67.9898310   3.9260784
  28.9965010  73.5982275   9.1434246  29.4526124  73.9981365   8.4029734
  28.1866336  73.2529879   8.7677181  41.8343878  72.4519014  20.6835651
  42.4068975  72.7075148  21.4068389  41.0890055  72.0261288  21.1070704
  57.7906752  65.4399824  36.7538095  57.6910639  66.3355732  36.4309621
  58.4661818  65.5025578  37.4290919  74.7118555  64.3530476  66.9490836
  73.9415680  63.9525354  67.3521743  74.4588171  65.2644599  66.8023614
  23.6673379   8.5236180  32.7056503  23.2513046   9.2075115  32.1808290
  24.0360999   7.9187340  32.0619416  72.4914122  15.1432264  28.8295174
  71.7006302  15.4428172  28.3810282  72.5142765  15.6517971  29.6401143
  69.3199301  69.3268776  56.5782642  69.3489265  69.9982786  55.8966446
  68.3986139  69.2854023  56.8345594  76.9615364  13.2730532  15.8610356
  76.3732004  12.5436366  16.0560834  76.3784981  13.9942813  15.6241274
  35.6697392  51.8984938  14.1551614  35.4969764  52.3658037  13.3378446
  34.9230742  51.3080978  14.2559290  39.1800737   7.1609414   8.8747638
  39.9364591   6.9859922   8.3148468  39.5436859   7.2148603   9.7585690
  55.7133913  27.2022414   8.4564388  55.0999117  27.4938798   9.1308445
  56.1917257  26.4801431   8.8638753  16.6841400  21.0556340  33.1334877
  17.1437490  21.6916871  33.6816025  15.7615840  21.3008022  33.2043052
  38.1547928  29.5158172  45.9578609  38.1300139  29.8317051  45.0546265
  38.9666915  29.0118408  46.0131550  21.3316131  43.1034184  19.0197241
  21.9910264  43.6928368  19.3857729  21.3750577  43.2524395  18.0751932
  70.9494925  20.8342791  43.8235569  70.3008175  21.5352035  43.8880110
  71.7911720  21.2890410  43.7919760  61.6916180   2.6963851   2.3487258
  62.2958040   1.9666649   2.2119778  62.0843315   3.4256315   1.8689281
  16.7893755  37.6307917  54.7185946  16.0625291  37.0945454  54.4017887
  16.6172421  38.5022736  54.3620539  63.0921507  16.8225753  38.7617326
  63.0358696  16.8781233  37.8078032  62.7110624  15.9707856  38.9749479
  81.2391090  69.2125607  18.8108075  81.2726498  68.9577627  19.7328639
  82.1291733  69.5016575  18.6096823  40.8718300  10.6828833   1.8309796
  40.8396244  10.9025252   0.8998769  40.1337671  10.0876975   1.9623320
  43.0114174  29.0586019  42.6591921  42.6766682  29.5533276  41.9112444
  42.6365900  28.1840277  42.5549841   8.2415789  24.6764588  38.2092118
   7.7678615  25.0982070  37.4923062   7.6457560  23.9958858  38.5223365
  18.8517523  72.0261574  15.7329619  18.7732375  71.2492275  15.1793873
  18.0376291  72.5078249  15.5865657  41.6041946  18.8718402  35.3184080
  41.5254164  19.4411194  36.0838795  41.1243629  18.0792904  35.5589390
  33.6170316   1.7626697  32.7806759  32.8551388   1.2425654  32.5252533
  34.0074301   2.0387971  31.9514728  17.3001647  67.8084612  16.1648822
  17.8368700  68.2828903  16.7997789  17.8626037  67.0962286  15.8605492
  62.8559589  43.5137129  50.0933838  63.3719826  42.7154922  49.9802542
  63.0272770  44.0238667  49.3017912  28.7780714   7.4824595  20.5235004
  28.0467463   7.1347106  21.0338593  28.9048696   6.8444705  19.8212719
   8.5348505  18.2386684   5.7277113   8.9773297  18.6059844   4.9625170
   9.2278481  18.1396961   6.3805443  37.2432303  36.3507199  30.0385141
  36.5230489  35.7257891  30.1223779  36.8542409  37.1068764  29.5990276
  50.3712797  12.1465182  48.9141846  49.6368265  11.7283475  49.3635654
  49.9641943  12.6597011  48.2162189  64.5889473  33.0178523  18.8088858
  65.4258966  33.3228326  19.1592276  64.3635082  32.2619319  19.3510973
  12.9882598  73.0019426  35.1257372  12.0756876  72.7255058  35.2095485
  13.1215787  73.1055164  34.1835427  53.5123587   4.6193597  10.5187154
  52.8737307   4.4235322   9.8331207  53.6662531   3.7787324  10.9498692
   5.2716178  32.6319146   2.6982066   4.7397119  32.0759630   3.2676157
   5.0468451  33.5253620   2.9579389  32.3854876  39.6036458   1.6631734
  32.8825164  40.0205851   0.9593578  31.5784931  39.3063688   1.2429138
  73.2478428  60.7759285  35.7414484  72.6243734  61.2286568  35.1735091
  73.9933014  61.3732100  35.8028889  11.2721229  10.3430164  37.8534198
  11.5675294  11.0477984  38.4298301  11.9044662  10.3403795  37.1348333
  34.5578265  42.7687073  57.6482201  33.8881016  42.2251129  57.2332430
  35.1180983  43.0518246  56.9256067  42.2279930   7.2309482  34.4501424
  41.8280411   6.6397923  33.8123274  43.1587029   7.2303629  34.2265153
  25.9854984  53.8619804  19.2957830  25.3306770  54.1775274  18.6729860
  25.9074807  54.4524670  20.0450993  37.3500299  51.8860245  32.8425336
  37.3101473  52.3095608  31.9850636  37.3992395  50.9505987  32.6455712
  58.6156273   7.8509903  11.2821054  58.9303970   7.3210543  10.5497658
  58.9293385   7.3926312  12.0616722  48.0869198  20.2269840  30.4055572
  47.8048944  20.8529615  31.0725236  47.4899769  20.3735948  29.6718025
  63.5616016  12.4473131  14.9517000  63.4356022  13.3520532  14.6656895
  63.7691975  12.5173843  15.8834863  29.2293835  11.7341542   2.5024784
  28.7248993  10.9351683   2.6552886  29.8859334  11.7397594   3.1989998
   9.8158664   9.0529186   2.1724540  10.5944145   8.8984072   2.7074510
   9.5483875   9.9456263   2.3909920  48.5665321  76.3424206  50.7858133
  49.5121098  76.4746141  50.8539391  48.1996489  77.2264433  50.7974529
  10.0419748  68.3964729  20.0346708   9.1698718  68.3069420  20.4189253
   9.9108905  68.2287359  19.1014421  55.1832342  26.4935517  58.7728691
  54.6854305  26.7485857  59.5496464  55.3181314  25.5512691  58.8735485
  33.7328124  34.3280244  19.9175477  34.3973637  35.0014400  20.0628614
  33.2359338  34.6410298  19.1616571  14.3621314  51.6676283   2.1092544
  15.1671183  52.1231079   2.3557657  14.4899452  51.4363098   1.1892617
  17.1087253  24.5226026  19.7391200  17.6972878  25.2745700  19.6730232
  17.6895249  23.7760305  19.8858678  27.6250982  58.7138605  20.2094817
  28.2292652  58.2862806  20.8164310  27.2367477  59.4248962  20.7192302
  43.2696390  15.0839937   1.8977749  43.4663725  15.0577426   0.9613783
  42.5758410  14.4350493   2.0150368  35.8672428   6.4993995  22.8593516
  34.9570179   6.3843209  23.1322575  36.3807011   6.2602264  23.6309648
  67.2300196  16.1334634   5.9369630  66.4575720  16.6857171   5.8162469
  67.8936672  16.7243707   6.2928176  55.0516224  18.6008549   8.4371549
  54.7240067  19.0584719   9.2114198  55.9800673  18.8304257   8.3982241
  65.8219147  21.0197783  33.1123519  65.7036114  20.0700927  33.0939960
  64.9792242  21.3717055  32.8255653  28.2950640   4.3950814  34.5840573
  27.3999190   4.1447869  34.8127556  28.7843609   3.5724846  34.5964718
  24.1279817  53.1475210  35.4678583  24.8658419  52.6952744  35.0588799
  23.4799671  53.2299137  34.7681999  11.4774668  46.5427065  10.3914237
  11.6314936  47.4851608  10.4569566  11.8667674  46.2941217   9.5530438
  17.0687282  14.3062401  15.6320739  16.8926334  13.3965492  15.3918946
  17.9379869  14.2843366  16.0322511   9.4432932  14.1339028  14.8697233
   9.9805951  13.3458602  14.7889340   9.8546290  14.6329367  15.5754149
  32.0690012  36.8744445  58.8687229  32.7083087  37.5845337  58.8113451
  32.2428465  36.4634943  59.7155619  12.6190877  19.7543252   6.1166304
  11.7118096  19.9851632   6.3161093  13.1372809  20.2498078   6.7508245
  16.3807654  74.4716311  43.9580441  17.1120679  74.5565319  43.3463097
  15.6250727  74.2796946  43.4027767  79.3300438  66.4158630  13.5188603
  78.4038734  66.3704586  13.7562990  79.6776915  67.1346474  14.0468001
  12.6115727  45.5659437   7.5844097  12.3232913  46.2319279   6.9602394
  12.1141434  44.7834873   7.3465854  71.2152052  34.1520548  25.5388451
  71.4634562  33.6537409  26.3174915  70.6364822  33.5645270  25.0529194
  80.1468849  47.3932076  57.9612017  80.7584763  46.7542648  58.3271742
  79.3404341  47.2663498  58.4609842  36.9914269  18.1482673  31.6489601
  36.1351657  18.5758615  31.6344094  37.3459077  18.2920957  30.7715273
  43.7689829   8.5085207   0.0148489  43.0771351   8.7965035   0.6103683
  44.5791960   8.6412698   0.5069492  55.4601145  58.3534431  54.4928455
  56.3276005  58.1174612  54.8214960  55.1884937  57.5988150  53.9703608
  14.1155767   5.8697844  38.5587072  13.5499823   6.6400737  38.5040331
  14.7641516   6.0957050  39.2254472  57.4147511   3.6632088  12.8883243
  58.3407116   3.9057222  12.8922737  57.4047804   2.7512038  13.1788051
  33.9413929  41.7922354  16.8597829  33.5091329  42.3243904  17.5277650
  33.4056640  41.0012531  16.8000352  41.7086087  55.2404595  67.8220411
  42.0635472  56.1201441  67.6939607  41.8828545  54.7892714  66.9960269
  16.9022095  57.5645065  57.1112776  16.4881778  56.8133020  57.5361252
  16.3035071  57.7985668  56.4020491  10.1638770  67.4549341   8.9456075
  10.3888762  67.9966259   8.1891829   9.3391097  67.0344877   8.7022722
  36.0945773  30.5970335  12.5107646  36.3516331  30.0666332  11.7565572
  36.6033101  30.2403975  13.2389379  72.7523279  70.5517149  52.1374846
  73.5371780  70.7249546  51.6176414  72.6682711  71.3167810  52.7065516
  77.6115942  48.7119150  12.5944936  76.6864395  48.9063358  12.4444437
  77.7577925  47.8803492  12.1435463  73.0876112  17.4600530  34.6043658
  72.6789188  18.2181299  34.1866112  73.5464764  17.0130634  33.8931155
  43.6321831  70.7701969   9.7723222  43.4598732  71.5187502  10.3434706
  44.4744873  70.4287195  10.0725806  79.6356535  59.6763992  44.8448658
  79.1959906  58.9106750  44.4752836  79.2319202  59.7924900  45.7049561
  28.4968376  18.9894736  28.0617023  28.4585667  18.8353062  29.0056300
  29.0225172  19.7841251  27.9699230  36.4694619  17.5541651   7.5766236
  36.5805936  18.4648228   7.8497243  35.6244421  17.2952831   7.9442555
  53.6331558  51.5942812   2.9173106  52.8974295  51.3128901   3.4611520
  53.4403372  51.2374687   2.0502830   5.5167973  69.2846346  59.5916748
   5.0405097  69.2666626  60.4217720   5.9202874  68.4189558  59.5282555
  27.6895785  41.5078640  25.6574464  26.8300033  41.9121981  25.7752419
  28.2467008  42.2180510  25.3388858  48.6930704  28.6394858  22.7058578
  47.9286814  28.2584548  23.1380105  49.3394327  27.9335451  22.6961923
  51.4522266  27.8813434  45.4011536  51.9514036  27.1557117  45.0263023
  50.9800386  28.2564640  44.6578121   1.1887679  69.3468285  66.1374521
   0.6396441  70.1236916  66.0317230   1.4493054  69.1145754  65.2461576
  34.7798681   5.7473397  27.3113799  35.1569486   6.3247162  27.9752159
  33.9579511   5.4438627  27.6968479   6.0548931  70.6925392  64.2112064
   5.4561412  70.4528332  63.5039091   6.3581431  69.8553085  64.5623732
  39.5550323   9.9178135  56.7463160  40.1150084   9.7097874  57.4942350
  38.9139986   9.2073739  56.7221355  17.8744316  58.0356312  26.5653110
  18.2630491  58.9021683  26.4456367  17.9918647  57.8469801  27.4963617
  39.6434951  30.2268505  11.1264753  39.8286867  29.4463015  11.6486633
  39.8021555  30.9578037  11.7237735  13.3686054  65.2569628   2.6598257
  13.1000364  66.1466646   2.8890318  12.5490439  64.7651196   2.6084477
  15.2379906  21.4945626  22.7926183  14.9841428  22.3242259  22.3883271
  16.1948609  21.5167379  22.8043914  67.9067516  31.8403459  10.7998586
  68.4709024  32.6126957  10.7619262  67.3787498  31.8900418  10.0030041
  31.6096354  22.0571518  20.4402566  32.3920321  22.6052189  20.5011487
  31.9246745  21.2294626  20.0770569  66.9166040  18.5027397  20.9671259
  67.1565962  17.5798249  21.0499692  67.6802301  18.9789867  21.2931561
  31.6726136  76.2356377  17.1651280  31.8163800  75.4743671  17.7272904
  31.1300993  76.8229628  17.6913965  32.9528689  25.3093863  10.5288339
  32.2486877  25.3768206   9.8839986  33.6752939  25.8084154  10.1476455
  68.1757116  37.1117234   7.5124401  67.9379559  36.4315701   6.8822837
  67.3425055  37.3833871   7.8974026  76.7498302  24.9673319  26.2537384
  77.4330187  24.8826933  25.5886674  77.0540857  24.4233871  26.9802260
  51.3274527  22.5083303  15.2398050  52.1076345  22.9506898  15.5742693
  50.6088877  23.1098461  15.4349303  16.7018580  21.0998201  26.3301110
  15.9050465  20.7488203  26.7277575  16.5433872  22.0417285  26.2674379
  62.9226971   1.7701529  33.5835338  62.8070402   2.2470412  34.4053817
  62.6551437   2.3915166  32.9063678  62.5362062   3.3242881  35.6702685
  61.6210413   3.4911218  35.8958244  63.0367994   3.7991759  36.3336802
  67.5471973  23.3199835   1.0718524  67.0937586  23.7978482   0.3773963
  68.3715963  23.7921739   1.1886161   8.1452811  65.0766468  54.5126390
   8.3746630  66.0036421  54.4471025   8.9831340  64.6177387  54.4523048
  35.5852151  19.7760475  14.6389413  35.4886293  18.8389730  14.8086309
  36.3486838  20.0354195  15.1547647  50.1861572   8.8020325  29.8067236
  50.2827024   8.0961102  29.1675162  49.6516562   9.4583851  29.3597984
  43.7150764  18.3428085   4.9601933  43.6016750  18.0175626   4.0671158
  44.6533918  18.2572138   5.1289296  71.1680079  59.1200113  40.1802921
  71.6331577  59.7567654  39.6376944  71.5617132  58.2779026  39.9520898
  51.0603428  10.6264615  25.3857350  50.8854723  10.8491242  26.3001060
  52.0068979  10.4887509  25.3495693  65.0272560  24.2471218  15.9944832
  65.4403687  23.5715270  15.4567671  65.3977489  25.0690174  15.6728387
  28.9603519  38.3375621  24.2888260  28.4788084  39.0493083  23.8672066
  29.3673539  37.8618813  23.5647345  76.9147873   1.5602151  28.2867026
  76.0829115   2.0296817  28.3484721  76.9962740   1.3383022  27.3591542
  44.7750282   4.4048131  18.3392990  44.1514683   3.7239575  18.0866241
  45.0141239   4.1881260  19.2404711  60.2157879  30.3106904  12.1588361
  60.1440716  31.0450983  12.7685344  59.3334198  30.2084637  11.8021643
  52.2923899   6.3073438  21.6817737  53.2287836   6.1300391  21.7710114
  52.0032835   6.5201390  22.5691128  53.2850266  24.9696922  29.8778009
  53.0576372  25.6474137  30.5143690  52.4480247  24.5657158  29.6487546
  15.2650666  55.0323772  61.4216232  14.6084559  55.7061481  61.5980387
  15.2415550  54.9179554  60.4715776  25.3233266  35.9072614   6.2847364
  25.6339931  35.9767342   5.3820235  24.9524927  35.0267625   6.3433206
  13.6374068  44.2893171  58.2947016  14.5005143  44.0400934  57.9643011
  13.8040709  45.0518322  58.8488007   4.3967113  78.1895242  65.1178074
   5.2169570  77.6974572  65.0817442   3.7715945  77.5841809  65.5165815
  20.9383559  18.4918845  47.3562384  20.3001690  19.1407764  47.0597744
  20.4149389  17.7166986  47.5595951   8.6797899  49.1467667  54.6920681
   9.4046378  49.0061140  55.3012037   9.0332419  48.8986588  53.8378143
  74.0316677  61.0241413  55.7810497  74.9157190  60.6653833  55.7037354
  74.0022993  61.7299986  55.1351881  61.8017149  77.5911188  12.6095510
  61.9069576  76.9541454  11.9028509  61.3222075  78.3162594  12.2089565
  36.8899012  67.6828051  35.3883505  37.7492428  67.2648907  35.4441261
  36.7095542  67.7352858  34.4497609  54.9532795   4.6231616  37.4195194
  54.0167236   4.6609342  37.6135898  55.1683569   3.6912104  37.4574995
  62.9126740  16.7302418  28.6549425  62.1151972  16.6625798  29.1799951
  63.5983324  16.9449878  29.2873883   8.6684144  72.7385473  66.4095163
   9.2948502  72.2646523  66.9565392   8.0233592  73.0827522  67.0273018
  50.2320242  18.0434787   9.1076565  51.1233425  17.7398586   9.2797118
  49.6919060  17.5726271   9.7423214  35.1767612   4.2853415   3.7216187
  34.8916984   3.8439435   2.9215318  34.8729110   5.1872015   3.6188769
  10.1739061  57.3971176  65.8283806  10.6765926  57.7844334  66.5449858
  10.2975237  56.4535761  65.9317064  74.1516447  23.1282425  31.7341447
  74.3811226  22.2095346  31.8739605  74.4840145  23.5789514  32.5104332
  47.5527954  34.8155999  15.1076579  46.9202709  35.5195022  15.2514219
  47.3140240  34.4492412  14.2561889  48.6832762  68.3963871  65.1786423
  48.7601089  68.1623125  66.1035967  48.1170750  67.7201557  64.8066807
  68.4331703  32.9014206  41.2720585  68.3674335  33.0171180  40.3241539
  67.5955725  33.2177210  41.6106081  20.6701016   6.5757513  58.8992357
  20.1501656   6.9230515  58.1744719  21.4930987   6.3022900  58.4941149
  51.1745739  21.8092299  54.7198439  50.3956413  21.2574387  54.7907257
  51.9016933  21.1900330  54.6556377  71.0994720  62.0238113  60.5415154
  71.5663958  62.1434784  61.3684940  71.7482567  62.2289467  59.8682928
  56.8494749   5.4431999   4.2688605  56.1033583   5.9084880   3.8906413
  57.1209717   5.9869504   5.0083566  38.0159736  11.2550282  60.3273964
  38.5850644  11.4272082  59.5772457  38.5929418  10.8573031  60.9794378
   6.6576880  13.2367146  21.8891954   7.1613526  12.9020202  21.1472154
   6.4557952  14.1420174  21.6527653  79.1732645  64.2051554  64.4697809
  79.7058582  64.9885130  64.3321896  79.4482946  63.8757896  65.3254128
  70.0599861  69.1612387  62.2535706  69.1073990  69.1491795  62.1605158
  70.2115011  69.5474958  63.1161737  60.8820915  62.2568750  17.1006846
  61.3207960  62.4445915  17.9304624  61.4178038  61.5749598  16.6954255
  54.0408754  36.1487722   6.4515442  54.4462681  36.7777324   7.0484543
  54.7209120  35.9595108   5.8050442  73.7382126  72.7480602  63.1132412
  73.4617281  72.6117039  64.0194368  74.4013977  73.4362602  63.1661415
  43.4743690   8.9420176  45.1250410  43.9498234   8.1661820  45.4221153
  44.0354061   9.6765876  45.3737831  48.9425135  43.3566284  17.2409427
  49.1008854  42.5172997  17.6730049  49.7991180  43.7835026  17.2255826
  15.4230750  11.4765966  62.6079321  16.1255360  10.9457517  62.9834127
  14.6513748  10.9113026  62.6418734  63.1650972   6.2155277   3.7407860
  63.7385607   6.0737574   4.4939634  62.6406145   6.9798064   3.9795893
  69.4475985  22.4869585  35.5811453  69.3369150  21.6697478  35.0951982
  69.3887949  22.2285271  36.5009212  30.9699082  76.0022640  39.1405654
  31.2303543  76.0934591  40.0571251  30.1883745  75.4502535  39.1674328
  49.1664219  31.7692137   9.1373342  48.6801577  31.6826892   8.3173978
  49.1598034  32.7084565   9.3217528  45.8925200  38.4902096  22.4607348
  46.5975714  39.1218996  22.6024985  45.3810978  38.8596463  21.7408752
  37.8989887  30.0424695  43.2299662  37.7521014  30.9384108  42.9267359
  37.5834846  29.4922256  42.5130844  71.8394279  32.0906687   2.9368949
  71.4600039  31.4131522   2.3772159  72.3761845  32.6175427   2.3448370
  73.6360836  18.9833140  28.5515809  74.2632341  18.6985099  27.8868985
  72.7997875  18.6166394  28.2645369  35.6862736  22.0440364  16.8050885
  35.6932211  22.7065659  17.4959147  34.7966814  22.0744085  16.4530444
   9.4924629   9.4297063  65.9819365   8.7461841   8.8564217  66.1569881
   9.7446489   9.7641414  66.8426228  68.5602188  16.1080074  21.0954332
  68.5480547  16.0097873  22.0475030  68.3704996  15.2311444  20.7617450
  18.3567262   7.4734920  27.5233483  18.3492064   6.7049301  26.9528341
  18.3638406   8.2181442  26.9219542  25.6868172  13.0192351  32.6737785
  26.6270542  13.1864035  32.7388787  25.2880669  13.8894200  32.6767349
  49.3677378   9.3870640  20.1835608  50.2010202   9.0294129  19.8770368
  49.3037891   9.0987468  21.0940623  60.9414673   8.7684250   2.3144376
  60.1460075   8.3022594   2.5716665  61.3522577   9.0162957   3.1427139
  43.6369371  40.7951307  13.3209860  43.5541821  41.7084408  13.5952985
  44.5353556  40.5568314  13.5496545  78.6623287   5.1342916  62.9611540
  78.5226488   4.8106211  63.8510752  77.8674316   4.8868468  62.4887705
  41.6609383  23.6661458  21.0462618  41.9429541  22.8670526  20.6011248
  41.3094425  23.3627248  21.8832922   9.9840897  13.4557641   1.4369977
   9.9327314  12.8445423   0.7021490   9.7945607  12.9204071   2.2075190
  60.7203341  66.4801407  48.7146664  59.8940277  66.7689800  49.1019964
  61.1923838  67.2909927  48.5251379  50.2002764  33.5904646  20.1276398
  50.5591345  34.3105674  19.6090770  50.1028872  32.8712296  19.5035851
  76.2144041  55.2894735  66.1626387  75.6179857  54.7500038  66.6817665
  75.8306837  56.1659384  66.1909676  55.5961514  46.6240120  58.8654613
  55.9641504  45.7645512  59.0707445  54.7938871  46.4313459  58.3801985
  68.6150932  32.7395773  26.7304850  68.6956739  31.7956567  26.8674397
  68.6966991  32.8520131  25.7834196  64.9530315  38.9184761  43.0633497
  64.9229956  39.8299408  42.7725506  64.5902491  38.4211326  42.3303604
  39.0538549   2.5806361  39.9584866  39.7575450   1.9374987  40.0446558
  38.3531737   2.2454016  40.5178547  82.1192401  26.7307138  43.8361788
  83.0500720  26.8762827  43.6670828  82.0759191  25.8416200  44.1881227
  34.8033285  22.8183246   3.5626411  35.3503060  22.2738481   2.9964319
  34.0265703  22.2846961   3.7303197  33.2302499  16.4664710  30.0094843
  32.4679637  16.3444424  30.5754018  33.7021422  15.6352568  30.0607705
  44.0572405   8.5696071   3.2986635  44.1462708   9.4877487   3.0430812
  43.1577778   8.4959257   3.6176771  19.5296752   1.1590676  41.4332438
  18.7031186   1.3832396  41.0057116  19.3530047   1.2672287  42.3677588
  53.4622240  23.5768056  16.1497653  53.4673595  23.1864095  17.0237195
  54.3261480  23.9795613  16.0622728  75.3622532  41.2458992  18.1041205
  74.9405575  40.4310226  18.3768618  75.6577921  41.6477394  18.9210725
  43.8418722  73.6589813  54.0775394  43.3783197  74.3738508  53.6412859
  43.9060974  73.9374256  54.9910879  39.1054940  74.2566729   1.5879542
  38.2023072  74.1782045   1.8950871  39.1397548  73.7103987   0.8026894
  48.7192869  62.2751474  28.4906292  48.1092453  61.5893221  28.7621522
  49.5343828  61.8099117  28.3024812  37.1262050  55.3684378   8.0233270
  37.5018644  55.0620747   7.1979451  37.6999044  56.0843229   8.2964796
  50.2729559  50.5010891  56.9171619  49.8421192  50.3027344  57.7485847
  49.8427725  51.2986279  56.6087675  40.4694366  72.7727699  44.9205971
  39.9249125  73.4833574  44.5817900  40.2020264  72.6812601  45.8351183
  53.2405663  74.5538044  26.7834353  53.1695366  73.8121748  26.1824584
  54.1825199  74.6892309  26.8864560  54.5746374  14.5573843  34.2280030
  54.0875769  14.7269201  35.0343943  55.4143333  14.9980414  34.3582320
  20.2308178  20.4716086  37.3208714  19.5712388  19.7895479  37.4472904
  20.7920146  20.1355171  36.6220641  18.7417650  31.1437964  31.9192362
  18.0903506  31.4771152  31.3021541  18.4659302  31.4889359  32.7683687
  68.6035633  78.1154394  41.6146421  68.4111643  78.0234957  40.6814957
  69.4892836  77.7658272  41.7121553  82.0587126   1.5920614  62.2284842
  82.6645818   0.8709596  62.3992825  81.9643656   1.6051172  61.2760305
  54.2429686  17.0127988  11.3133109  53.8686085  17.8372145  11.6238368
  53.5460186  16.6146696  10.7917869  45.0318480  36.4870906  15.2583992
  44.5836878  36.3592434  14.4223130  44.5932722  35.8851933  15.8597302
  75.3223038  67.1703768  57.9215670  74.9224567  68.0210590  58.1023932
  76.1859894  67.3821211  57.5673819  78.4057283  24.4521308  24.3461990
  78.5790396  23.5108614  24.3317723  79.1660261  24.8422933  23.9149737
  20.2475452  14.7085977  27.2190928  20.4910231  14.9353242  26.3215709
  19.5918429  14.0180182  27.1222019  50.1015234  58.5344744  13.7181532
  50.9701300  58.2790852  14.0288413  50.1997089  58.6115837  12.7691293
  28.6564660   3.5104829  47.6780653  28.3068180   2.8040886  48.2211924
  29.6061325   3.3991733  47.7225494  70.5974293  28.4064126  29.6896601
  69.7954464  28.6530113  29.2289567  70.3298950  28.3151698  30.6041718
  74.2543459  32.3800087  46.9430923  73.6014271  32.1108127  46.2969780
  73.8229418  32.2507429  47.7877283  29.9995852  39.1348863   7.4083799
  30.4749036  38.6544800   6.7305058  29.2161894  38.6091113   7.5698894
  61.0874033  43.7970591   5.2841586  60.7907057  44.4785023   5.8873492
  60.4235935  43.1108522   5.3527868  70.3383827  31.1914992  34.3687558
  70.5119753  31.7294121  35.1412487  71.0051918  31.4586282  33.7361169
  12.0083821   5.5567652  42.6396656  12.5831223   4.8656330  42.3106670
  11.8780708   5.3405869  43.5629845   7.7270746  68.3025455  12.6882327
   7.6844841  67.7636147  13.4781504   6.9458264  68.8538790  12.7320290
  66.4326191  21.7816472   6.3024694  65.5944872  22.0273042   6.6941559
  67.0870352  22.2383904   6.8310118  46.7850924  29.0140295  18.2237434
  46.2824345  29.8142433  18.3761406  47.5920773  29.1393495  18.7230468
  43.4774494  43.5857296  14.7067893  43.0369759  44.3142080  14.2691422
  44.4099283  43.7859726  14.6254468  14.1078496  25.5610871  16.1306834
  14.0838587  25.1498604  16.9947135  14.9741340  25.9653068  16.0817826
  53.1636190  50.1855993   7.2459507  52.3284864  49.7205973   7.1953982
  53.6659145  49.8576117   6.5000594  54.3959093  31.1908507   8.5366648
  53.4646845  30.9731030   8.5771292  54.4145012  32.1332955   8.3702826
  33.9108253  77.7076530  31.6951680  34.3103051  76.8467903  31.5704155
  34.3224525  78.0499935  32.4886394  27.9516172  24.9832225  42.8523827
  28.9030170  24.9533796  42.7514935  27.7128625  25.8775783  42.6087523
  37.9513454  15.7501876  18.5078752  38.0888462  16.0473108  19.4073439
  37.1718240  16.2228405  18.2160223  39.3863654  19.0561545  12.7267778
  39.3940067  18.8477218  11.7925787  38.8636112  19.8555410  12.7895570
  39.8699093   1.7057694  24.7629261  39.2299819   1.0022642  24.6542740
  40.1135969   1.6671510  25.6877828  26.9085860  19.6424842  63.4054995
  26.8381500  19.0198350  64.1290855  27.8498411  19.7283924  63.2542086
   0.4026213  -0.1220515  58.5469294   1.1126357   0.0605505  57.9314899
   0.2962015   0.6924580  59.0383387  48.5443687   9.0207350  64.9157524
  47.8525209   8.5066348  65.3320169  48.1997776   9.2268568  64.0468454
  50.8186913  27.7242017  55.9844732  51.7480755  27.8526807  56.1741209
  50.7138586  28.0286813  55.0830650  43.8844204  15.8180916  34.6966004
  44.6881533  15.4912686  35.1008630  43.2804155  15.9402037  35.4290628
  11.1074448  41.8192959  30.2060914  10.8141935  40.9770393  30.5537081
  11.0934687  42.4078560  30.9608316  35.0532198  31.1571956  26.2528062
  35.2336836  31.0353756  25.3206992  34.2043447  31.5988636  26.2766957
  23.0267453  71.6122818  39.7229552  23.2654500  70.7637644  40.0961351
  22.8385854  71.4250708  38.8032913  24.4167852  56.5326118  33.7206650
  24.0965199  56.3421488  32.8389692  24.2712951  57.4722862  33.8305521
  53.3422041  10.4858804  15.5952823  53.1698322   9.5914686  15.8894706
  52.4982452  10.7972538  15.2681506  23.5885191  72.1504736  25.2538085
  23.6320853  71.6312170  24.4508719  24.4232178  72.6181316  25.2821946
  43.4032631   3.0139023  26.8401694  42.7851057   3.3710179  27.4778056
  43.8735247   3.7786770  26.5081954  82.8248405  13.2821381  55.8025169
  82.1254158  13.6587954  56.3365221  82.5351048  12.3873019  55.6248760
  32.2155023  38.7853074  27.4637413  32.5649595  38.6110568  26.5898132
  31.2730193  38.8848066  27.3293638  64.3449068  52.2604513  51.9442177
  64.5249510  51.5855503  51.2897539  63.9107323  51.7925930  52.6575422
  60.8158827   5.7426673  50.1308060  60.7638836   6.2451172  49.3177414
  60.5276489   6.3537484  50.8088446  44.3171883   5.5652845  29.7248459
  45.0672531   5.0355881  29.4545507  43.5707045   4.9685499  29.6709776
  19.0063047  29.7918081  40.8367825  18.0495596  29.8103046  40.8138037
  19.2204332  28.9369082  41.2103176  74.5921946  28.8555479  49.3694878
  74.7473001  28.0787277  49.9068213  74.4901466  29.5673275  50.0012970
  36.5634537  71.3731003  21.4471054  36.3080239  70.5331469  21.0657096
  35.8155155  71.9476700  21.2837362  50.2359819  24.6889091  18.5270321
  50.6418848  25.5334020  18.3313131  49.7357941  24.4752979  17.7393687
  19.5010579  56.5558386  66.9273424  20.2098846  56.7424536  67.5429440
  19.3073761  55.6277657  67.0592785  40.8501387  13.4457326  34.5399714
  40.2862072  13.0992198  35.2314496  41.7399406  13.3039844  34.8630643
  48.4294128  40.7104206  17.9503870  47.5214148  41.0117769  17.9813027
  48.5578156  40.2513790  18.7804615  71.6102982  61.4843607  21.3912773
  70.7472706  61.6491699  21.7710853  72.0991230  61.0467768  22.0882750
  44.9000549  14.3102014  36.9748950  45.4391050  14.7613382  37.6246095
  44.2658138  13.8142681  37.4925995  66.5818167  71.9675350  65.1482964
  65.7977104  71.8677044  65.6881523  66.6964483  72.9142094  65.0651884
  68.1223726   0.4045155  41.4416552  68.0567932   0.8201304  40.5818939
  67.2575808   0.0216330  41.5891886  14.5412219  70.8730268  22.1893668
  14.0354300  70.6176853  22.9608631  14.2183721  70.3026342  21.4917612
  70.6924725  44.5764637  49.7064924  70.2600956  44.3693256  48.8780117
  69.9945211  44.9270821  50.2598095  68.4156656  65.2443314  61.9976568
  68.0121899  64.5295572  61.5051746  69.2791510  65.3523636  61.5989685
  62.6580048  14.2383134  17.0050490  62.3743582  15.0715709  17.3811615
  61.8671370  13.6992168  16.9934046  26.7617846  18.3217895  17.5637949
  27.5646663  18.5363078  17.0888281  27.0563412  17.7940106  18.3060324
  25.6773543  34.9214745  56.3687325  24.9980664  35.4800582  56.7465973
  25.2670026  34.0595555  56.2984610  31.2145901   3.6589211  17.2386515
  31.5772867   4.4561642  16.8525362  30.4872775   3.4232932  16.6626942
  52.5123882  34.8410130  14.2708492  53.1506872  34.1354132  14.3754423
  51.9796848  34.8017812  15.0651538  56.4959145  54.3109035   1.3274221
  56.1060619  53.9397621   0.5359039  56.4764786  53.5948849   1.9623825
  44.2549944  29.6155453  21.2534904  43.3739614  29.9158835  21.0303164
  44.8374796  30.2043366  20.7736301  63.0463362  34.3892717  41.4553165
  62.8316784  33.5415626  41.8446016  62.2413015  34.6612000  41.0146332
  31.8432760  75.2388382  43.7821388  31.5388417  75.0663567  44.6730947
  31.1370564  75.7458973  43.3816719  56.7604160  68.6130953  52.8742170
  57.3449993  68.7495232  53.6197901  55.9782219  68.2122755  53.2533646
  53.6064100   9.6776134  12.4666643  53.8713884   9.9527818  13.3443308
  53.4689426   8.7334150  12.5429797  42.7745533  26.3284278  14.1786301
  43.5825729  26.0134506  14.5837510  42.1359968  25.6356955  14.3477416
  53.6537266  62.2185707  65.6097364  53.5229874  63.1264257  65.3359890
  54.5688438  62.0340490  65.3982258  69.7768116  31.9740200  62.5315571
  70.2685356  31.1639833  62.3963690  69.3427277  31.8526101  63.3759928
  28.6154270  28.8177466  27.1405172  29.0794873  29.6399331  27.2982883
  27.8519821  29.0695167  26.6209078   0.0960615  59.3375874  65.0408506
   0.2378543  60.2781963  64.9341774   0.9034117  59.0178204  65.4435492
  43.2925320  14.2306185   6.9975322  43.5031509  15.0937998   7.3536092
  43.2555103  13.6580050   7.7636760  54.8131847   5.2916431  22.2449684
  55.3821278   6.0548466  22.1446824  54.9138212   5.0367409  23.1620979
  38.1518769  64.6438694  37.1708608  38.3375025  63.7624979  36.8468857
  38.4695649  65.2249384  36.4797306  81.0083580  73.1817484  40.7232714
  80.9580040  73.5018301  39.8225784  81.6820240  73.7244415  41.1330080
  11.1721885  72.6424503  23.9986658  11.6481996  73.4616613  24.1348338
  10.3449571  72.9098463  23.5981393  59.4647312  29.0853095  27.4766517
  59.5563889  28.3920527  28.1302762  58.8800764  29.7237611  27.8850508
  27.2255254  15.7989347  31.4839005  26.8840075  15.4254937  30.6714106
  26.8889427  16.6949284  31.4957261  81.7271328  31.9581914  23.0552983
  81.0687542  31.3757467  23.4341526  82.5147629  31.4183164  22.9889202
  37.6846600  70.9345961  52.5571680  38.4080482  71.5348864  52.7377081
  37.7534175  70.2651119  53.2378292  55.3192711  25.4693699   1.9716276
  54.6904182  25.3794289   2.6876503  55.5281258  24.5692587   1.7218062
  65.5720949  75.5095530  62.5939608  66.0664701  75.6490135  61.7862654
  65.7923317  74.6163511  62.8583860   4.7224322   5.4574031  51.1419392
   4.0394148   5.2870399  50.4933262   4.7674516   6.4119411  51.1972761
   9.5837587  58.9805508  59.1968489   9.3478531  59.8465347  58.8642073
   8.8261819  58.4316444  58.9943266  75.4070950   1.1698305  50.5629301
  74.6958113   1.5033601  50.0160646  76.1992979   1.5508530  50.1841593
  64.7146940  20.3909779  37.0917416  65.2379465  20.4235816  37.8925991
  64.4601822  21.3002658  36.9347405  37.0683146  17.2336721  42.1189499
  37.8104520  17.8160477  42.2811270  36.5834641  17.6554227  41.4095306
   3.7813678  63.0159616   6.3995153   2.9804736  63.5370970   6.3427883
   3.6385998  62.2904587   5.7916528  21.3895798   3.0954376  40.7292604
  20.6991911   2.5888529  41.1570024  22.2039247   2.6925039  41.0304546
  56.2066603  11.6875982  10.1347446  56.3886023  12.5995147  10.3617644
  55.9633160  11.7151058   9.2094010  19.7235620  49.6891594  64.7396612
  19.7945762  48.7373066  64.6677923  20.3125024  50.0249767  64.0639353
  43.1014967  23.4038973  46.1280155  42.6851702  24.2656589  46.1444950
  43.6725378  23.4284163  45.3601980  63.9693165  70.4844666  45.1830721
  63.1929922  70.8857679  45.5735970  63.9226627  70.7237005  44.2574263
  69.5936918  76.3958836  55.2620935  69.2438507  75.5160666  55.4026699
  69.9168777  76.3840055  54.3611860  71.3067198  37.5428510  13.6268270
  71.9627380  36.8855858  13.8589382  71.8118382  38.2615614  13.2466424
  20.4105997  12.2052491  43.2829571  20.5603147  12.8829551  42.6237679
  20.8348036  12.5412321  44.0725136  10.0602293  31.3227701   3.5316509
   9.7949594  32.2407150   3.4747106   9.3762028  30.8461714   3.0613390
  74.3064260  10.8027625   4.6845034  75.2064562  10.5830777   4.9251610
  74.2620993  10.6337750   3.7433815  64.3097782   5.2348423   7.3200423
  63.3802366   5.2225751   7.5481516  64.6394157   4.3851334   7.6125598
  66.7984772  42.3464584  17.5522673  66.9486141  41.4149284  17.3911977
  65.8854532  42.4886131  17.3024464  24.7711492  70.2953148  49.0788317
  23.9955044  70.0200129  48.5901499  25.4982281  69.8477411  48.6460876
  75.4585123  36.9605899  21.6443276  75.0344992  36.5271473  20.9036732
  75.1081657  36.5146136  22.4154282  60.4216242  54.6300650   1.5368231
  59.6634817  55.0109482   1.0936718  60.2343464  53.6918879   1.5682071
  21.1818409  29.7789025   0.3134541  22.0600867  29.9872136   0.6320779
  20.7336640  30.6239033   0.2768073  36.6954875   5.8644003  66.8813324
  36.0532665   5.1558936  66.9237995  36.6507792   6.2801236  67.7423811
  47.2617006  52.9286146   0.4180432  46.9731617  53.8351679   0.3125400
  46.4503717  52.4225903   0.4618738  51.2391233  55.2558184   4.6439293
  50.8109426  54.6256399   4.0644741  50.7414436  55.2072716   5.4601330
   9.9689478  65.8140564  15.4905522   9.8933268  65.3351498  14.6652281
  10.8226013  65.5571938  15.8391654  54.8529243  37.8801966  21.2288022
  55.2554893  37.3730016  21.9337320  55.1529837  37.4543095  20.4257989
   0.9225672  29.3415427  20.0754261   1.7846523  29.7110558  19.8843753
   0.8155099  29.4589114  21.0193515  29.7656274  19.6324086  53.5226011
  30.2420473  20.0630903  52.8128338  29.5890164  20.3320050  54.1515732
  46.7049503  35.9042740   3.5597676  47.3730564  35.3169680   3.9132312
  46.9847536  36.0712624   2.6597375  31.0359836  43.4529448   0.3083394
  31.1639118  42.7105856  -0.2822256  30.0873160  43.5060692   0.4242638
  23.5343575  24.2780781  53.0797338  23.9658308  24.6356750  53.8557434
  22.7470469  24.8124671  52.9757977  32.0170236  74.3027544  18.9692473
  32.9463816  74.2149115  18.7575650  31.9824433  74.2457438  19.9241221
  36.4759922  50.6909704  66.5964508  35.6518316  51.1672115  66.6973734
  36.2142420  49.7738647  66.5149975  34.6232963  27.8401232  61.7691231
  33.9916992  28.4351468  61.3650560  35.4472923  28.0228567  61.3176060
  64.7291946  42.5707483  14.1980946  65.5629873  43.0372429  14.1397357
  64.0679359  43.2384062  14.0158701  32.8107357   6.6847581  61.6061831
  32.4658585   7.4894440  61.9931841  32.0406270   6.1304539  61.4800501
  46.2486124  30.6635928   4.1704786  45.4145002  30.6650829   4.6400410
  46.9116449  30.6316733   4.8601174  63.1873465  20.1065874  12.5343847
  63.2945728  19.3078923  12.0178366  63.3933258  20.8154106  11.9249809
  22.7816749  74.5293474  23.1533051  23.3660197  74.6992683  22.4144554
  22.7926087  73.5774517  23.2533312  45.8868647  42.7333117   5.7343906
  45.3258228  42.8453636   6.5017915  46.3239431  41.8938828   5.8777559
  80.3575325  64.0289450   1.7280203  80.4613304  64.9673843   1.5705931
  80.4610634  63.6283922   0.8648439  80.3543568   3.8977581  29.2875314
  81.1179161   3.5818467  28.8044071  80.5722046   4.8015654  29.5153666
  59.6480513  19.3095803  21.8901467  58.8481045  18.8018918  21.7538786
  59.4611931  19.8494387  22.6581764  46.4139843  35.2224135  18.5599244
  46.8424416  35.8871770  18.0207181  46.3665152  35.6151366  19.4315588
  44.4729757  18.9735425   8.9590007  44.2076349  18.7346518   9.8471200
  45.4283953  18.9163721   8.9709294  49.5939541  47.9557133  10.6693792
  50.1656199  48.6070538  11.0758114  49.0690708  48.4548664  10.0436234
  58.2218266  59.8507881  46.3602877  58.3572388  58.9035892  46.3869095
  58.8362360  60.1988316  47.0065069  76.6970348  15.6892073  29.9882722
  76.0436487  16.2767434  30.3679037  77.4292755  15.7153249  30.6042051
  34.9407101  18.7332213  23.2977724  35.0726533  19.5291972  23.8127899
  35.6335449  18.1410742  23.5903025  44.7529650  52.7384806  49.1732645
  44.0181303  52.8074694  49.7827625  44.9975252  53.6454439  48.9893055
   4.4853246  11.8373525  15.5513704   4.0534678  12.5626969  15.1001406
   4.2409283  11.9474137  16.4702761  57.0085096  41.9879341  18.6917806
  56.8167639  41.3286829  19.3587554  57.9643345  42.0118284  18.6464548
  15.2741587  41.4543962  62.3100805  15.9232724  40.8907986  62.7310801
  14.4992912  41.3853407  62.8677940   7.3064935  55.8891296  61.8317032
   7.5241303  56.7023373  62.2872925   7.4120146  55.2072763  62.4951553
  35.0629354  17.1410608  20.5537391  34.3965220  16.5388346  20.8845735
  35.1682281  17.7882981  21.2510395  65.4530764  66.9039106  18.0209017
  65.0757885  67.3558235  17.2661424  65.2306414  65.9829712  17.8844333
  42.8361225  11.6420722  51.8911123  42.3552132  12.4638057  51.7925644
  42.1624184  10.9635293  51.8471909  23.1751657  56.5846348  65.8755827
  22.4879813  55.9670925  65.6252813  23.0085874  56.7663574  66.8004942
  55.7630062  71.9311190  53.2489109  55.2465963  72.7319241  53.1579781
  55.1927376  71.3317537  53.7303543  56.0536957  72.4733496  20.3497434
  56.5577030  72.1723032  21.1057758  55.2318716  71.9851780  20.3999853
  30.2926588  68.9557076  64.2224884  30.4871035  69.8929262  64.2292881
  30.5635738  68.6611891  63.3529520  78.2756376  34.5981956   2.6590100
  79.0028524  34.6848226   3.2753593  78.6939526  34.3983150   1.8215783
  12.6179957  70.2016115  41.2497330  13.2122648  70.7829046  40.7752085
  12.7606499  69.3405485  40.8567238  57.3860836   7.0528722  31.4605355
  56.6552877   6.4910305  31.7184210  57.2413397   7.2218722  30.5295563
  67.5179052  69.4157410  24.7858906  67.5082159  68.9849615  23.9311576
  66.9484997  70.1773787  24.6767068  36.1062980   7.8934342  64.8340034
  36.4060760   7.3536223  65.5654192  35.1855087   8.0691636  65.0276470
  58.5430431  25.4157114  32.9476047  57.9135799  25.6926990  32.2818089
  58.4980822  26.0974050  33.6180544  66.2234116  54.0044069  25.0757670
  66.2070942  53.2954931  25.7187343  67.0208740  54.4934225  25.2786136
  58.4604788  13.9731717   1.6494353  57.9473114  13.8593197   2.4493907
  59.3061781  13.5712528   1.8481526  58.4354496  22.5189066  14.7461236
  58.9942169  22.3219228  13.9943194  57.6285362  22.0318985  14.5789480
  62.5621653   7.8486371  11.7244732  63.0047560   7.0828134  12.0903409
  61.6988230   7.8465360  12.1378350  48.2002163  58.0321169  28.0120587
  47.9031324  57.7503109  28.8772511  49.1116428  58.2926702  28.1449032
  12.4275577  26.8584442  54.2890310  12.1874273  25.9389019  54.1749716
  13.2648051  26.8316722  54.7522068  65.3090191  19.3158841   3.8160267
  65.2950287  18.4890449   3.3339766  64.8637152  19.1200781   4.6404034
  32.8570247   9.9300307  27.3609543  32.8792214   9.7530621  26.4205170
  31.9250107   9.9789679  27.5735307  18.4306729  15.6507719  44.8247290
  17.9210162  16.4162660  44.5592070  17.7740932  14.9841225  45.0265026
  54.1762829   5.4002643  17.8402936  54.5713663   4.6924940  17.3311746
  53.9260340   4.9892747  18.6677563  53.8296461  68.8331461  18.0276930
  53.4282684  69.6965170  18.1262565  54.6090698  68.8666391  18.5823154
  40.9647751  77.1571589  13.1567299  40.8319378  76.6477442  12.3573041
  40.1275873  77.5979853  13.3017194  13.7807751  57.4295759  61.8071318
  13.1274045  57.6259089  61.1357260  14.5012701  58.0324793  61.6237593
  31.0704112  28.8823795  62.2018242  30.7643557  28.6677718  63.0830193
  30.6354833  28.2450342  61.6353750  46.9860268  33.8692737  12.4055052
  46.6007042  32.9944921  12.4556935  47.7306938  33.7693167  11.8124509
  60.5623770  67.8742361  60.4785919  59.8816442  68.3790922  60.9235191
  60.1274776  67.0617342  60.2198696  49.8845005  22.2463441  19.8487842
  49.8123169  23.0941701  19.4103646  50.7432890  21.9139695  19.5875597
  78.2029152  61.6702604  18.8085473  78.1699562  62.3535252  18.1389952
  79.0771008  61.7507505  19.1900611  35.9848952  10.6679010  65.0281000
  36.2484527   9.7484827  64.9901485  36.0733175  10.9797788  64.1274643
  54.6584797  32.8437543   2.9370788  54.5526886  31.9113779   3.1260672
  54.7182655  33.2574081   3.7982106   6.6816992  76.5783930  61.5575647
   6.3368279  76.6415739  62.4482393   7.3359728  75.8811855  61.6029549
  57.7154207  51.7523193  15.3607309  57.9186964  50.8841610  15.0125694
  57.4858379  52.2716713  14.5901489  32.3120904  68.4318590  28.3715677
  31.5475607  68.1492615  27.8697062  33.0095887  68.5116386  27.7209044
  53.8167763  53.5512686  17.8138363  53.8159704  52.8284883  17.1862876
  54.7316313  53.8293886  17.8576660  29.0117073  26.3383842   3.9389372
  28.6487460  25.8561492   3.1960088  29.1332293  27.2290492   3.6100295
  33.0635676  77.9632402  63.9707470  33.3900341  77.9933740  64.8700476
  33.4577736  77.1740951  63.5991526  79.9337435  38.1971169   5.1471317
  79.3088007  37.7546167   5.7214749  79.3997431  38.5381579   4.4296625
  13.3215594   5.4242021  63.8511944  13.6690760   6.1771244  63.3731031
  12.6960111   5.8012712  64.4698524   9.0813041  11.7770278  47.7067566
   8.4126049  11.0922587  47.6939058   8.6415750  12.5339735  48.0939293
   4.4940284  72.8034353  29.2354345   4.3567312  73.7121582  28.9678383
   3.7726480  72.6193142  29.8370504   8.9091283   2.2393753  64.4750214
   9.7541642   2.0281285  64.0781307   8.9579463   1.8663110  65.3551722
   0.7531711  24.1943741   4.4703403   0.9969823  24.3132901   5.3882986
   1.5582199  23.8990140   4.0450296  63.9121103   2.7734375  60.7172585
  62.9611158   2.7959684  60.6107855  64.2552805   2.9078388  59.8338556
  81.1560059  75.1917219  57.8265142  81.3013363  75.8442545  58.5115814
  81.9150257  74.6113253  57.8836727   3.4185174   8.6333275   2.9440376
   3.3240628   7.6983631   3.1261146   3.6264732   9.0229100   3.7932795
  16.9483316  12.8270030   3.6488867  16.5975082  12.8908134   4.5371902
  16.5192688  13.5363543   3.1703907  67.2481300  77.1601704  63.8625336
  66.4295055  76.6941537  63.6924934  67.5071432  77.5084298  63.0093861
  58.4289551  19.8709846  10.5422270  58.3200407  19.0092659  10.9444845
  58.9216852  20.3765202  11.1886668  37.2499013  23.8868117  12.6188374
  36.3362169  23.7972379  12.3479378  37.6230669  24.5137620  11.9992292
  20.7228732  38.0155039  44.4989157  20.9192634  38.6229539  43.7857103
  20.6250191  37.1656179  44.0695620  62.8979063  33.0711508   6.1696064
  62.5086308  32.6390195   6.9298428  62.1639395  33.5145354   5.7442451
  63.4358358   7.2184730  16.5165496  63.1701803   8.1098115  16.2903285
  63.1013489   7.0867264  17.4036753  36.9207096  41.2763691  10.8829975
  37.6668978  41.3778496  11.4738739  36.5253139  42.1472502  10.8447492
  58.5061646  11.1914873   6.5807807  58.5662651  10.4680443   7.2046804
  57.9134226  10.8723176   5.9003222  76.3574076  77.4283695  26.2762952
  76.1455059  76.7126274  26.8754959  76.7485285  76.9969130  25.5166245
  73.8276958  77.5523663   9.8374236  73.3170843  78.2707882  10.2107608
  73.9518118  77.7978945   8.9206123   3.9279491  50.3001308  10.7736599
   4.3252528  51.1622620  10.8965945   3.4746084  50.3630018   9.9329692
  12.0534647   2.2735135  30.6624389  11.3584590   2.7738714  30.2348399
  12.2760773   2.7877343  31.4384890  59.4630957  29.4539404  31.0969543
  58.7373686  29.1615820  31.6483808  59.0775108  30.1184940  30.5260587
  53.1381798  36.6336441  23.5217714  52.8633118  36.6467309  22.6049781
  54.0873480  36.7529559  23.4889698  53.0883884   6.4802760  12.3321033
  53.7704372   6.4095491  12.9999661  53.3734560   5.8893508  11.6351271
  61.3294315  29.6276212  37.0513749  61.1130953  29.0483975  37.7820826
  60.5953455  30.2402210  37.0058870  49.9091530  76.4260626  16.6457415
  50.3183413  76.0800934  15.8525813  50.5195761  77.0937634  16.9584584
  75.6171417  21.5110350  11.0008812  75.4279852  20.9160638  11.7264569
  76.5356207  21.7518616  11.1218333  74.0768038  66.9844091  66.9789599
  74.2665325  67.9109919  66.8317144  74.0160404  66.9006455  67.9305498
  37.8612852  61.1549044  26.1500478  38.2693315  61.5689898  26.9104838
  38.5805917  61.0288477  25.5312276  43.7122726  54.3198252  24.0173960
  43.9160681  53.7192535  23.3004498  44.5621824  54.5246553  24.4071770
  41.1856222  72.4986267  42.4498796  40.7494497  72.2151804  43.2533979
  42.0093679  72.0112133  42.4397755  11.7615902  64.2641449  33.1598043
  12.5277162  64.0038347  33.6711955  12.1227527  64.5825911  32.3325276
   4.1080216  36.6241002  15.3011501   3.2369614  36.9837832  15.1334822
   3.9465827  35.8411670  15.8276355   4.3962395  43.7844515  32.2749400
   4.4721627  44.7011423  32.5397825   3.4675047  43.6693764  32.0738411
  72.3016548  50.7174587  67.3327827  71.8443060  51.5535402  67.2431660
  72.6526594  50.5416822  66.4597797   0.5559196  62.6856518  18.1353104
   0.3929351  61.7486238  18.2432091   1.5067568  62.7727127  18.2028461
  40.9846830  54.6833754  23.2724929  41.9278574  54.8177814  23.3651733
  40.8826303  54.2920017  22.4049425  17.8120959   3.7048084  33.9372540
  18.1047022   2.8369021  33.6591315  18.3193207   3.8864315  34.7284365
  21.2272406  63.2284069  66.0591030  20.9715629  64.1319370  66.2448359
  20.4093289  62.7334404  66.1066723  79.1813707   6.0335577  16.5309381
  79.4722223   6.7298228  15.9419966  79.9914789   5.6382245  16.8529141
  17.7761149  71.1930656  60.2528667  17.9570365  70.5959320  59.5269728
  18.5966122  71.6688776  60.3817892  66.4761877  57.2097015  24.9814129
  65.8983517  56.5364838  24.6220899  65.9057665  57.9657221  25.1202893
  64.2087698  70.3314686  58.1701660  63.7452650  70.0947428  57.3668242
  64.9011135  69.6752644  58.2494545   4.4481927  74.0604258  25.9326124
   4.2175952  73.2281542  26.3453770   4.2585844  74.7195673  26.6003060
  81.7993274  60.8071375  38.2796669  81.2823713  60.6351900  39.0667009
  81.5609775  61.6989994  38.0266643  27.8694177  51.2189007  25.8853340
  26.9479656  51.4291096  25.7337689  27.8535390  50.3537655  26.2946248
  75.3571939  63.3591604  10.3175175  75.5572271  62.7367115  11.0166442
  74.5955658  63.8424540  10.6377995  75.3161526   9.0491796  62.2879839
  75.7990932   9.6033174  61.6748524  75.3745747   8.1702065  61.9135189
  32.8188682   5.3490722  50.1880121  33.0327439   4.6721399  50.8300781
  32.0939136   5.8334213  50.5830812  28.4173727  40.7570267  18.8341606
  27.6593375  40.6056738  19.3987000  29.0501571  40.0893259  19.0987217
  58.1935453  45.6422329   8.6563015  58.7176180  45.7830811   9.4448078
  57.3451233  45.3427076   8.9829457   7.4453974  60.2902269  41.2834930
   7.4727243  61.2365341  41.4248610   8.1769437  60.1152706  40.6914949
  52.2396803  51.9790792  10.6658423  52.5694752  52.3425770   9.8440528
  51.9497776  52.7420235  11.1659455  71.8146181  44.9333048  13.3466649
  71.3485289  44.1385317  13.0871892  72.1958256  45.2637815  12.5332153
   1.8158981  74.7438002  32.5217462   1.4082888  74.2934084  31.7819929
   2.1031219  74.0391397  33.1024241  19.5598245   0.7919088   7.4216372
  20.1680994   1.5296341   7.4663085  20.0898528   0.0637492   7.0974672
  72.1712875  77.7552843  16.0968113  72.7528906  77.4524355  15.3994918
  71.5094376  77.0678854  16.1721027  34.0194297  45.4502726  12.7452946
  34.1482615  46.3155127  12.3567104  33.9556360  45.6171370  13.6856771
  65.0782013  44.9393654  35.4805517  65.5631495  45.7645988  35.4741526
  65.7434845  44.2718983  35.6482315  69.2017508  42.4970627   4.9008244
  69.8038149  42.7377939   4.1966927  68.6327362  43.2602549   5.0008065
  53.9488983  65.5417299  20.4345226  54.0484476  64.5910931  20.3833795
  54.0742397  65.8444071  19.5351315  49.1631317  76.0840178  37.8735781
  49.9247217  75.6494474  38.2574534  48.6541510  75.3740025  37.4823666
   3.2203673   0.6734966  26.7016006   3.8284539   1.3848232  26.9028068
   3.6510132  -0.1122118  27.0384026  70.9922743  35.0733709  55.6759787
  71.1546898  35.9021878  56.1264420  70.8941650  35.3163481  54.7553444
  74.7394466  56.6017818  33.0346847  73.9375544  56.7721653  33.5288191
  75.4331017  56.6079903  33.6942554  30.0609589  13.8588941  57.4471283
  29.2440438  13.5238731  57.8167820  30.4656291  13.0976212  57.0312691
   5.0558853  69.6306801  53.8002539   4.6829456  70.3084087  53.2364845
   4.2971939  69.2192030  54.2141390  77.4532318  37.5797129  25.9415865
  78.2556915  38.0206132  26.2206841  77.5332880  36.6924286  26.2916541
  77.0941210  15.6471610  60.6431484  77.1354342  16.5220070  60.2569246
  77.5912142  15.7212734  61.4577866  44.1546297  29.0594506  56.4696455
  44.9556828  29.3705821  56.8912506  44.2724466  28.1119990  56.4012051
  74.4644070  61.7385769   0.3201387  75.2390099  61.1951256   0.1756347
  74.8131990  62.5773859   0.6217675  71.1744595  71.0996628  58.9850521
  70.6726551  70.5616951  59.5974350  71.7776585  71.5944624  59.5396280
  10.0179172  44.1535568  32.0126677  10.2304351  44.4827032  32.8860116
   9.0638500  44.2108965  31.9607091  36.6016769  57.5398445  16.0276639
  36.8034935  57.4605989  15.0953424  36.7128468  56.6540289  16.3729227
  69.2741442  25.1849151  57.0013523  68.7683821  24.5882201  57.5530720
  70.1199770  25.2605748  57.4430180  24.3972205  -0.3119112  32.8936768
  23.7171315   0.3542493  32.9934025  25.2179621   0.1614402  33.0298829
  73.1235838  18.3541012   5.0475436  72.7437019  17.4981391   5.2456647
  72.4329996  18.8190997   4.5752069  73.7884140   4.6127218   0.4930137
  72.9548979   4.6370545   0.9630097  73.5753012   4.9187186  -0.3885650
  49.2988014  12.6983678  58.0335426  48.8768911  12.8861463  57.1951151
  49.9392796  12.0161939  57.8319073  74.6681023  72.3646402  58.2350636
  74.2262411  72.1862364  59.0652227  74.8048449  73.3120203  58.2352829
   5.6730974  63.8974237  35.1544499   5.2949065  63.1387281  35.5989575
   6.3146037  64.2433643  35.7749534  78.0150890  12.2412956  26.3211012
  77.4327564  11.4816380  26.3146758  78.8781691  11.8797719  26.5226531
  51.9374323  65.8718681  67.5268221  52.6792288  65.5280447  67.0290709
  51.2476063  65.2185059  67.4106741  13.4663022  39.8755693   6.4409608
  14.1604996  40.3709412   6.8756175  13.7180221  38.9592314   6.5558213
  50.0405121  34.4965982  13.0650818  50.8746099  34.9115252  13.2849646
  49.3857241  35.0090313  13.5393119  37.0283008  60.6166077  35.5668354
  36.4493132  60.9574747  34.8850608  36.4545846  60.4760408  36.3200426
   4.7986737  55.7332754  15.8600533   4.0633792  55.2659321  16.2564886
   5.4859293  55.0721931  15.7771122  63.8994789  73.0313921  58.9965343
  63.7904644  72.0928812  58.8430738  64.4920921  73.0842257  59.7463703
  47.9535341  67.5172520   1.4815906  47.6447392  68.4232426   1.4891475
  48.4654427  67.4319696   2.2858970   6.6496772  26.7616200  19.7974062
   6.0449439  26.0209060  19.7541499   6.0838753  27.5336337  19.7876453
  51.7479563  66.1359501   6.6761994  51.5455151  65.2637148   7.0145154
  52.6898432  66.1145687   6.5070254   8.9765525  70.3225899  15.5255187
   9.4395447  71.0730171  15.8979821   9.1559803  70.3723955  14.5866060
  66.9283724  72.3767042  33.0995178  67.8240824  72.4589825  33.4268808
  66.9409990  71.5833998  32.5640345   0.2830537  38.1601381   3.9215016
  -0.3361194  38.8797307   4.0441808   1.0408242  38.5654330   3.4998983
  54.2629242  65.5291319  45.7660913  54.3868399  64.5936775  45.6054735
  54.5027590  65.6481934  46.6850805  81.5419960  70.8506584  65.9050179
  80.7608318  70.4180479  66.2497854  81.6761303  71.6004229  66.4847565
  69.1991234  58.0396318  24.4047141  68.8619900  57.7840185  23.5460925
  68.4163332  58.1770515  24.9381781  53.3180904  27.6917672  15.3297877
  54.1975784  27.9876161  15.5647492  53.2763815  27.7958012  14.3791735
  47.2252846  68.6796570  22.4130869  47.0175171  68.1982613  21.6122603
  46.9226933  68.1099987  23.1203079  27.4357224  64.5408201  35.6913710
  26.7022228  64.2600775  35.1442051  28.0235076  64.9963617  35.0886893
   1.3984711  57.1571302  31.8750572   1.0097457  57.9958487  32.1234131
   0.6493148  56.5953064  31.6766930  78.7756824  15.4990876  27.9692459
  78.2917976  15.2121651  27.1948028  78.2540512  15.1846957  28.7076831
  37.4306560  59.8120689  12.3791659  37.9629636  60.1273108  13.1095791
  36.5272784  59.9467993  12.6654994  79.9308825  16.9986320  18.3514977
  79.8871469  16.8848503  17.4020910  80.1102734  16.1213803  18.6898458
  50.9219599  69.1416168  25.1387811  50.2448034  68.5180616  24.8763537
  50.5287504  69.6326637  25.8602309  41.2424803   3.4660435   9.6507734
  42.0895195   3.1706533   9.3168551  41.3219929   3.3948678  10.6020057
  20.1987243  46.0110092  22.6977587  20.0528908  45.1894760  22.2286558
  20.4100990  46.6442490  22.0117855  10.5441260  26.6110635  21.9191790
  11.0272741  26.4041996  21.1191726   9.7854030  26.0278535  21.8983412
  49.3014812  70.3538561  35.8577538  48.5393763  70.4147911  35.2818084
  50.0139856  70.0734663  35.2833414  52.9426765  44.2954588  11.1049867
  52.4543571  43.9248848  10.3698325  52.7406311  45.2307463  11.0795927
  78.6799097   8.6062276  25.7332993  79.0233135   9.0999454  26.4779758
  77.7430916   8.8026285  25.7272315  72.1897173  63.6372662  48.7660742
  72.8291988  64.3358564  48.9048624  71.5023375  64.0432310  48.2379341
  78.4043407   5.7198423  19.6911931  79.0905714   5.5241007  19.0532219
  77.9360676   6.4665043  19.3177664  74.3176985  58.4545994  11.4176941
  74.1221142  57.5882053  11.0608482  73.6521149  59.0267658  11.0357797
  73.8117599  34.7088003  53.9009571  74.3809795  35.2380800  54.4596004
  73.0102491  34.5978785  54.4123363  82.7597332  19.8853207  39.4676304
  82.3198509  19.0371299  39.5251513  82.0714474  20.4944372  39.2002869
   5.9370750  16.4881802  58.2741070   5.7971036  17.0709217  59.0204668
   5.4555935  16.8988872  57.5559664  56.3160753  74.9165058  11.7384434
  56.7758512  74.6076727  10.9577632  56.9426632  74.7904634  12.4509966
  11.8438529   0.0754760  35.5390263  12.1088074   0.8941673  35.9582782
  12.4978398  -0.0656487  34.8544693  11.4594400  20.2685714  33.4679580
  10.6574357  20.4068446  33.9718437  11.6176355  19.3261623  33.5233712
  57.8363228   1.7021701  22.3618746  58.7550211   1.5768509  22.1241450
  57.8581476   2.3424563  23.0730629   2.0595790  69.6218300  34.3943977
   2.6045087  69.4798422  35.1684284   1.2271383  69.9410200  34.7428083
  64.9160576  66.5023232   2.4855636  64.3312931  65.8778477   2.0562394
  64.8665667  67.2890759   1.9426025  67.3193455  57.2519255  11.5653121
  66.8156099  57.6770258  12.2594118  66.8092251  56.4735079  11.3415349
  55.1498413  10.1365340  61.0192537  55.8440113  10.7653773  61.2165308
  54.6390152  10.0824654  61.8269444  10.7974446  53.1747150  55.4140472
  11.1869192  52.5977945  54.7570086   9.8671854  52.9492617  55.4095078
  26.2219763  58.9458466  17.7420485  26.5932012  58.2294130  17.2271216
  26.7462254  58.9619970  18.5427570  69.3841076  50.4313755  18.3271039
  70.3297138  50.2836800  18.3429670  69.0201569  49.6163321  17.9814529
  82.2415161  51.2362194   8.2224476  82.0198917  51.7486620   8.9999574
  81.9496727  51.7765951   7.4882454  58.2165337  52.3390532   7.2599310
  57.4161768  52.0562744   7.7023089  57.9087305  52.8521347   6.5127790
  68.9501095  26.2286234  37.5289416  68.2073545  25.6305814  37.4458861
  69.7037697  25.7167172  37.2353768   4.3078414  70.4444170  39.3818283
   3.7599081  70.1060295  40.0899887   5.1830596  70.5056667  39.7645450
  15.4815434   0.3036712  57.0773363  14.9432944  -0.1130320  57.7502966
  15.2052592  -0.1099898  56.2595415   8.0467474  71.3348675  35.4791498
   8.0106318  70.4336071  35.1587439   7.1437210  71.6466570  35.4194546
  17.8800178  45.1383638   0.1816417  18.3983076  45.9381676   0.0926238
  17.2257912  45.3497934   0.8476122  11.2718797  36.6146874   4.4615829
  11.6349137  37.1373820   5.1765835  10.7424116  37.2328687   3.9578518
  31.2450790  67.7239513  66.5909100  32.1993494  67.7959776  66.5706110
  30.9560061  68.1423283  65.7799625  33.0443525  20.2373457  25.6941628
  32.9407763  19.3327451  25.9894609  33.9878821  20.3944778  25.7300854
  52.4562407  62.4321985  19.6688318  52.3542547  61.5308094  19.3633318
  53.3391571  62.4617386  20.0373650  82.1180820  55.1420355  46.6773987
  81.7477036  55.4395390  45.8464098  81.4127827  55.2669573  47.3123646
  65.2576208  -0.0364648  29.9578261  65.4803419  -0.5373662  30.7425094
  65.6429148   0.8269018  30.1074266  16.9399416  50.4813433  25.9886646
  16.6185808  49.9326515  25.2731967  17.8631806  50.6273746  25.7824254
  12.0242167  25.7626605   0.2567979  11.5485096  25.6998849   1.0850457
  12.2885621  24.8631907   0.0636506   4.2217863   4.4939446  13.3800602
   4.6427277   4.9320439  12.6403928   3.3194450   4.3534011  13.0932510
  22.1167922   0.9215526  55.3011656  22.9488707   1.1195455  54.8714256
  21.6899562   1.7725630  55.4002762   8.0259138  25.4770970  21.6435671
   7.5784117  25.9721708  20.9573627   7.3330337  25.2443671  22.2616172
  79.3660164  26.6722989  19.1376770  78.4883928  26.9641709  18.8910615
  79.6362734  26.0956454  18.4230709  51.4907598  46.9307518   5.1095182
  52.3028994  46.4724636   4.8935863  51.1643887  47.2491837   4.2679033
   5.5119282  56.2476540  12.7207720   5.2283251  56.3147020  13.6325312
   4.7288212  55.9687233  12.2462499  20.0212669  68.2205343  29.5752788
  20.8828425  68.1011438  29.9748659  19.5444191  67.4188662  29.7901773
  11.3300723  74.1792095  66.8085241  11.3736027  73.3199370  66.3890162
  11.3211554  73.9877165  67.7463314   6.3497055  51.6619587  51.8876600
   5.5357873  51.3693094  52.2976923   6.0784519  52.0091581  51.0378885
  77.2820663  66.8433571  16.7613828  76.4534235  67.1191168  17.1532238
  77.9407406  67.0483160  17.4249876  47.5145626  54.5362902  23.1089354
  46.8692636  55.1090431  22.6944852  48.3463430  54.9986553  23.0059910
  68.7062836  63.2208347  59.7233248  69.0341997  62.4521494  60.1900434
  69.4931650  63.7143564  59.4920778  66.5589905  53.9903927  43.8396120
  66.9428635  54.8589897  43.7195396  66.0674953  53.8322449  43.0335999
  59.2763996  20.4784250   3.8203222  58.7823009  20.6628108   4.6191332
  58.7059212  19.9002004   3.3139226  78.3894062  22.2157645  29.7344565
  78.3666897  23.1626320  29.8728704  78.2523346  22.1079302  28.7932777
  71.1179018  31.5691566  37.1967459  71.8168068  32.0227647  37.6679158
  70.3693008  32.1634197  37.2484922  66.6820335  76.0161781  29.2910671
  66.8250132  75.3511477  28.6176276  65.7945395  76.3354349  29.1278005
  16.5515113  22.2742748  39.5765376  17.2563660  21.6530633  39.7595882
  15.9142315  21.7709327  39.0698290  27.1682382  11.0373843  22.9887033
  27.4915290  11.7934763  23.4786439  27.5082946  10.2800286  23.4651566
   7.7206552  56.3099957  59.0159369   7.2237360  57.0903254  58.7701988
   7.4842697  56.1535788  59.9302053  59.0974474  19.1596282  33.0406499
  58.5140371  19.8050570  33.4397578  58.6865139  18.9518893  32.2014761
  17.3172343  62.1737528   3.5539669  17.7204299  63.0418921   3.5531685
  17.2835696  61.9261551   4.4779766  28.4796333  66.3223457  46.1170721
  28.9155436  67.1725845  46.0595465  27.6354599  66.4563513  45.6862068
  48.2961321  27.9224062  28.4597206  47.9263210  28.4802246  27.7753901
  47.7407169  27.1428251  28.4594250   7.9028356  32.8313255  12.5539243
   7.8448915  33.6726308  12.1010685   7.2959083  32.2622466  12.0806170
  62.2258472  47.4444818  14.6736479  61.5859413  47.4295521  13.9619374
  62.9783487  47.9106379  14.3094146  43.6874628  73.3294916  10.6470335
  43.9409733  73.8313198  11.4217174  43.8701105  73.9149237   9.9120903
  70.3148508  54.9887800  11.6457260  70.8201218  55.0707006  10.8368862
  70.2626038  55.8815622  11.9869590  22.0550704  15.1025689  24.3283057
  22.2368002  15.3561556  23.4233761  22.0955420  15.9230149  24.8196936
  45.6287766  50.5125999  17.6938677  46.0580063  49.7425938  17.3209250
  45.5056047  51.1020470  16.9498181   7.0126784  40.6407690  40.9018326
   6.4442039  40.5276728  41.6635895   7.9005027  40.5966473  41.2568712
  54.7387552  55.6472778  45.7115459  55.2297831  55.7454014  46.5273237
  55.3562641  55.9064913  45.0276470  12.8294182  36.3355637  40.1890850
  13.4950709  36.5812731  40.8315516  12.9251039  35.3877592  40.0955868
  12.8822815  64.9580860  36.5687370  12.5824988  64.7617102  37.4563169
  12.3938882  65.7425308  36.3190389  52.4479675   0.5755398   5.5404019
  52.0744896   0.3318395   6.3873696  52.8721189   1.4187810   5.6993794
  60.8723879  69.6707106  32.0948339  60.9103060  70.6203651  32.2086430
  61.6455650  69.4612169  31.5708637   8.1082410  59.4829416  36.1202884
   9.0453601  59.5406294  35.9339786   7.8567243  60.3743839  36.3617492
  58.6159563   7.4056554  27.2546196  58.7496567   7.4279219  26.3070631
  59.2249775   8.0594957  27.5978661  35.6871438  77.6753569  55.0295019
  35.0612664  78.3219624  54.7032928  35.4809189  76.8764114  54.5443344
  17.5160003  48.1166220   9.8687637  17.8106737  47.7923870   9.0177226
  17.1683967  47.3430109  10.3125298  18.4017706  74.0928936   1.9335538
  17.5238669  74.4741154   1.9471660  18.2605791  73.1605053   2.0977286
  79.3127680  49.4245052   8.6379927  79.6851301  48.7543678   9.2111409
  79.7011089  49.2492867   7.7808321  74.4045973  73.0292130  20.0413990
  75.2990437  73.3468103  19.9175882  73.9266253  73.7858343  20.3809571
  78.7366581  47.8318262  36.2323904  78.1331778  48.2773542  36.8269897
  78.1728077  47.4550962  35.5568290  18.4423101  29.9682117  43.7581825
  18.0821681  30.2553201  42.9190731  18.7261188  30.7760763  44.1860104
  67.1741486  70.8714104  47.8002739  66.2967539  70.6123018  48.0818367
  67.0477200  71.2295771  46.9216585  44.1400337   8.2278794  28.9510942
  44.2879343   7.2860050  28.8660669  44.0890598   8.3780688  29.8950624
  47.5938988  23.3270812   2.8103372  46.7897129  23.1308198   3.2909647
  48.2548475  22.7601004   3.2077152  20.1450706  56.7375708   8.7300205
  20.9503555  56.2240028   8.6668187  20.4109359  57.5472116   9.1659427
  19.1337228  11.9114459  22.5787210  19.9260962  11.3974679  22.7342939
  18.6487222  11.4111507  21.9224358  56.8377304  56.2867022  44.0126657
  57.5609207  55.6596279  44.0148735  57.1240950  56.9846344  44.6018314
  39.6215677  12.3480546  47.5843096  38.9586997  11.7409980  47.2551918
  39.1407490  13.1577671  47.7557993  12.2011983  35.2722836  51.1657333
  11.8729961  36.1712813  51.1479950  12.4308872  35.1192021  52.0822716
  68.1825018  69.8805141  16.5872943  68.2485151  70.5847836  15.9424055
  68.5997248  70.2348900  17.3725164  58.6807108  56.4663506  24.9460721
  58.7557983  57.3273706  25.3574610  58.1418610  56.6180515  24.1696334
  66.5296412  15.7566488  28.1394482  66.5990734  16.7024529  28.0095792
  67.4007893  15.4212272  27.9277158  22.7229142  20.4866219  44.6665621
  23.3437777  20.6368041  43.9536762  22.2853875  21.3297367  44.7847271
  51.5353870  75.8682680  23.1217074  52.2629404  76.4648628  23.2977104
  51.4160919  75.9093904  22.1728611  60.6083965  54.7230196  23.7645578
  59.9231625  55.1059914  24.3122983  60.1942921  54.6063805  22.9094911
  11.3947177  76.4156437   7.1164536  10.9286511  76.9435263   6.4681059
  11.2095535  76.8441963   7.9520911  49.3732166  18.6149323  20.1777172
  49.1403294  19.2174768  19.4713628  50.2421284  18.2914436  19.9398601
  21.0403514  27.6797223  56.5397787  21.5548611  28.2332301  55.9522915
  20.1472378  27.7349544  56.1998844  49.5837641  75.0251102   0.6673592
  50.1234198  75.7794905   0.4309050  50.0882530  74.2674780   0.3711887
  61.1030960  72.9864264  58.6764050  62.0265532  73.1560469  58.4901571
  60.6943750  72.9130077  57.8139734  80.3459644  20.2138829  15.5300653
  80.9709454  20.4763842  16.2058771  80.7804203  20.4301977  14.7050261
  56.6696358  56.3119936  65.7699299  57.1138477  56.6049480  64.9742651
  56.6679001  57.0808029  66.3401604  63.4609032  74.6376467  14.7025371
  63.0131245  73.9880466  15.2445197  63.3697844  75.4579163  15.1873970
  74.1491222  25.4064298  25.5311489  74.8770428  25.1432824  26.0942793
  73.7308311  24.5829320  25.2799129  55.4862070  23.0050135   7.3765051
  55.8658600  23.5300851   8.0810595  54.5786953  22.8631783   7.6458287
  33.6954904  16.9197237  25.2219582  34.3843699  17.5825107  25.1730776
  33.4987354  16.7109692  24.3087554  77.5889540  51.2381077   7.4478048
  78.1396008  50.8102608   8.1035215  78.1771469  51.8475342   7.0018721
  66.8855858  57.7676201  46.8016911  67.4533033  57.1989870  46.2815189
  67.4162817  58.0050373  47.5621033  15.8719468  18.9028573  35.8897376
  16.2372124  18.9964962  35.0099397  15.5446172  18.0038321  35.9187388
  29.6338749  29.5571685   3.2251033  28.7297726  29.8173952   3.0487242
  30.0642252  30.3636909   3.5089225  39.2891359  12.0205045  25.9146047
  39.3918014  12.1164846  26.8614292  38.5669088  11.4004850  25.8136320
  56.0848856  56.3591528  38.1869102  56.6705179  56.2787056  38.9397693
  56.5168285  55.8608150  37.4931407  18.4522247  56.0176373  59.6586943
  17.5765491  55.7694912  59.3623018  18.9693415  55.2164841  59.5751429
  66.6761255  44.6358538  51.4831781  66.0052776  44.2093086  52.0163298
  67.1888256  45.1483154  52.1082830  47.4623585  52.2450256  18.7924242
  46.9164467  51.5374327  18.4496045  47.5687122  52.0372295  19.7207248
  65.4737759  15.9904885   9.0891308  66.0056734  16.7808568   9.1820526
  64.6066427  16.2470829   9.4029355  30.8596873  67.4336100  43.1252813
  30.4210043  68.1603193  42.6829195  31.3082528  66.9617748  42.4235773
  33.9007854  53.8058615  60.1703501  34.8510361  53.8961744  60.2417707
  33.5721278  54.7044802  60.1968241  38.1455231  19.3712211  20.0535798
  38.0346942  19.5193815  19.1144323  37.9822922  18.4351659  20.1692867
  11.5089631  18.6550832  38.0198812  11.8761253  18.9977825  37.2050309
  10.8293247  19.2849386  38.2598948  19.7672379  74.9419737  27.1648788
  20.2429557  75.3546715  26.4440441  19.0297151  75.5287552  27.3321438
  69.7355413  77.4492645   1.8591209  70.5063057  78.0061960   1.7496783
  69.9492598  76.6479254   1.3811982  75.3196621  40.3907967  48.4133291
  75.8773613  40.9217405  47.8447342  75.0421667  39.6595383  47.8615236
  21.4561510   5.3703827  61.2168694  21.1313534   5.5879676  60.3431463
  21.7125750   4.4502598  61.1548042  54.0038586  29.6909475  34.4397616
  54.2038965  30.2857995  35.1625109  54.1274738  28.8162208  34.8082757
  49.1234493   9.3893808  12.8634942  49.7260523   8.7497067  13.2428610
  48.2530069   9.0634871  13.0923045  15.7251048  45.9455252   1.8212925
  16.0799444  46.2877178   2.6417953  14.7977245  46.1814451   1.8445477
  54.2857265  12.6837111  17.6032341  53.9153004  11.9261086  17.1504068
  53.6813307  13.3994210  17.4065256  62.3514891  33.9712334   1.3450612
  61.5874290  34.5260024   1.1879673  61.9890642  33.0940962   1.4696069
  60.5268717  35.4167652  23.7997651  60.0266361  35.3053474  24.6082067
  60.6887054  34.5244932  23.4933472  14.8391664  35.0801706  44.2759275
  14.1481185  34.4520450  44.4860268  15.5970383  34.5380855  44.0568304
  76.9525862  76.2162781  43.3829689  76.8821621  75.2974176  43.6417627
  76.2561607  76.6564178  43.8703108  47.4659348  75.7261753  33.7762523
  48.2134771  75.2646494  33.3962440  47.5460720  76.6221333  33.4490442
  53.1586266  70.9933949  10.1908898  53.5686827  71.6227627   9.5976132
  52.7556038  71.5329218  10.8711207  62.1743250  39.1753769  17.1148717
  62.2323942  38.2716608  17.4249649  62.7899981  39.6579170  17.6665366
  51.0970116  37.2908020   2.2580320  51.3818836  37.3416471   3.1704441
  50.7252073  38.1535912   2.0747691  72.2579145  37.3591375  60.7398891
  72.7262926  36.6222358  61.1321020  72.7298546  37.5372434  59.9263906
   2.8805044  64.2786264  30.9172034   3.7161881  64.0401697  31.3184547
   3.1062174  64.5189714  30.0185823  72.0451164   7.9110628  57.8151798
  72.5749922   7.5036579  58.5003662  71.1629057   7.5687683  57.9592991
  67.4373913  10.7501948  28.6962891  66.7772770  10.4882991  28.0545020
  68.1697035  10.1529002  28.5440254  62.0644236  62.9556179  60.3815651
  62.1513271  63.8987923  60.5197573  62.6924562  62.7564096  59.6872139
  18.0514586  74.0896034  57.2526169  17.9928136  74.4941378  58.1181479
  17.2710264  73.5386705  57.1923542  10.5699861  25.5369687  60.4578972
  11.4978492  25.3060293  60.5022621  10.3209460  25.7037544  61.3669586
  21.5103126   6.2344849  27.8180790  20.7391024   5.7742596  28.1492305
  21.9897366   5.5716348  27.3210740  81.3754463  63.7578201  66.3414621
  81.5827465  62.8279495  66.4341784  81.1287880  64.0372896  67.2231007
  29.7168469  57.1969414  10.1038003  29.9446511  56.2708759  10.1858807
  30.3224015  57.6457596  10.6937993  66.2726068  54.2674494  35.7567573
  65.3291464  54.3905306  35.6520343  66.4596128  54.5887518  36.6388154
  37.0589924   1.7991987  41.6547871  36.7688012   2.1871099  42.4803448
  36.2919879   1.3284820  41.3286543  66.4215803  74.8539543   9.9183410
  67.1902609  75.3201866   9.5897186  66.2403250  74.1912794   9.2518300
  73.0305433  17.6391375  43.4216499  72.7366257  17.5434411  42.5157309
  72.3188305  17.2700763  43.9446115  68.1419802  18.8142133  40.5743456
  67.3622417  18.5188699  41.0444593  68.8712168  18.4009218  41.0365534
  62.6851654  37.1688533   7.9072309  62.7405548  36.2646317   7.5981200
  63.2201242  37.6665497   7.2888881  61.9130468  27.0990682  13.4130955
  62.2009230  27.8812933  12.9424763  61.1525202  27.3889637  13.9168692
   7.8798002  28.3637881  60.3096771   7.1500123  28.6901212  59.7832298
   8.4914452  27.9981256  59.6706057  57.9799700  65.8913708  43.8894367
  58.0255938  64.9355459  43.8660526  57.1084833  66.0978985  43.5516644
  75.2087831  22.2680140  28.1458163  75.5198383  21.4911413  28.6105180
  75.2855015  22.0396924  27.2194171  17.4295962  59.4016314  33.8891220
  17.7966428  59.5206976  34.7650981  16.5093470  59.6490812  33.9793658
  71.9255114  54.5797920  62.7029610  71.8028402  54.5197821  61.7555523
  72.5376987  55.3063202  62.8196621  69.0295887  12.0653415  37.5971532
  69.6126032  12.6007783  38.1353283  69.2566204  12.2955132  36.6962051
  17.0204067  53.1905079  58.4637022  16.7840040  52.6283741  59.2015028
  16.9380987  52.6250553  57.6957703  75.6083632  18.5842490  26.4262915
  75.8377266  17.7577281  26.8511295  76.4403629  19.0503991  26.3443589
  34.3280339  54.5543528  53.6453867  33.8485289  54.0714884  54.3185472
  35.0218415  55.0077391  54.1242409  26.8145466   4.0939876  54.8221302
  26.4651489   3.2987899  55.2243948  26.1183071   4.3921164  54.2368078
  42.9388380  14.6312952  16.8444932  42.0345211  14.7981846  17.1101773
  43.4027052  15.4427922  17.0507216  15.2524364  33.5278344  15.1834750
  14.5826352  33.5619140  15.8664370  15.2800739  32.6077962  14.9208021
  17.2094107  54.4691563  63.2118177  17.4861920  55.2961540  63.6064053
  16.5607059  54.7223854  62.5550938  15.2666759  61.6062307  49.4389105
  14.8472857  60.7951880  49.7262287  15.1366174  61.6202402  48.4906912
   2.5741750  15.7505894  59.2623997   2.0560694  15.4098046  58.5332441
   3.4784281  15.7162535  58.9503431  55.7491970  30.0564098  20.8504081
  55.7646179  29.9958920  19.8952472  54.8351002  30.2438283  21.0637975
  77.3291636  39.8880911  11.7883575  78.1791449  39.7936821  12.2183013
  77.4876356  40.5103111  11.0784590  77.5904417  18.5130477  16.4199018
  77.6223803  17.7164555  15.8901358  77.8093719  19.2162395  15.8084917
  22.7005768  21.2378836  30.3308988  23.3812428  20.9040666  29.7465253
  22.8958416  22.1709299  30.4176664  66.9507504  11.7754030  39.2970395
  67.6070213  12.0666587  38.6640239  66.7519951  10.8753169  39.0390205
  76.7764759  71.6779900  62.6863813  76.1040258  71.6767788  63.3675909
  77.6035833  71.6346741  63.1662226  62.0713234  19.4109881  36.8146348
  62.1240139  18.4677851  36.6602898  62.9602766  19.7293890  36.6577506
   9.8174781  49.3057108  63.5163403  10.7571840  49.3595600  63.6903620
   9.7084033  49.7191906  62.6599693  16.7294538  77.0707750  -0.0039225
  17.6811540  77.1666813  -0.0399949  16.5069866  77.2327280   0.9128717
   6.3106000  40.0190496  52.1986723   5.4703504  40.3858232  52.4737883
   6.1122090  39.1109776  51.9700289  49.1182470  28.0641174   1.4981836
  49.1617680  28.8903260   1.0168155  49.5179081  27.4230814   0.9103277
  60.3487539  31.5711522  16.1422086  61.2939501  31.6825771  16.0401189
  60.0063658  31.5994620  15.2487874  65.1861620  64.7630310  66.2904549
  65.4700947  64.6763611  65.3804541  65.9882402  64.9613237  66.7737579
  69.7858334  25.4435182  22.0466447  69.1452408  24.7777438  21.7964101
  70.0168467  25.2261519  22.9497600  11.3248527  64.8564672  63.1610680
  10.6663549  64.3980742  63.6830711  11.2406206  64.4800186  62.2850418
  50.3164768  26.0687876  21.2732339  50.8540583  25.3367567  21.5755129
  50.1854610  25.9004378  20.3401065   0.9282165  42.5089645  46.0904598
   0.5895205  41.6927528  46.4583063   0.9792670  43.1053162  46.8374491
  66.8459177  51.6911793  15.2136111  67.0608425  52.5291157  15.6233740
  67.6788235  51.2207317  15.1792812  10.0539064  35.5100560  28.1479979
  10.8475745  34.9783254  28.0880880  10.3366160  36.3908911  27.9021597
  79.9076939   5.8710873   0.5101890  80.4796124   6.3026100   1.1449559
  79.0998983   6.3843018   0.5279388  58.6313725  72.9861879  24.3023562
  59.0048265  73.7842941  23.9284682  59.1678572  72.8099775  25.0752521
  62.3142815  66.6547871  54.7490406  62.1197557  66.2887287  53.8862610
  61.9423389  66.0245323  55.3660250  30.5033135  46.1954641  15.1671708
  30.8985448  45.3237009  15.1602268  30.6493092  46.5316820  14.2829335
  60.3837824  13.6659062   8.6023343  61.2049627  14.0833473   8.3422619
  60.5589628  12.7275884   8.5309076  48.4022808  58.6981678  41.4556932
  47.8365040  58.1356335  40.9268379  48.0616903  59.5814371  41.3140440
  55.6688404  36.0286069  63.8098145  56.4483023  35.5447388  64.0828276
  55.9251165  36.9489288  63.8694811  69.5536470   0.5182212   9.1317618
  70.3283024   0.4415504   9.6887779  69.5858002   1.4151111   8.7989157
  29.2573762  17.7452946   6.7090333  29.0726519  17.9541695   5.7933474
  29.0461969  16.8151844   6.7898411  70.8503580  29.3538547  52.2538948
  71.5374374  28.8038611  51.8775177  71.3133001  30.1251245  52.5810862
   6.1483318  39.6565056  65.1547766   5.6209177  40.3201866  64.7102594
   6.9902366  40.0844669  65.3105831  23.0705214  62.6220989   9.2477292
  23.7970662  62.3278093   9.7970545  23.4920859  63.0248404   8.4885758
  69.9572659  21.4574242  23.8275814  70.5882931  22.1750236  23.7719989
  69.2034054  21.8359017  24.2799973  46.1524820  64.3879080  11.1327958
  45.3479433  64.8961496  11.0296834  46.8129396  65.0333881  11.3845634
  67.9541683  47.2324371  59.4563770  68.6680031  47.8522825  59.6062517
  68.3923578  46.4159679  59.2163610  81.5647316  29.0938473  30.7560158
  81.8061066  30.0197649  30.7305694  80.9421539  28.9887691  30.0365782
  50.5920315   7.0319504  13.4975493  51.4896870   6.8719554  13.2062626
  50.4477358   6.3898534  14.1926181  47.8147221  31.5934777  56.4855957
  48.2278681  30.9974027  57.1102810  47.2180176  32.1209669  57.0165634
   3.3349299  26.1842346  64.5364618   3.4376249  27.1170640  64.7249174
   4.0341187  25.7608604  65.0345802  38.6362362   1.8301427  13.6454904
  38.2636070   1.3225989  12.9245341  38.5100460   1.2781876  14.4172764
  49.6500015  13.4234405  32.0760417  49.1545105  12.8602254  32.6706076
  50.2738333  12.8341067  31.6520715  66.9062662  10.2128375   4.1283718
  66.3612318  10.7960248   3.6001074  66.7002964   9.3353510   3.8061526
  64.6205902   9.8523486  20.5365181  64.5210218  10.7182264  20.9322119
  64.6305561   9.2491198  21.2796521  17.3642933  25.7875681  66.0015345
  18.1514871  25.6698775  65.4698324  17.6467371  26.3433695  66.7278528
  57.3245859  17.7891409  21.7463994  56.6069412  18.3286154  22.0783377
  57.3687649  17.0498335  22.3527861  49.3938684   5.8698392  43.1897545
  49.8100758   5.4126924  43.9205170  48.6148262   6.2735653  43.5722876
  64.3098688  21.6010809  14.9480712  64.3802261  20.9639907  14.2371583
  63.4738684  22.0409441  14.7936392  69.0052748  14.1937757  44.3333864
  68.7383032  14.3385875  45.2411270  68.4918022  13.4370983  44.0505219
  21.2254548  28.0290318  39.1226912  20.3996277  27.5716043  38.9645696
  21.2530351  28.1524563  40.0714970  78.6353731  62.5021029  56.6596937
  78.0081892  61.9295406  57.1013308  79.4883728  62.1066666  56.8392897
  44.4485807  55.5078888  16.9567072  43.8727140  54.7485590  16.8671083
  44.5710850  55.8225918  16.0610580  24.5417714  44.0589857   6.7361838
  24.2051458  44.9104595   7.0153022  23.7718129  43.5914660   6.4124203
  33.2727003  19.5771396   4.4276702  32.5626659  20.1285267   4.7563863
  32.9311442  18.6850464   4.4888479   1.5526706   4.1619903  31.8277478
   1.6348617   3.2252869  31.6486835   0.8954078   4.2164549  32.5214839
  16.5311706  49.7414303  53.9243507  17.2287202  49.7847986  54.5783949
  16.0965919  50.5924177  53.9808798  47.8928375  39.5420623   2.4668202
  47.8855419  38.7616539   1.9126174  48.8208866  39.7491717   2.5766408
  31.1434984  30.9111643   8.8997877  31.2759757  30.1909733   9.5162344
  30.9768200  30.4809690   8.0611080  54.2017078  19.9888682   6.0994452
  53.7269783  19.3573153   5.5590725  54.4305134  19.5023036   6.8913627
  56.5452528  46.3074303  55.3730869  55.5884218  46.3149977  55.3986359
  56.7852306  45.4229116  55.6492662  77.4016380  29.5065951  19.3804753
  78.2972574  29.4837284  19.7174823  77.4884748  29.8546386  18.4930313
  29.4468474   2.7793184  40.8375549  30.2208638   3.0818346  40.3625679
  29.1495085   3.5475796  41.3249922  75.7502842  18.7811208  18.8638520
  76.4160204  18.7631500  18.1763172  75.4501247  17.8746367  18.9303589
  54.8179722  55.5971527  12.3417938  54.2637968  55.6969357  11.5677357
  55.6792498  55.9065533  12.0612431  50.0557137  40.5303764  21.4856505
  49.2236090  40.2718449  21.8818784  50.4523945  39.7065282  21.2025523
  -0.1351039  57.3491812  55.7324362   0.7596143  57.0127726  55.7828760
  -0.3012244  57.7188826  56.5995932  50.9852266  67.5810003  37.5551939
  51.6068745  67.0598316  38.0632925  50.1652575  67.5207090  38.0453467
   9.6099192  60.1972675  50.4000378   8.9789158  60.7677984  49.9612236
   9.5484787  60.4383850  51.3243341  18.5163033  60.7383776  52.7297640
  18.4727883  59.8420906  52.3965836  17.7013433  61.1438179  52.4336338
  36.9062853  69.1847277  64.3570423  36.6570520  68.2824039  64.5568609
  37.3741698  69.4823456  65.1372623   7.5719273  23.5068059  25.5922151
   8.0389088  22.6865530  25.7514119   8.1813222  24.0327144  25.0742483
  46.7008257  48.5236788  15.8373809  47.2151804  47.7231550  15.7332790
  46.9983673  49.0934753  15.1281321  53.1198311  73.6537409  58.8867664
  52.9640341  72.7902555  59.2693329  53.8142586  73.5091877  58.2440329
  65.3499079  38.6535621   8.8421404  64.4800091  38.8155460   9.2072082
  65.4627132  39.3357682   8.1802487  65.5871391  45.6281710   8.7754166
  65.5264950  46.4956999   8.3754867  66.3967609  45.2582359   8.4234303
  53.7303257  75.4143763  12.2017181  54.6433783  75.1275826  12.1838737
  53.6150551  75.8976984  11.3835835  40.1079512  73.9314365  57.0425892
  40.3414869  73.0542660  57.3463535  39.8484802  74.3987083  57.8366661
  67.3021650  25.5678082   9.5598829  68.2231283  25.3128338   9.5046902
  67.0352221  25.3116655  10.4426980   3.7730750  27.1311545  39.6783972
   4.1416019  27.9819727  39.4406438   4.5346519  26.5900993  39.8869443
   1.0466745  47.4325657   6.3805562   1.6730475  47.0376015   5.7740146
   1.0393909  48.3607149   6.1466312  42.5136852  23.2645440  55.9624147
  42.9176426  22.4109960  56.1189508  42.8476048  23.8203144  56.6665792
  78.3413601  59.8098660  47.4023247  78.7255669  60.0933504  48.2319355
  77.9079819  58.9819431  47.6095867  64.7653961  27.3491955  54.9637651
  64.2763519  26.5393090  54.8183298  65.5510473  27.0731115  55.4357386
  77.9917574  42.2768831  23.9776492  77.9573536  41.6587496  23.2476115
  77.2247410  42.8360987  23.8543391  51.7539644  30.4273796   9.3910390
  51.3435221  30.4219174  10.2557588  51.2921095  31.1147785   8.9110339
  38.7444425  69.6045351  58.9462328  38.1437349  68.8620186  59.0099192
  38.7557650  69.9796629  59.8267889  23.7879485  72.6394594  67.7230674
  23.8908595  73.2796371  67.0189264  24.5956582  72.1263206  67.7001751
  69.5516205  47.1912956  19.4544590  69.2456198  46.5746975  20.1195908
  69.5868635  48.0339479  19.9071503  30.9126353  39.9705911  55.4265881
  30.5047035  39.1061163  55.4766464  31.6140223  39.8675752  54.7834110
  78.7226486  25.0304627  33.1845403  78.1998920  25.2423978  33.9578724
  79.5275593  24.6502590  33.5363841  67.2698832  14.2422712  41.3281918
  66.5405798  14.1298902  40.7185030  67.4207735  13.3669949  41.6850615
  53.5838747  47.7590036  63.5824394  54.3992567  47.8197813  64.0801239
  53.5462523  46.8468142  63.2948160  77.4202251  56.2270212  62.5659895
  78.0953360  55.9751892  61.9358826  77.8815842  56.2799263  63.4029961
   1.9741309  74.4381809  47.0352364   2.6217666  74.1573143  47.6816988
   1.5502328  73.6276579  46.7531157  63.1900358  32.7861381  29.6549559
  63.6860609  31.9767642  29.7778726  62.5715685  32.8012919  30.3853631
   2.2544697  37.7065063  22.8211784   3.0971313  37.5323725  22.4018574
   1.8227229  38.3328295  22.2401929  76.1779261  34.8181772  14.9844480
  76.7208481  34.2834568  15.5637097  76.7722559  35.4913592  14.6530426
  55.1030064  58.5260439   5.0121337  55.5970430  59.1159296   4.4427484
  54.3082809  58.3256960   4.5176637  72.2827005  24.6852565  17.4827290
  73.0688095  24.1494226  17.3771501  72.5276947  25.3446245  18.1319153
  58.6603689  40.4158878   3.9681175  58.5643768  39.7292566   3.3081496
  59.2737007  40.0509405   4.6059808  47.1969128   1.4593165  59.4092607
  47.7146482   1.8127297  60.1326370  46.3353777   1.2912889  59.7910404
  72.7724743  21.0103941   6.0917008  72.1609068  21.3105130   6.7641157
  73.1465340  20.2055359   6.4501941  26.7318678   3.6625320  44.1920519
  27.0882630   4.1763976  43.4673738  26.5289092   2.8110200  43.8047934
  22.2052431  13.0200076  34.6455216  22.9817200  13.3508098  34.1939855
  22.1432900  12.1037805  34.3754792  16.6020036  70.2786684  56.5316200
  15.7312834  69.9151611  56.3705587  16.5124941  70.7590961  57.3546696
  69.5581484  25.5251932   1.0309251  70.1502800  25.8688545   1.6998833
  68.7805986  26.0801649   1.0913610  25.2288365   2.6771334  22.8248167
  25.8923340   3.1464210  23.3305597  25.7145238   1.9843520  22.3771620
  82.8410912  36.6937876  10.9054196  81.8880749  36.6398787  10.9766614
  83.0810928  37.4363375  11.4597237  76.9846487   3.4006113   8.3847052
  76.8423557   2.4860977   8.1404728  76.4755201   3.9008507   7.7469134
  67.4961948  54.1772461  21.6822076  66.7173767  54.7126818  21.5306139
  67.1752262  53.4214973  22.1741962  78.2134199  33.0347133  60.4802704
  78.9086819  33.1359291  59.8301935  78.5662508  32.4089622  61.1128664
  14.2890680   2.8178370  51.6082335  14.9857175   3.4722680  51.6595316
  14.1393685   2.5556675  52.5165749   9.7500563  75.2445412  64.5359135
   9.3656576  74.6139622  63.9269447   9.8552501  74.7557306  65.3521442
  16.0083091   8.9234889  64.8299074  16.5628374   9.6092486  65.2020168
  16.4902115   8.6161166  64.0621042  81.2766171  49.3368196  36.1472702
  81.9991398  49.6493912  35.6027579  80.5707169  49.1545582  35.5270123
  27.7344680  60.1455069  29.7059226  27.4779010  60.9433222  29.2434382
  28.6762714  60.0716257  29.5517182  67.5673580   4.4128633  66.4508629
  67.3540211   4.3750936  67.3832226  68.4847450   4.6849239  66.4259052
  10.0024271  20.0686693   7.3563832  10.4317129  19.6686327   8.1126344
   9.0667027  19.9695456   7.5319600  19.6337569  26.0265136  30.8183026
  19.3964100  25.1383471  31.0848713  19.9854445  25.9252024  29.9338341
   7.4899870  63.6902857  62.0046091   6.7857891  64.3069172  62.2048616
   7.1104521  63.0949640  61.3582563  81.0009575  66.8213749  44.7982168
  80.0541782  66.6980219  44.7301769  81.1069202  67.7480698  45.0132608
  73.6287355  42.0033550  11.6551578  74.3103361  42.3708582  11.0924911
  74.0900707  41.7460537  12.4534047  31.8622208  62.7413416  12.9491544
  32.1775913  62.1991205  13.6721849  32.1064806  62.2556686  12.1613145
  54.0625620  40.3266287  59.1306448  54.0917253  41.0060883  58.4570599
  54.1289330  39.5046234  58.6447048   0.4086917  41.8547106  55.4820585
   1.1807474  42.3167801  55.1554823   0.1023987  42.3884916  56.2152004
  73.8314295  46.2219667  56.3369131  74.1331768  46.5014076  57.2012615
  72.9941463  46.6705990  56.2189341  74.1962290   3.1445274  61.3119602
  73.3170366   3.3764499  61.6110611  74.3725204   2.2971424  61.7207289
  49.1947031  57.5898552   3.8868695  49.7269058  57.4890995   3.0976656
  49.1322756  58.5364676   4.0144098  50.2271748  23.0783343   6.2297952
  49.7380209  22.6444554   5.5307174  51.0581970  22.6050353   6.2700129
   2.6224896  47.6833391   9.4840044   3.1451517  47.1623373   8.8744026
   2.5537646  48.5422373   9.0671021  50.4423952  63.8506889  21.6100955
  51.1054659  63.2677841  21.2402415  50.8679771  64.7074556  21.6426444
  39.0062356  53.3821297  11.4421129  38.9022398  53.1453228  10.5205154
  39.2248154  54.3139124  11.4267910  66.6316605  27.7078414  12.2799969
  66.5899611  26.7895222  12.0131910  67.5208139  27.9822922  12.0556867
  16.3673794  57.4156380  10.4459000  16.9174087  56.7227936  10.8115041
  16.9681883  57.9487944   9.9253201  33.3732104  56.3802624  59.7921658
  33.3176470  57.2103882  60.2654886  33.8624167  56.5903854  58.9967060
  25.0248417  15.2034937  67.0584105  25.0446352  15.3954207  67.9959621
  25.8352503  14.7208391  66.8955756   1.3959463  14.6021426  28.3019519
   0.4550789  14.6741426  28.1412768   1.5418465  13.6687899  28.4562135
  53.7861061  28.4954739  10.2952790  53.4129286  29.2985320   9.9318719
  53.2295084  28.2914257  11.0468090  81.1168575  41.4861965  28.4970307
  80.2197742  41.6117764  28.1876874  81.5530872  42.3175764  28.3106184
  53.3229876  48.7293148   9.9283963  54.0585566  48.4738159   9.3717229
  52.6161623  48.9290237   9.3145990  30.4290533  11.0816801  59.4751883
  31.3677645  11.0693932  59.2883682  30.1776600  10.1584125  59.4999027
  41.7445707  29.3800068  59.5516253  41.3161373  30.2087903  59.7656202
  42.3517704  29.2301679  60.2762556  26.1172485   4.5026627  51.4398909
  26.1106086   5.3849906  51.8109512  25.2714491   4.4218466  50.9990740
  74.9639988  15.7294464  27.7216840  75.6505680  15.9150302  28.3623219
  74.1516972  15.7532167  28.2274771  35.3496957  23.4263539  55.1354647
  35.6652999  23.0459285  54.3157673  35.5123878  24.3650007  55.0421619
  72.7590942  46.8611383   9.4695759  72.4638414  45.9537411   9.3941474
  73.4338522  46.8378401  10.1480949  39.2521882  52.8348684  24.3499255
  39.7641182  53.5672522  24.0067387  39.4611120  52.1035004  23.7688231
   2.0490339  65.9365416  49.9217129   2.4128655  65.8000422  49.0469408
   2.7532411  66.3628531  50.4101610  39.7265673   9.4155759  11.1632657
  39.8496675   8.4872919  11.3616765  39.0483785   9.7032452  11.7744410
  60.2396202  54.5478916  15.0865853  60.1203251  54.0905380  15.9189487
  60.7050943  53.9206934  14.5332396  22.7030945  22.9094219  46.2775660
  21.9878960  23.3757520  46.7103004  22.9231834  22.1976542  46.8785477
  36.9645667  12.7383649  49.7599792  36.9800901  11.8840730  50.1914644
  36.9570875  12.5342679  48.8248253  60.4422665   6.9180149  13.4863174
  60.1469326   6.9911402  14.3938756  61.1210251   6.2434733  13.5089350
  55.5060863  44.1484165  18.1459117  56.0807514  44.9126530  18.1899548
  56.0229826  43.4378719  18.5256124  22.1704197   7.8208184   0.6772380
  22.5883269   8.4197325   1.2960155  21.2432051   8.0569696   0.7043827
  10.1626706  78.1292677  34.8210359   9.3658209  78.2177210  34.2981219
  10.2416849  77.1886635  34.9799538  52.2377825  20.0170231  22.5416541
  52.6546001  20.8770442  22.4881983  52.2889996  19.6702611  21.6509438
   0.5876905  20.1641774  14.9030745   0.5064478  19.5860767  15.6616473
   0.8424911  19.5837820  14.1858244   0.4459508  29.7674441  50.4642963
  -0.4296748  29.9246621  50.8175516   0.5998071  30.5017447  49.8698521
  54.4518375  33.8354969  16.9802785  54.2482996  34.7507095  16.7874360
  53.6264801  33.4680796  17.2965467  17.4646628  54.0482426  37.2010326
  18.0854774  53.3425426  37.0199156  17.3547876  54.4922543  36.3601923
  20.6155467  69.5778036  55.3210020  20.0396299  70.3329086  55.2011395
  20.0652170  68.8219213  55.1160336  47.5558424  74.0727329   2.0760889
  47.9555607  73.8684034   2.9214919  48.2772970  74.4106054   1.5454531
  33.7199569  24.6522737  49.3627310  33.3315635  25.0057054  50.1630211
  34.6247220  24.4529653  49.6033764  60.1873112   2.8291267  12.8097796
  60.3919792   3.3641315  12.0428956  60.9024334   2.1946129  12.8569269
  11.9268835  28.6749554  28.7432170  12.3148787  29.1066146  29.5043755
  12.5495946  27.9843402  28.5162497  82.3538685  39.0310168  14.9362600
  81.9442749  38.1702709  15.0232887  81.9299412  39.5668793  15.6066072
  69.5500708  72.1079874   4.0249935  69.3359804  72.6854324   4.7577634
  69.2104101  72.5629473   3.2543629  72.4521875  63.3435106   7.7290070
  72.1450758  63.9141178   7.0245022  72.1334028  62.4735212   7.4887562
   4.5409590  41.1159134  32.8158188   4.6657783  42.0548296  32.9539728
   3.9770979  40.8403492  33.5385633   2.9669893  19.3824518  32.3375678
   2.3289812  18.7998521  31.9255567   3.0282781  19.0703773  33.2403874
  67.4056101  71.8534708  45.3608656  67.5067663  71.2542677  44.6212959
  68.2552195  72.2881079  45.4349184  22.2636485  51.0899496  47.1808815
  22.2374630  50.4992247  47.9336023  22.3529220  50.5102253  46.4244556
  34.6544766   2.4076617   1.7459291  35.4905963   1.9590817   1.8720594
  34.6558189   2.6617616   0.8230731  63.1170177  22.0502043  65.7724285
  62.9961681  22.0194817  64.8233843  63.5558939  21.2264752  65.9847736
  17.6129174  31.6632080  12.3574948  17.3187792  32.5507689  12.5623071
  17.0181453  31.0948730  12.8468537  31.4577127  71.9959402  23.3318472
  32.0022535  71.4117432  23.8595057  31.0525036  72.5852823  23.9680195
  18.8284457  52.3229933  62.8670931  19.6299434  52.2472715  63.3848763
  18.4334660  53.1456375  63.1560326  51.4407825   5.5662161   6.7161721
  51.0074234   6.2988812   7.1539307  51.0288954   5.5253571   5.8530909
  48.2019138  14.0685844  64.7034216  48.3633375  13.1271696  64.7659731
  48.8468599  14.3805218  64.0686226  53.9409399  28.7286854  18.5182345
  54.2437935  29.1728282  17.7262461  53.4742594  29.4053435  19.0087175
  77.8993130  63.6336946  16.9900525  77.6083088  64.5350599  16.8518794
  78.7402058  63.5811901  16.5357697  63.8869047  19.4331956  31.1142564
  64.5553303  18.9964306  31.6421556  63.0571413  19.1666174  31.5100598
  28.4604955  30.6276679  66.4891481  28.0520439  30.5978823  67.3543167
  28.7306523  29.7249794  66.3206244  65.2938223  51.3000584   1.3552964
  65.8425999  51.1154938   0.5930559  65.9158182  51.4734077   2.0619062
  40.4353476  18.7162364   3.9730263  41.1832476  18.2837689   3.5608950
  40.6275511  19.6508813   3.8973355  48.8159609   4.4578961  61.8380690
  49.3507290   4.6986392  62.5945663  48.8264132   3.5007712  61.8322134
  51.0908890  36.1018896  65.4544401  51.8191051  35.5714750  65.7778454
  51.4825344  36.9534469  65.2602959   0.7373172  24.3588996   0.8914725
   1.6323307  24.2446184   0.5719061   0.5287136  25.2728009   0.6978236
  30.5570030  20.1509309  50.5612803  30.1155496  20.6217122  49.8543739
  30.9317732  20.8397007  51.1102581  54.6868229  21.0542202   3.6006427
  54.7314405  20.4760575   4.3621993  54.6168423  20.4605865   2.8530231
  78.7358809  70.8293819  17.9398489  78.2536602  70.6664753  17.1291959
  79.5888853  70.4190063  17.7977121  63.3817768  49.1761971  17.1353519
  63.0749846  49.0297318  16.2405550  64.3278074  49.2929983  17.0480919
  10.7124152  33.2084215   0.1740223  10.5404057  34.1307247  -0.0157112
  11.5402140  33.2130945   0.6546074  39.3532443   0.5324340  27.3353362
  40.2207994   0.1299997  27.3756266  38.7712669  -0.1791912  27.0686460
  78.6070967  33.2029390  29.6196556  77.8455210  32.7336979  29.2790055
  79.3395662  32.8866410  29.0908098  48.4530497  33.5810351   3.6901870
  49.2049980  33.4263611   3.1184539  47.7228737  33.1479645   3.2480037
  64.5619011  24.6305013  56.6757250  63.9694643  25.3412795  56.9207621
  65.3856325  25.0684190  56.4614058  81.1957359  52.7517414  10.3035462
  80.6139565  53.4838581  10.5079174  81.4549351  52.4061251  11.1577117
  82.5485031  35.6019497  33.4438920  82.6942070  36.5362406  33.2952261
  81.9664703  35.3341699  32.7327204  52.9159641   1.7535152  54.5968723
  52.1663427   1.1591154  54.6283913  53.6494541   1.1999755  54.3288851
  60.0336599  59.3349218  13.6449838  60.7548189  59.8681641  13.9793670
  60.1986790  58.4605598  13.9978194  48.1830072  59.6443939   6.8447036
  48.6934376  59.9435282   6.0922331  47.3300743  60.0655890   6.7382407
  62.1707582  58.6264610  39.4688153  63.0611277  58.4880590  39.1458273
  62.2870827  58.9311647  40.3687334  81.4818668  71.3261986  62.5285292
  81.6663742  71.4844418  63.4543514  80.8330822  71.9906759  62.2966290
  19.5652139  52.4901676  48.3869362  19.3807971  53.4153700  48.5488701
  20.2904105  52.4962616  47.7622080  67.5572062   9.0542245  14.2876363
  66.7583036   9.5457131  14.4784927  67.4185228   8.7040603  13.4076452
  81.6566277  55.2471542  12.4599123  82.3783016  54.6188021  12.4353492
  81.3119888  55.1813745  13.3504879  72.2967196  76.2288094  34.9115562
  71.4694691  75.7473230  34.9190688  72.6037312  76.1916113  35.8174205
   3.9206433  60.7394791  50.7053280   3.3314151  61.4755630  50.5403328
   3.9280817  60.2496481  49.8829937  74.9137640  67.8592491  17.8022039
  74.3721199  68.2811832  17.1352518  74.2861748  67.4338531  18.3865035
  18.6551559  13.0241930  34.2579341  19.3384695  12.3635054  34.3710971
  17.8831124  12.6445854  34.6775508  30.7575035  64.6450710  45.7602215
  31.4333892  64.8995543  46.3884306  30.1015234  65.3396130  45.8196878
   2.0842896  49.6218491  56.3577080   1.2758774  49.1783333  56.1008120
   2.5563270  49.7545338  55.5356312  41.6842794  62.5326061  64.2597866
  41.3228607  61.6570663  64.1218090  42.2244692  62.6933956  63.4861088
  62.3472118  52.2927523  39.0006924  61.6236639  52.8875208  39.1980743
  62.9818535  52.8348541  38.5320854  46.9777918  49.9513054   5.6424576
  47.0137882  49.8849392   4.6882400  46.0469437  50.0540590   5.8404565
  24.1527557  57.3617649  52.0320702  24.8049831  57.3883820  52.7321577
  23.6283326  58.1517220  52.1631289  20.2843404  24.2842841  17.7417386
  20.9454036  24.0698910  17.0835125  20.7889962  24.5560026  18.5083699
  75.5331230  48.3856297  48.1922293  76.1108589  48.1408882  47.4693489
  75.9845018  49.1105032  48.6247158  53.1672621  39.4593239  20.1046181
  52.4576473  38.8331723  20.2481866  53.9529753  39.0046096  20.4081249
  66.1361408  34.8780251  32.7220535  65.6937170  34.1161203  33.0962110
  67.0219660  34.5702863  32.5301027  27.7998137  16.5606892  39.6273685
  28.4378362  16.9924164  39.0592384  27.5769567  15.7520771  39.1661620
   0.4204875  18.4840512  62.6791859   0.1265593  18.6066473  61.7765188
   1.1931328  17.9238546  62.6054955  18.2128608  34.7666550  45.7755136
  19.0341103  35.0598454  45.3807735  17.6457882  34.5694160  45.0300217
  82.3303699  19.1986620  23.9138246  83.2159233  19.4608247  23.6622071
  81.8120003  19.3103075  23.1169224  20.2886796  64.6656084  58.0069113
  21.1039996  64.5572090  58.4965372  19.7478378  63.9226675  58.2747984
  -0.1276912  53.9059401  22.9537606   0.8010568  54.0504742  22.7727365
  -0.5539772  53.9908409  22.1009398  31.3775325   0.4443127  62.4467230
  32.1723509   0.9208681  62.2071552  31.4950991   0.2326981  63.3728075
   4.5201373  51.6111422  58.2746220   5.1816279  51.8452120  58.9256763
   4.9328831  51.8056917  57.4331808  37.4085426  23.9042640  42.6444817
  36.5753102  24.3158317  42.8737593  37.1723509  23.0138063  42.3846197
   4.8297393  71.4655066  23.9548945   4.0739307  71.4146137  24.5400405
   4.8509470  72.3790646  23.6699438  61.6609240  30.0273061   6.9143921
  60.8015347  29.9625039   7.3309010  62.2503042  29.5614576   7.5075579
   6.1351007  74.7438860   6.0479093   6.9986385  75.0071383   6.3660818
   6.0336077  75.2093601   5.2176893   5.7694393  45.5656910  52.9831362
   5.7408029  44.6507788  52.7032232   4.9890167  45.9598923  52.5935507
  76.0394478  40.3329372  55.5000591  75.1617241  40.4272079  55.1300001
  76.5721273  40.0091505  54.7736692  81.1394292  14.7270286   0.6982475
  81.4109642  15.0164640  -0.1728052  80.2485281  14.3994462   0.5748754
  81.2026501  75.8521891  55.0793219  80.9343338  75.9245920  55.9952879
  81.8738174  76.5262270  54.9723530  53.0948591  15.5948877  36.2895465
  53.1732225  15.4616106  37.2341776  53.2462406  16.5319979  36.1665058
  48.3688831  23.0725431   0.0458812  47.9685783  23.7571907  -0.4900717
  47.8888369  23.1047869   0.8733772  48.7239647   2.1112664  47.0537233
  49.1331100   1.8997313  46.2146235  48.5945415   1.2629052  47.4777126
  68.2536173  30.9686565  32.8467035  68.1478548  30.0339770  32.6694417
  68.9571476  31.0115051  33.4943509  12.9780412  62.1724653  46.9121933
  13.2097352  61.3949871  46.4041853  12.9094410  62.8716755  46.2620974
  23.9316058  18.8181686  37.8311491  24.5689917  19.2847240  38.3717966
  23.7060523  19.4383621  37.1378112  26.2777662   2.4289037   7.2358221
  26.4784479   3.1655952   7.8130955  27.0152545   1.8290633   7.3477912
  14.4878399  59.6359015  65.6105423  13.7781286  60.2487373  65.4182577
  15.1633668  59.8413324  64.9642515  15.8026302  59.7059488  42.9002953
  16.6717935  59.6888161  42.4996758  15.2439308  60.1202774  42.2427082
  40.8358908  13.2808256  55.2997065  41.2572098  13.8617909  54.6662998
  41.2894821  12.4443114  55.1961088  36.2786961   2.1890543  51.6475058
  36.0467005   1.5012845  52.2715139  36.2784719   1.7505182  50.7966757
  33.9464116   3.5551289  52.5299358  33.4635067   2.9632127  51.9531584
  34.8666167   3.3398595  52.3779011  79.0294933  30.0180125  16.5462244
  79.1686058  30.9505725  16.3812685  79.8928547  29.6872139  16.7940271
  11.5023971  53.9087009  35.8290553  11.3264847  53.3625937  36.5952516
  10.9289038  53.5575294  35.1478696  68.6671209  32.0993400  48.9913177
  67.8510857  32.3168826  49.4418621  68.8693237  31.2089443  49.2786217
  24.6493912  63.3414888  40.2288675  25.1074600  62.6136827  40.6492233
  25.2681684  63.6689043  39.5760679  74.6255398  29.0719008  21.1742640
  75.0945187  28.8632345  20.3663349  75.3159142  29.2190433  21.8207669
  36.9615340  24.9650311  47.3006964  37.5900865  25.0623918  46.5853786
  36.2729549  25.5997086  47.1025229  37.2974467  58.2574511   2.8256333
  37.4596786  58.3716393   3.7620491  38.0427003  58.6813259   2.4000053
  32.3197079   0.8017159  40.6314945  32.2570848   1.7110497  40.9237623
  33.2591438   0.6450037  40.5359364   1.1886390  24.9534345  15.4235482
   1.4359434  25.8415318  15.1659560   1.1324485  24.9879098  16.3784754
  72.9972124  24.4001150  45.5432749  73.8972092  24.1740680  45.3084517
  72.7824402  23.8093328  46.2651348   2.4436729  27.3121977  29.8371077
   2.8934884  28.0621958  29.4480014   3.0702350  26.5923524  29.7631311
  66.6994810  34.1610503  53.7948608  67.5988817  33.8367701  53.8412666
  66.1626482  33.4188771  54.0727472   2.2393550  11.0053468  66.1813259
   2.2860821  10.1092839  65.8479786   1.5681525  11.4260828  65.6440163
  53.2891560  36.7230892  52.1177149  52.8070927  35.9118128  51.9574690
  52.6188135  37.4062729  52.1062040  66.7219925   7.6102644   2.7472818
  66.5156364   8.0008811   1.8981242  65.9723139   7.0473379   2.9404980
  78.7228870  23.8647366  48.9307690  78.9059258  23.7146425  48.0032969
  77.9234314  23.3665490  49.1008043   0.6753435  67.5729465  36.8856120
   0.9182585  66.8336678  37.4430084   0.7660144  68.3395672  37.4515676
   5.4887313  58.3838606  33.4972382   6.1584723  58.0601597  34.0996456
   5.9690851  58.9332438  32.8778291  22.5445628  70.2091885  16.8950760
  23.3284736  70.3940439  16.3778257  21.9527650  69.7697973  16.2843871
  18.5513532  33.4645224  27.8839588  17.6039004  33.5072088  27.7545595
  18.7566245  34.2387152  28.4080982  74.4026279  38.7152052  46.6983414
  73.8770819  38.3070040  46.0102987  75.2548552  38.2837820  46.6365480
  17.8745973  25.7086015  53.6621475  17.2643185  26.0013437  52.9853201
  17.9455745  24.7634959  53.5280991  40.4838991  28.2548738  44.1390991
  40.5693102  27.6138949  43.4333467  40.4990244  27.7319574  44.9406958
   2.2057396  66.5686560   5.1883537   2.9023081  67.0027351   4.6958080
   2.4645029  66.6651964   6.1048436  22.3633885   2.2551343  23.4195423
  22.1600842   2.2308919  22.4844956  23.2847500   2.5117800  23.4577465
  35.7511091  73.5348558  12.4609542  36.3696957  73.2198954  11.8018758
  35.9920621  73.0651474  13.2594192  14.3908381  44.2089319  33.2198858
  13.7447739  44.7647047  32.7840519  15.1780760  44.7511005  33.2703090
   6.3960731  57.0525980  29.6822810   6.0652423  56.9289398  28.7926221
   5.9927022  57.8692865  29.9764585  80.9628391  61.1628580  43.0118513
  80.4512787  60.6959343  43.6725426  80.6935406  62.0769262  43.1023169
  35.1354313   0.2307554  39.9127841  34.9123836  -0.6320322  39.5633841
  35.3696561   0.7479939  39.1421771  76.6404819  44.0511417  37.1537209
  77.4468470  43.5847044  36.9336367  76.6945505  44.8692274  36.6597104
  17.5765300  54.4807100  28.1517005  16.8607938  55.0564909  28.4208274
  17.2518969  54.0481424  27.3619342   2.3610605  58.8357925  53.8444948
   1.7889339  59.2409945  53.1927919   2.1092135  59.2454910  54.6721125
  44.4342136   2.0101514  33.0087972  43.8282967   2.7506775  32.9820514
  45.2541161   2.3587874  32.6588702  47.7038383  12.4685371  12.9465175
  48.1237888  12.8621328  12.1816921  46.9945478  11.9379330  12.5837564
  63.0925274  60.5260563  45.5201626  62.6771259  60.5781221  46.3809538
  62.4082184  60.7950783  44.9073172  76.5048361  36.5852809  36.0243368
  75.6391430  36.4604163  36.4131999  77.1093845  36.1941695  36.6550398
  81.3170147  55.3340912  32.0766592  81.2699413  54.7373199  32.8235722
  80.6197929  55.0397444  31.4905953  64.4464159  69.3923044  18.7726521
  65.0228500  68.8733530  18.2117164  63.5679197  69.2295599  18.4291553
  58.3220482  30.0461030   0.4098664  57.6541233  30.0964499  -0.2739264
  58.0731916  30.7240248   1.0381377  63.1877756  24.0707231  27.2376060
  63.4854412  24.6854925  26.5670204  63.9841652  23.8266301  27.7092171
  26.1130762  64.5688295  16.6567338  26.1819386  64.4793844  15.7062125
  27.0007420  64.7856236  16.9418359   3.4411973  77.8730249  38.4171391
   4.0001622  78.2010031  39.1215682   2.7680084  77.3603296  38.8645625
  75.1819706  65.2572441  64.0145826  74.9753666  65.5300903  63.1206560
  75.6456137  66.0047626  64.3920517   2.1268536  39.4605541  62.6871157
   1.5173386  38.7765336  62.4099207   2.4299660  39.1761971  63.5493755
  18.1681085  40.9844780   2.3845521  17.8147233  41.6839600   2.9341644
  18.4486127  41.4276075   1.5838113  10.6790340  58.4277487  17.1569204
  11.2031829  58.2894897  17.9458332  10.1567125  57.6299667  17.0735264
  43.0684185  74.0955973  50.7258368  42.9210520  74.6610022  49.9676561
  43.1309319  74.6991348  51.4661503  13.0078328  41.2830734  63.9776039
  13.4567249  40.6705666  64.5603228  12.2506404  41.5816641  64.4813251
  20.4638648  52.8611231  24.7742033  19.8669124  52.1402550  24.5736265
  21.2496996  52.4336529  25.1147389  59.9289989  62.9883003  36.7927861
  58.9927864  63.1680870  36.8789172  60.1786232  62.6092577  37.6355457
   8.8578892  39.3474841  34.3509269   8.5336620  40.1929903  34.6611381
   8.3682227  38.7016916  34.8602486  21.9763517  12.7385843  59.7607183
  21.5357256  13.4468651  59.2912340  22.6065397  12.3892558  59.1305876
  17.1988964  41.3343096  52.4319935  17.4992335  41.9529343  53.0978251
  16.7964900  40.6228876  52.9301643   5.1440138  38.3452511  45.0442886
   5.6523389  37.8434324  45.6814814   4.2575356  37.9906440  45.1124144
  77.1964645  73.9411926  22.0700955  77.6848125  74.7246408  21.8171883
  77.8617334  73.3447027  22.4133921  60.4255199  55.0146723  46.7045116
  61.0020351  55.7186842  47.0015478  60.8948994  54.2107153  46.9271612
  78.4130239  58.7208557  54.1402960  78.8247442  57.8845167  53.9229107
  77.6372337  58.7584734  53.5808611  35.7632732  43.7494183  27.7849007
  36.4071584  43.7729597  27.0770264  36.1366582  44.3076277  28.4669685
   9.0575862   8.6300182  47.1678972   8.6159921   8.9156115  46.3681078
   9.6025574   7.8935528  46.8906689  58.8200521  20.1863694  40.9468174
  58.2585287  20.7832003  40.4521322  59.4769001  19.8957908  40.3140879
  74.0355015  19.7388828  58.1240463  74.1317034  19.6198189  59.0689278
  73.6389637  18.9228499  57.8189564  62.5544977  60.8595419  53.4095097
  63.5059452  60.7711744  53.4658384  62.4012566  61.2578535  52.5527143
  38.5733318  30.1001024  50.0828648  37.6172352  30.0952244  50.1285219
  38.7912321  30.9569502  49.7160387  44.0980101  19.8618174  64.8366499
  44.6385288  20.6370354  64.9886560  44.2303610  19.3211114  65.6153345
  22.5989008  46.7010689  53.3343554  21.6457963  46.7835474  53.3024216
  22.7775192  46.3180017  54.1931868  54.8749828  55.8919191  53.1660461
  54.5817757  54.9813128  53.1334734  54.1599131  56.3881731  52.7677536
  55.9506941  49.9931431  49.9315262  55.3177023  49.3708515  49.5733261
  56.7478848  49.4783974  50.0570536   4.8823893  57.1369696  44.2810345
   5.7738090  56.8040419  44.3847799   4.8416817  57.4332523  43.3717537
  74.5156050  50.8188486  54.4987583  74.7849798  49.9015808  54.5465851
  75.2668190  51.2692642  54.1127014  12.0854211  33.0815482  29.5122838
  12.5234246  33.5567403  30.2183819  11.3293028  32.6716971  29.9324536
  34.9660850  65.2755928  31.4559340  34.8590350  64.3279409  31.5379882
  34.2089581  65.5586529  30.9432244  78.6049938  67.8512812  46.4333105
  78.5929394  66.9508076  46.1089182  78.5102272  68.3901024  45.6478643
  73.4197474  25.8122849  54.4037914  73.1831980  25.0946116  53.8162374
  72.6253414  25.9779835  54.9114275  14.7057474  52.3431349  62.6342487
  14.5184433  52.6155472  61.7359495  15.6287861  52.5613308  62.7631712
  11.1863089   4.7455460  52.1979094  11.8373251   4.2893916  52.7311373
  11.7024493   5.2920443  51.6053104  69.9670839  38.8619900  19.2752409
  69.2891932  39.4400311  19.6253347  70.7746744  39.1581464  19.6951449
  15.4733217  37.0310307  27.0162821  15.2398157  36.3661599  26.3684726
  16.1813295  37.5273252  26.6056132  70.7421398  36.5635920   9.0585119
  69.8183250  36.6368628   8.8188702  70.8996534  37.3103118   9.6362913
  68.4615517  40.5408096  61.2102795  67.6990891  40.1146507  60.8187771
  69.0686750  39.8239160  61.3938379  81.5936089   9.5951223  62.0318365
  80.8219814  10.1609468  62.0575905  81.2474918   8.7120616  62.1608257
  23.3510447  38.2837296  37.8481507  23.6874509  39.0469337  37.3784876
  22.5860167  38.6114979  38.3209419  68.4518194  73.1182909  38.9498639
  68.9736557  72.3728132  38.6529088  68.8242817  73.3473730  39.8013496
  60.3699112   8.5636783  66.6797256  61.0314512   8.7691838  67.3403025
  60.7994795   7.9371053  66.0973930  32.4216199  45.3244877  39.3094778
  32.5166512  45.2122164  40.2553082  32.2085571  46.2510490  39.1984749
  40.1467896  25.2690768  50.0068903  39.5285964  25.8255839  49.5332098
  39.6329355  24.5024681  50.2608538  25.2347708  31.9840550  61.4258575
  24.4205594  31.7078781  61.0051203  25.2671838  31.4799643  62.2389221
   5.9557730  35.4951882  59.8383617   5.0267828  35.2798367  59.9210215
   6.0764867  36.2567472  60.4055357   3.2317457  40.0862122  21.6357160
   3.8574845  39.3784833  21.7899919   3.6140385  40.8444548  22.0774794
  42.0434475   9.4408554  54.7164583  42.4433231   9.2857683  53.8607264
  41.1088181   9.2903239  54.5749092  39.9262285   2.7228925  50.3297472
  39.1025281   2.3307168  50.0400114  40.3835154   2.0134704  50.7812405
  69.2616606  11.0907364  54.5751858  69.6412802  11.7073131  55.2012491
  69.3127012  11.5426838  53.7329435  59.8341846  72.6101255  27.0215034
  58.9675808  72.5286579  27.4197364  60.4388475  72.3104048  27.7003121
  21.1560464  46.7452431  58.8158131  20.8717513  45.8405495  58.9459324
  20.9191346  47.1901417  59.6295500  28.9714432  48.8037586  16.2006605
  29.5888042  48.8212919  15.4693663  29.4828105  48.4701920  16.9378614
  72.5548649   4.7079927  65.2504110  72.8636074   5.3595060  65.8800459
  72.8161716   3.8678837  65.6274652  30.8532858  14.3749285  25.5043983
  31.4263034  14.1319525  26.2316179  30.2921057  15.0633347  25.8613348
  80.8630466  43.1094313  33.1710005  80.3306198  43.6773920  32.6140761
  81.0510159  43.6406851  33.9447403  21.0658884  34.8946261  61.3832188
  21.3355064  35.7571030  61.6989326  21.8475723  34.5392966  60.9601974
  80.4781818  38.7381101  35.1034975  80.7598305  37.8235364  35.1250076
  79.5549774  38.7103891  35.3548169  77.8383064  65.1522398  25.0105762
  78.5289383  65.7294464  25.3363061  77.1111298  65.7402897  24.8065019
  14.9920213  64.1486025  45.5856466  15.7027125  64.7759724  45.4531574
  15.3873968  63.2964706  45.4018450  28.2556701   0.6268489   7.4592626
  28.6041188  -0.2587208   7.3563981  29.0212655   1.1629888   7.6657796
  21.6260386  61.5730333  11.4759767  21.7307091  61.8155813  10.5559516
  22.1283507  62.2315025  11.9559085  81.8152714  16.9936478  57.2870731
  81.3624191  17.4764204  57.9785109  81.8876934  16.1013710  57.6259422
  77.1769142  41.7566442  42.9776525  76.3431215  42.1527386  43.2308912
  77.2400999  40.9671593  43.5151958  39.4575286  12.4274445  21.4391756
  40.0638008  12.6979053  22.1287489  40.0219774  12.1001339  20.7388210
   8.2638556  18.9253771  35.2794266   9.0238088  18.3597624  35.4164791
   7.8926116  19.0437567  36.1537242  13.0334663  18.6124635  21.1314631
  13.1128442  19.1464686  21.9218874  12.5173974  17.8542876  21.4054585
  14.2183673  54.5945454  11.0055327  13.5141563  53.9490700  10.9448719
  14.9922371  54.1362238  10.6779683  12.4287677  58.6921310  32.4004149
  11.5128314  58.4675884  32.5643492  12.6989305  58.0991840  31.6992307
  77.6023579  65.4432106  52.2851515  77.9986572  65.4583216  53.1563234
  77.2446775  66.3234949  52.1694279  45.1817846  17.8918707  47.0444345
  46.0259247  17.5328529  46.7710018  45.2298594  18.8195062  46.8133259
   3.2911763  47.6534176  51.0044575   4.0846509  48.0335140  50.6274223
   2.9795074  47.0404196  50.3386259  22.7939796  75.6220341  35.1937151
  22.1496105  75.7576227  34.4989967  23.4245992  76.3327026  35.0775075
  56.7209148   0.8007185  13.4779453  57.0914507   0.1095194  12.9291487
  55.9993315   0.3767444  13.9424884  74.1069365  55.7022142  49.2592144
  73.2175064  55.4151201  49.4658947  74.6693420  55.0133610  49.6133518
  64.1403484  42.7897215   6.2719548  63.6668396  43.3915281   5.6976271
  63.8903332  43.0563354   7.1566266  15.5462480   7.6838315  43.9341927
  14.6574330   7.7790266  43.5918808  16.0924017   7.5752115  43.1556368
  39.0463376  26.8717909  28.1226087  38.6062694  26.1714315  28.6043453
  38.7668753  26.7505622  27.2151732  49.7799826   2.9822087   4.5542476
  49.7046041   2.1522270   4.0834188  50.7133818   3.0622169   4.7507000
  12.6022565  64.7400999  52.1502304  12.9058123  65.6075764  51.8827105
  12.0858181  64.4274569  51.4074087  76.5472937  12.4356246   2.3961782
  76.4640045  12.1172845   1.4973155  76.6960001  11.6463876   2.9169703
  35.8242083  65.3100109  65.1571608  36.5327549  64.6847820  65.3097582
  35.5924106  65.1892662  64.2363358  56.4529037  20.1178050  14.9452007
  56.0562992  19.2606473  15.1008236  56.5223694  20.5110693  15.8151138
  10.8606315  60.3116512  42.2789764  10.3543997  59.6487236  42.7485371
  10.4680598  60.3392124  41.4064169  49.7612000  13.8732731  28.6566591
  50.6710625  14.0175986  28.9165664  49.4370508  14.7438538  28.4259105
  59.2676592  54.7750235  43.7576866  59.7518682  55.2284956  43.0676603
  59.6066809  55.1466322  44.5720577  22.4554968  46.1055326  30.7123899
  22.2057080  45.2095890  30.4862857  21.6239357  46.5721989  30.7958412
  20.0517726  48.3773422  60.5136824  19.2573535  48.8913488  60.6583548
  20.7175207  48.8097239  61.0485268  51.5385580  13.5592723   0.4962666
  50.7479191  13.1642449   0.8637924  51.3674355  14.5008373   0.5163665
  34.7391295  41.7285824  47.4689341  34.8995852  41.8510246  46.5332556
  35.5039406  42.1148443  47.8956556  73.1158447  71.7669916   2.4009122
  72.8498983  71.2861347   1.6171511  72.6422977  72.5969601   2.3449053
  59.7403097  31.3119650  54.5396662  59.3739748  32.1726322  54.3364954
  60.5597734  31.2778878  54.0461493  82.2726665  51.2214148  67.6206690
  82.5645195  51.3218522  66.7145964  81.9145284  52.0780671  67.8532978
  50.4028130   4.7498864  20.6600857  49.6070766   5.2798575  20.6135225
  51.0923958   5.3728396  20.8895135  14.8770690  39.1275167  51.9562674
  15.4038930  38.5066819  51.4530277  14.5647478  39.7579026  51.3071871
  50.0120878   1.2885189  24.2024183  49.6633911   2.1114877  23.8598347
  49.3818855   1.0214777  24.8715758  74.6160126  13.6474955  32.6296878
  74.7101355  13.7456703  33.5771751  75.0687122  12.8286862  32.4275899
  77.0031023  30.8586931  50.6407833  76.0658884  30.9287620  50.8222866
  77.3514175  31.7275405  50.8408117  27.7100015  48.8232517  27.1956849
  27.1669817  48.6347389  27.9610777  28.4161878  48.1784964  27.2383690
  16.4616537  51.0020256  37.3810363  16.3917339  51.0640097  38.3336663
  16.6862750  51.8887758  37.0991659  15.7126921  72.2738469  67.4206006
  15.5279606  72.9620874  66.7815140  16.3449162  72.6683033  68.0213780
  58.6625433  66.4591122  46.4648962  58.6487818  67.4138594  46.3978195
  58.4661245  66.1539268  45.5791664   9.7330171  76.5446949  51.2929249
   9.0944171  75.8839893  51.0248089   9.9409062  77.0177364  50.4871655
  74.9463272  51.9244909  47.9282570  74.2774439  52.4876595  47.5388145
  75.3893995  51.5257406  47.1793127  79.4635820  55.3617001  60.7443857
  79.3502712  56.1130333  60.1622438  80.2552509  54.9286032  60.4251432
  54.3426371  17.2700059  28.0693388  55.2186918  17.6287401  27.9276991
  53.8710308  17.9643118  28.5295129  68.3790541  10.8737910  18.9499176
  67.7000523  10.2072573  19.0544200  68.8425636  10.6204212  18.1516707
  15.4180610  16.3093674  16.8787944  16.0966790  15.8559930  16.3786316
  15.3672767  15.8280063  17.7045941  81.8518066  49.5813704  15.4690421
  81.4847851  49.2243338  14.6603060  81.1043167  49.6453142  16.0635173
  67.7888155  41.0682726  35.7968521  67.9867411  40.1793242  35.5021834
  67.0227480  40.9682751  36.3619804  56.8609238  36.4506793   3.6398900
  57.2759008  36.3771987   2.7804571  55.9363270  36.6059756   3.4469268
  42.6544666  64.8869085  23.8355470  42.7240419  63.9874697  23.5155439
  42.6070356  65.4203892  23.0422091  32.9649091  54.5453596  27.5677538
  33.0646849  53.9934015  26.7921114  32.5525832  53.9747715  28.2163286
  74.9511576  35.2011132  58.2926702  74.1072130  34.8918104  58.6217880
  75.3538799  34.4263029  57.9006052  50.5206776  70.2413464  16.6248584
  51.1920261  70.4808998  17.2637165  50.7694292  70.7107258  15.8285928
  10.4638910  56.2844229  14.2757297  11.0694420  56.3030720  13.5346544
  11.0196388  56.1076403  15.0347590  19.9239242  44.5662594  48.2954359
  19.8500764  45.3218412  47.7124500  20.5442953  44.8436117  48.9695644
  12.3718047  51.8957663  45.9312201  12.2518826  52.6047468  46.5630436
  12.6043034  51.1360121  46.4650249  52.0406151   3.7941465  40.5963612
  52.4588013   3.6653665  41.4476967  51.1081600   3.6582077  40.7645321
  46.4880705  75.9116220  22.1374226  45.7008982  76.4544678  22.1810508
  46.4020538  75.3054237  22.8731894  56.4142370   1.8850441   7.5410694
  55.5661631   2.1153408   7.9205048  56.5864944   0.9990042   7.8596473
  31.6541696  40.6105804  30.4256487  31.1230016  40.4868937  29.6390128
  31.0378766  40.9351540  31.0822034  35.3769040  48.9281416  29.8753810
  35.2613330  48.2468510  30.5377364  36.2205076  48.7274790  29.4700432
  12.9744041  45.7441378  42.1131229  12.3447919  45.1398897  41.7198086
  13.8260961  45.4406738  41.7988586   6.1448586  60.5372715   2.4170788
   5.5363399  61.1955833   2.7525735   6.8034387  60.4467964   3.1057867
  64.8349762  60.2970028  31.0563612  65.6036663  60.0529003  30.5408406
  64.6188402  61.1811781  30.7601285  10.7172370  71.2867022  35.1154184
  10.7507753  70.8174706  34.2817926   9.7894257  71.4857149  35.2410841
  70.2545118  63.4725142  30.8810639  69.6078157  64.1691732  30.7684565
  70.2567530  63.0100441  30.0429988  20.8227825   2.7399865  20.9401798
  20.4996228   2.3255345  20.1401615  20.2030706   3.4495863  21.1094642
  22.8675580  60.2300406  46.6047525  23.4660769  60.8246088  46.1525393
  22.0653224  60.7394028  46.7196465  35.4850149  34.5054460  57.4138117
  35.3709912  33.6380982  57.8023195  35.1972342  34.4013500  56.5068531
  33.1953120  63.6811209  33.9590001  32.3257351  63.4813166  33.6123800
  33.2126951  64.6357775  34.0265179  34.2202973  20.0492764  61.7916727
  34.6207523  19.2043638  61.5867567  33.7154722  19.8880315  62.5887823
  52.6120281  49.5202446  16.4112043  53.5487843  49.5396042  16.6070235
  52.2230673  50.1269388  17.0411754  14.1714859  68.7686825  37.9689312
  14.5990491  69.5706081  37.6683640  14.7199249  68.0623960  37.6274610
  19.3090391  58.2930708  15.3572083  19.1062593  58.2883930  14.4217455
  18.9616287  59.1270638  15.6734240  17.8726721  27.2921300  37.9145265
  17.4872231  26.7837334  38.6281061  18.0059981  26.6558599  37.2119474
  31.4859867  13.6397719  39.8509383  31.0100651  14.1996789  40.4643202
  30.8201838  13.3450878  39.2295694  57.5827932  49.5893621  55.5207729
  56.6387415  49.7227669  55.4358816  57.9667807  50.4303598  55.2727604
   0.8749707  58.7921906  50.9273815   0.3644116  58.5687780  51.7056179
   1.0471280  57.9510260  50.5042648  27.1512389  17.6010585  52.9685736
  26.7449808  18.2187700  53.5765362  27.1745658  18.0675673  52.1330738
  23.6269927  15.2937174  64.6377373  24.0256500  15.2366185  65.5060959
  23.7557507  14.4247806  64.2574739   4.1374558  39.9072886  54.7464657
   3.8228217  39.9072123  53.8424540   3.6356309  40.6008625  55.1746702
  14.0271175  34.4637203  19.2697358  13.6852074  35.2889585  18.9257705
  13.6909962  33.7970018  18.6707866   9.2527670  77.3736429   6.0127121
   9.5296919  77.6229906   5.1310259   8.6084098  78.0375814   6.2581193
  11.3810372  62.4193716  44.0346909  10.8794487  61.9284296  43.3838320
  11.6665351  61.7584276  44.6654654  59.3952560  21.9242644  62.4774122
  58.7815142  22.2728515  61.8308544  58.9508438  22.0414829  63.3170509
  75.5054998  41.2563944  28.3024406  76.0193539  41.5124273  27.5365233
  75.1268435  42.0755482  28.6215615  61.8556547  70.5735111  53.1337500
  61.0680962  70.3553534  52.6353645  61.5980482  70.4634094  54.0490341
  25.6815100  60.6229353  39.8489499  26.2888193  60.8268452  39.1377330
  26.2393379  60.2911997  40.5525208  37.9346323  61.2712717  14.7455859
  37.4091887  61.4269590  15.5303800  38.7509823  61.7445898  14.9061322
   5.3548694  15.4104125  65.2187395   5.4772317  15.4114127  64.2693901
   5.1889765  14.4935238  65.4378843   3.6068577  18.3991265   8.5293132
   3.1014639  17.6574886   8.8621527   3.6757186  18.2389331   7.5881284
   2.2650953  56.5142822  56.1604691   2.0923266  56.5372753  57.1016645
   3.1752008  56.7988348  56.0769939  68.8425398  58.3086157  65.0242472
  68.7782860  57.4132824  64.6918535  67.9578781  58.5165644  65.3248501
  76.7449188  53.3601284  14.5653164  77.1594906  53.2802391  13.7062597
  76.3267279  54.2210102  14.5503211  22.7297306  63.4060955  51.0408878
  21.8384981  63.0632639  50.9745169  23.1380701  62.8801537  51.7285490
  60.9597826   2.0815261  56.3453436  60.6449175   2.9514480  56.5909672
  60.2688932   1.7257068  55.7865095   4.3701860  38.7475300  67.0420170
   4.9440777  38.8342452  66.2808561   3.5075110  39.0125513  66.7229748
  36.0963750  68.8330317  46.1332941  36.9885445  68.5039091  46.0239935
  36.1464477  69.7523355  45.8713627   5.6314552  54.1593361  58.8557768
   4.7085625  54.3577814  58.6972857   6.0945654  54.5785379  58.1304979
  64.4666815  55.9702444  31.8784475  64.1545439  55.5818462  32.6957297
  65.3455257  56.2884808  32.0848179  26.6348600  69.0501881  35.6843829
  26.5056109  69.1108179  36.6308761  26.0767198  69.7381544  35.3218746
   6.1091775  12.8795564  11.2569070   6.6439658  13.4459865  11.8131351
   6.3151044  11.9920743  11.5505052  16.2449431  53.5705996   9.5909631
  16.0855985  53.6802673   8.6535120  16.7685986  54.3335485   9.8357642
  37.6802731  55.9137058  13.2331002  38.4335065  56.3545990  12.8400505
  36.9230962  56.4095020  12.9214919  16.0558033   3.5348529  31.3372231
  16.7610645   3.7958872  31.9294214  15.3568411   3.2311106  31.9163823
  74.7026348  52.6546097  56.8682957  74.0041447  52.5258636  57.5099897
  74.4467688  52.1106768  56.1233807  27.4675798  43.2614565  59.6461868
  27.1556973  43.3512783  58.7456894  27.8601408  44.1104507  59.8495007
  35.0963426  24.5134234  58.8270092  35.8068132  24.7051740  58.2148886
  35.3837276  23.7254643  59.2882729  28.6244678  73.7033939  51.7692423
  29.3625283  73.9924622  52.3058414  28.3225274  72.8987789  52.1907473
  81.8994045  76.9642210  59.7534800  81.7367363  76.7867517  60.6799126
  82.8122139  77.2505045  59.7211266  67.6371876  72.3775042  -0.0736326
  68.1990877  71.8169583  -0.6086868  67.5587574  71.9126834   0.7594496
  47.7249670  31.7743945  47.3993731  47.1740437  32.5206161  47.1630049
  47.1524954  31.0135198  47.3015070  65.5345678  76.2772131  37.1744585
  65.7271004  76.3841343  38.1059790  66.2511587  76.7286348  36.7284203
  31.4599514  24.8152018  35.2787614  30.6750965  24.7420096  35.8217883
  32.1473551  25.0872946  35.8867693  29.1415524   7.4634331  63.4220219
  28.7200999   6.9556147  62.7286720  28.8873839   7.0204765  64.2316008
  53.6075640  18.1359363  36.7521572  53.5105038  18.1234646  37.7043414
  53.9526653  19.0073872  36.5579748  79.1707468  50.8878183  23.7558579
  79.4278288  51.6738749  24.2377877  78.5570431  51.2035227  23.0925870
  21.3037515  34.8312330  37.3132253  20.5199099  34.3494606  37.0491791
  21.0734725  35.7515526  37.1859002  73.8878918  68.5821772  43.6067104
  73.3989859  69.3053770  43.9993715  73.8241386  67.8740835  44.2476225
   7.0891094  47.2153187  35.7179761   6.7880780  47.0550537  36.6123605
   8.0416751  47.1356344  35.7679772  72.4323049  38.7518861   1.2833315
  72.0193687  38.9809058   2.1159559  73.3690897  38.8708943   1.4398437
  11.3920307  31.9329667  60.6566095  11.6574919  31.4506459  61.4396334
  12.1676838  32.4375415  60.4116631  74.0954256  57.6876163  55.1490355
  74.3460035  56.7643118  55.1798487  74.1820383  57.9896069  56.0532093
  53.9809227  11.8935180  27.5047040  53.9310312  11.0625398  27.0322442
  53.4063292  12.4821830  27.0152688  34.8188162  61.0019541  40.2549744
  34.3529272  60.1714993  40.1573658  34.1404057  61.6701078  40.1571703
  42.9650831   8.0871046  52.2624159  43.5147285   7.3339474  52.4789190
  42.3667622   7.7615392  51.5899181  26.1010456  47.1624613  29.2704225
  25.3664184  47.5208950  28.7723494  26.4532423  46.4691401  28.7123060
  60.1630545  28.3487892   3.6372271  60.3589630  29.2818189   3.7226847
  60.8769464  27.9107356   4.1005817  15.4588079  69.8347187  43.8186312
  14.5739889  70.1977587  43.8577414  15.9125435  70.3784657  43.1746626
  56.3709641  29.2385840  59.0642929  57.2648954  29.5379782  59.2300749
  56.4458990  28.2867455  58.9962959  58.3760118   7.9983062  33.7962651
  57.7154112   7.8677917  34.4765639  57.9273510   7.7749753  32.9807520
  27.8935194  37.5298929  16.9750798  27.1066046  37.6341081  17.5099981
  27.6132417  37.7602434  16.0892951  80.7327080  57.5343180  11.3181090
  80.0076866  57.3439217  11.9133651  81.4935303  57.1227503  11.7279911
  49.3951797  68.3703709  28.4088039  49.7628832  67.8130960  27.7228975
  48.5916615  67.9236174  28.6752653   6.5223771  76.6372347  12.5248289
   6.3530540  77.5791931  12.5083554   7.4226159  76.5612030  12.8410900
  40.2774811  14.3160677  41.1922979  41.0795021  13.8266301  41.0094166
  39.8891020  13.8674200  41.9433689  16.8824220  40.5741119  19.5833278
  16.3768721  40.7907391  18.7999237  17.7956223  40.6726837  19.3139219
  62.9515076  56.8872976  15.0987816  63.4624672  56.4152002  15.7562625
  62.0980263  57.0225620  15.5104911  31.0287642  76.7096138  66.5318298
  30.7871842  76.0452223  65.8865023  30.7774711  77.5396204  66.1266470
  13.8788998  64.2133045  42.8403330  14.1257560  64.2380095  43.7648249
  12.9366267  64.3816900  42.8394556  55.7368517  19.4130576  66.2966871
  56.6301632  19.3282759  66.6299105  55.2300406  18.7810504  66.8065310
  30.6165290  38.5790133  13.3982229  30.0404024  39.0257120  12.7779257
  30.5970335  39.1285801  14.1816938  55.5307913  53.7398815  66.3112736
  54.6111679  53.8217735  66.5638876  55.8115196  54.6377754  66.1346054
  28.8655829  72.3081923  58.8611078  27.9770947  72.6280260  59.0177059
  28.7908626  71.7694664  58.0734396   8.8171464  55.9410191  50.2975082
   8.9247555  55.2087069  50.9044409   8.2794869  56.5718555  50.7762527
  45.6303358   1.3918394  42.9045248  45.0607204   1.8493204  42.2860765
  45.2123165   1.5211156  43.7558699  30.6987619  66.6095877  54.9892902
  29.7596192  66.7433214  55.1171970  30.9390140  65.9551334  55.6451845
  66.3308397   0.3972696  52.3533535  65.4033819   0.1990675  52.2238445
  66.3337389   1.2099384  52.8591108  79.3819857  41.0412502  34.2969918
  80.0566959  41.6583252  34.0137696  79.8694468  40.2719450  34.5915818
  10.8253455  51.4771652  66.3528728  11.6097617  51.1841059  66.8165970
  10.8689070  51.0347176  65.5051851  79.4537306  46.7551136  45.2447271
  79.7420216  47.2931957  44.5074415  80.2582359  46.3627291  45.5838871
  37.5495410  14.2333829  23.6042213  37.4212623  13.4271598  23.1044436
  38.4853411  14.4182277  23.5245681  38.4297156  73.7185717  25.8289456
  38.8803458  72.9776716  26.2341976  37.5041246  73.4753466  25.8477807
  46.6083908  27.6177001  41.3091946  46.7284727  28.3131886  41.9558096
  47.3273134  27.0083046  41.4765835  25.0809741  63.2537556  56.5093708
  24.3487573  63.5594845  57.0447397  25.1029801  63.8571692  55.7666492
  30.9961891  61.7153788  27.2133589  31.1793351  62.2318268  26.4285183
  31.4216566  60.8734941  27.0507693  56.5151167  72.5299597  37.2261453
  57.2849512  73.0269814  36.9494581  55.7965660  72.8936529  36.7087984
  27.2977233  43.7289906   6.1224222  26.4342856  44.0574074   6.3731140
  27.8601599  43.9409590   6.8673837  75.2255774  26.6283703  58.6636734
  74.7875834  27.4496770  58.4404087  75.0427198  26.0503483  57.9229403
  77.8791666  55.5077791   0.4788150  77.0253658  55.0751686   0.4888080
  77.8653002  56.0827684   1.2439480  37.3159003  56.0427427  37.1986985
  37.7036643  55.4740238  37.8638554  37.2740293  56.9038153  37.6146626
  46.2785721  59.5776653  33.2365727  46.7154264  58.8002062  33.5843515
  46.7022896  60.3105068  33.6833882  80.8997250  31.3695240  48.3032608
  81.7874336  31.6506863  48.5249758  80.8434582  31.4802170  47.3541498
  28.6857653   5.9148496  45.9471130  29.5740843   6.1236197  46.2361383
  28.5762715   4.9880412  46.1598778  51.9942999  12.9888260  65.6283045
  51.4633989  13.5623527  66.1809731  51.3713264  12.3549855  65.2728033
  73.7585497  18.8591719  37.1543264  73.6279583  18.9383256  36.2093854
  73.6933136  19.7564888  37.4811244  72.3192215  56.4731169  39.6530151
  72.0221329  56.1296892  38.8103843  73.2561922  56.2784958  39.6740627
  21.7369175  64.9379206  55.1766014  21.3306594  64.8363018  54.3158722
  21.0044909  64.9082804  55.7921553  76.9535065  25.2227402  17.8297722
  76.2893486  24.6835828  17.4003112  77.7593994  24.7110200  17.7597284
  11.5299904  77.4989319  64.8777819  12.3647749  77.6450300  64.4327879
  11.2592423  76.6244936  64.5979738  32.3899651  75.0376940  50.1700830
  32.9605222  74.5133877  50.7320452  31.5040731  74.7575617  50.4001999
  26.7239428  70.3837442  61.7171669  26.3196254  71.2451220  61.6132641
  26.3626266  70.0468922  62.5370502  75.6377745  58.7168026  41.8676043
  75.7618141  58.2055140  42.6672506  74.6881580  58.7582922  41.7547369
   3.2849583  57.0343733  37.4856019   2.5482804  56.7747164  36.9323254
   3.9586136  57.3205185  36.8687224  45.1583290  64.0365171  59.6660852
  45.6406403  64.2187691  60.4725552  44.5390749  64.7622490  59.5881510
   8.3302200  66.1667824  26.6970491   8.6757618  65.3184891  26.4191484
   8.3972049  66.7194271  25.9183741  22.1638608  70.5450010  29.8958182
  22.3761439  70.2567768  29.0080714  21.2786889  70.2147770  30.0496173
  31.5629387  50.9867525  10.5252242  32.3641610  51.5037155  10.4414499
  31.3173628  50.7778311   9.6239597  11.9522750  35.2815366   1.4072673
  12.6026607  34.8388648   0.8620419  12.1374595  34.9772406   2.2957170
  78.4863997  51.0584927   3.6574647  77.5324869  51.1032772   3.7228081
  78.7502098  50.4959917   4.3856347  23.7479210  56.8069506  30.8274412
  24.3198395  57.5661087  30.7141948  22.9824209  57.0009565  30.2865148
  78.3858585  66.1870432  39.2048573  78.1178141  66.9862986  39.6582556
  78.2671309  65.4927206  39.8529744  12.8394473  65.1847839  46.8811846
  13.5321248  64.8584843  46.3067627  12.9190648  66.1375523  46.8350935
  23.6439013  34.9302864  53.6327028  22.7571726  35.2357364  53.4412813
  23.5279274  34.2730570  54.3188763  73.7339258  29.0249252  65.6378508
  73.5053253  29.0087652  66.5672112  73.0025482  28.5858679  65.2036285
  53.2462883   7.1744066  61.6681671  54.1976929   7.2531796  61.5985346
  53.0147219   6.4981025  61.0315943  10.2822232  72.5614262  56.5860891
  10.1914465  73.2101774  57.2840261   9.4262880  72.5490570  56.1577749
  18.5893834   5.0073618  46.8806505  18.1187582   5.7381320  46.4797497
  19.2481458   5.4230648  47.4369383  10.7775247  35.6710887  61.9368553
  10.9018052  36.6197371  61.9077063  10.5625427  35.4298973  61.0358334
  12.6051843  21.7102003  48.7566090  13.4813166  21.3316536  48.6836243
  12.1537387  21.4240837  47.9625273  24.7171116  75.3084993  49.2423630
  24.8817301  74.5243454  49.7660446  23.7847996  75.2634764  49.0302324
  32.9795766  25.0019860   4.0797877  32.2603178  24.4507194   4.3880144
  33.6691737  24.3834090   3.8388556  13.7147629  76.2655735  17.6699054
  12.8133631  76.5873146  17.6560509  13.9398432  76.2236214  18.5993207
   7.7202541  45.4587126  50.9430504   8.4103841  45.1836252  51.5466070
   6.9690728  45.6440687  51.5066147  68.3933973   6.2304568  39.6273255
  68.5129595   5.4925060  40.2251244  69.0923405   6.1307722  38.9809728
   8.1734473  30.7605910  24.1055393   7.8053898  30.2267241  24.8096347
   8.0996960  31.6603780  24.4236231  32.3685098   3.6356676  29.6309805
  33.0348301   2.9689395  29.7974873  31.9015670   3.7204689  30.4622459
  14.0221429  16.4484394  34.2049527  14.8411119  16.1076152  33.8452840
  14.0954471  16.3020134  35.1480436  18.0374408  62.6500845  46.3592768
  18.7312388  63.2406235  46.0657835  17.6080132  62.3654366  45.5525589
  59.0290356  50.8819771  11.3535964  58.5712433  51.1678457  12.1441257
  58.5170221  50.1381779  11.0360539  45.3241634   6.5097868  41.9459772
  45.5943441   6.3327450  41.0449266  44.8511505   5.7217717  42.2134113
  29.6282887  64.7936296  42.5024128  30.3139853  64.9714994  43.1461620
  29.9496746  64.0362406  42.0132208   3.5448796  46.6830063  41.1615086
   4.4181079  46.3475943  41.3644981   2.9802904  46.3045168  41.8354654
  50.7742357  19.0494561  61.6893291  51.5811968  18.5970068  61.4437008
  50.1210928  18.3532333  61.7593718  69.1039419  60.0897074  13.0512059
  69.5112991  60.7591486  12.5015390  68.1893826  60.3628826  13.1232142
  77.1899319  17.9983604  35.1497316  77.2678614  18.5027909  34.3399715
  77.9858971  17.4674821  35.1787472  13.6016238  76.2760401  41.1681366
  14.1120720  75.7198524  41.7566347  13.1204712  75.6609583  40.6146002
  25.2823591  54.4722939  26.1318016  25.9304261  54.4090891  25.4302001
  25.5836940  55.2034903  26.6710401   4.0165582  47.0844793   7.3680264
   4.1474807  47.7754259   6.7186517   3.3781490  46.4955568   6.9657397
  52.0653915   1.0494947  38.3324361  51.9868565   0.2436566  37.8218579
  51.5272093   0.8945973  39.1087103  12.2624421  55.4198217  49.1085625
  13.1043112  55.4227924  49.5640612  12.0685256  56.3449383  48.9576149
  24.3412066  71.9747686  52.7557802  24.8825240  72.1335888  53.5290766
  24.1057396  71.0488319  52.8143072  50.6850052  54.8315477   9.4257408
  50.1450109  55.6160545   9.5215875  50.2302456  54.3067837   8.7669212
  82.2085857  77.0493126  65.5684137  81.7977333  76.7190647  66.3673925
  81.7905045  77.8969336  65.4168367  11.0031068  55.3444338   2.5687414
  11.0249627  55.7796097   3.4210172  11.4026737  54.4890070   2.7262840
   7.0775276  53.6749029  63.6837053   6.1287171  53.7374020  63.7936354
   7.2654939  52.7388811  63.7526989   8.9335710   8.2868606  57.0251513
   8.1601053   8.6744833  57.4347019   8.8615680   8.5276091  56.1015224
  41.3927698   4.9010655  46.6399384  40.5412436   5.2335954  46.3561010
  41.2655830   3.9559007  46.7219067  25.4549193  61.5540028  31.9259095
  26.2256932  62.0805740  32.1377277  24.8684502  62.1595001  31.4724112
  68.3570480  57.6258326  53.1959772  67.6474667  57.4583435  52.5757599
  67.9127407  57.8654861  54.0092325  17.0108664  41.4420605  55.6286001
  17.4125957  41.1221552  56.4363813  16.3251674  40.8035040  55.4329109
  33.0705261  24.6226883  52.0888519  33.1088161  24.0645981  52.8655767
  33.9146519  25.0738239  52.0762253  35.7902575  69.9337816  11.5360165
  36.1813116  69.8417664  12.4048328  36.4887476  69.6835804  10.9312510
  35.6577015  72.9859495   5.4915857  35.2496457  72.8141832   6.3402420
  35.3211093  73.8439751   5.2332634   0.4166564  76.4289713  43.5291004
   0.5798876  75.5657005  43.1491613  -0.1624124  76.2581396  44.2718840
  24.2223334  43.9715528   0.8188657  24.6823120  43.6827469   1.6070563
  24.2340684  44.9272394   0.8713260  62.8545475  45.5682707  64.6834517
  63.7335062  45.8371830  64.9505663  62.9448891  44.6417570  64.4606400
  21.9130564  25.7643318  32.8575087  22.0344543  26.4824295  33.4786582
  21.4384723  26.1584067  32.1255898  40.3109598  14.5336211  18.0030167
  40.5273724  13.6848533  18.3890092  39.4366670  14.7330534  18.3377874
  31.7727757  54.6110010  31.8521357  31.6508150  53.8347960  32.3988223
  32.1215296  55.2724409  32.4497104  45.5335283   9.2226279   7.2986233
  46.1180353   9.7572541   6.7612600  45.9393692   8.3557403   7.3042345
   8.0045003   6.3546187  60.3617430   8.7676144   6.6647637  59.8742008
   7.8520918   7.0297813  61.0229254  23.3222938  77.0726538   0.3770160
  23.3133388  76.6289330   1.2251098  22.5663829  76.7147541  -0.0885401
  18.5914075  46.8314457  32.9578876  17.9031980  46.8956614  32.2957134
  19.3953776  47.0582438  32.4905252  76.6358519  28.7922168  26.9816065
  76.3843441  28.0814886  27.5713873  76.3663435  28.4903288  26.1141610
   3.3396092  72.2313976  42.2396088   3.5115507  71.3015413  42.0911503
   3.6468107  72.3923159  43.1317806  72.2240496  44.0678692  31.4651680
  72.9925013  44.0362930  30.8953285  71.6343689  44.6890974  31.0378647
  44.2346668  21.7856240  42.5778294  43.6474752  21.0648966  42.8058434
  44.4440317  21.6412067  41.6550398   4.4420871  43.9604664   2.4416372
   4.5634592  44.9099064   2.4492399   3.6416098  43.8253880   1.9344668
   3.5158962  72.1609640  61.7107868   2.6255718  72.1123219  61.3626671
   3.8990867  72.9263878  61.2823868  39.9882555  60.5875158  38.9733100
  40.8525181  60.2508736  38.7367558  39.5660782  60.7739449  38.1347156
  45.5238199  27.8842402  10.4560137  45.6699467  28.2892728  11.3108981
  44.6116209  27.5952506  10.4806793  32.1269035  10.1203930  24.1118169
  32.6959324  10.5770695  23.4922314  31.6929436  10.8205497  24.5993519
   0.0282544  67.8287363  49.2220068   0.5479136  67.1721077  49.6857166
  -0.5712018  68.1715631  49.8848486  57.9394102   3.5828280  43.0353260
  58.0473661   3.3982408  42.1023178  57.0875502   3.2066935  43.2568932
  75.6983423  21.1492205  16.8056262  74.9416161  20.5836272  16.6516769
  76.2634802  21.0050344  16.0466409  33.4464908  74.7733116  11.0667074
  33.7651682  75.2582216  10.3054333  34.1925001  74.2395163  11.3401330
  61.9950533  62.4178839  21.9735813  61.9425249  61.8684244  22.7556062
  62.0673275  63.3102465  22.3122597  69.3021917  50.6312943  26.5596056
  68.5086775  51.1404085  26.3941526  69.9943018  51.1122608  26.1058545
  22.9479194  57.6270676  24.8061037  22.6535869  58.5267544  24.9481010
  22.1463442  57.1048975  24.8385024   2.0980570  77.0600462  26.9189954
   1.9136995  76.2933397  27.4615884   1.3057753  77.1788549  26.3951588
  13.6711705  72.1910906  39.6590137  13.3752131  73.0193090  40.0367594
  14.3993747  72.4350786  39.0876818  69.4565630  28.0370688  48.7486792
  70.0304604  28.5435700  48.1739426  69.0675879  28.6879992  49.3328190
  77.7363396  56.5933943  17.7187622  78.6716890  56.4068556  17.7997220
  77.6622868  57.5301743  17.9009533  24.0111661  65.7204723  58.4786844
  23.2839823  65.2542639  58.8910961  24.7950816  65.3396654  58.8745308
  59.4353819  11.2937474   0.5043903  59.7833538  11.8029451  -0.2276385
  60.1832390  11.1738741   1.0896870  55.1001215  24.1638017  39.5462394
  54.8916101  25.0097895  39.1499281  54.6846056  24.1940999  40.4080153
  21.5303755  49.2308283  56.8309689  20.8156347  48.9158487  57.3842955
  22.3053050  48.7733507  57.1572113  31.2390089  39.9383426  24.9139762
  30.6697083  39.2210555  24.6353531  31.0238767  40.6588078  24.3216228
  73.8539648  73.0173731  39.2272735  74.4070387  73.3813334  39.9185586
  74.2723751  72.1876287  38.9977312  51.3597679  38.9409018  65.3626966
  51.0138702  39.1831994  64.5036983  51.0186577  39.6103334  65.9557724
  81.5513420  28.5048556   1.3350092  80.8344078  28.8190675   0.7840933
  81.2987518  27.6121855   1.5707386  22.5853825  67.1886110  17.5879681
  22.5447798  67.7231312  18.3809829  23.4805536  67.3017597  17.2684360
  12.5923336  69.7078991  29.3325973  12.8512645  68.7869740  29.3655896
  13.1935191  70.1474237  29.9339509  41.1952782  20.0960541  58.6974287
  41.1284399  19.5710051  57.8998804  41.8034840  19.6097565  59.2540598
  42.5747871  45.5305004   3.9802662  42.1781397  46.3165998   4.3556961
  42.2674179  44.8168230   4.5392096  40.6362629  57.4581289  32.6824903
  40.0109291  57.8473377  33.2938051  41.0731125  58.2072926  32.2773504
  76.0185146   6.9764125  31.6958475  75.4330587   7.2735971  32.3923779
  76.7542839   6.5736413  32.1569872  29.4720817  57.0815611  26.9167733
  29.0576792  56.8295383  27.7419925  29.3604136  58.0312157  26.8729091
  43.1675911  73.1592083  38.2947636  42.7407837  73.9968920  38.1148934
  44.1010189  73.3684444  38.3289051  62.0327663  66.8895149  64.2324162
  62.1056366  67.8307343  64.3906116  61.1019754  66.7468691  64.0606356
  35.4087543   5.8775759  35.2830219  36.0999370   6.3627917  34.8323965
  34.9547315   5.4043132  34.5858002  31.4765286  21.7464876  52.4151897
  31.9959497  21.8433881  53.2133389  30.8989835  22.5098062  52.4111319
  19.7840369  63.5631847  44.3860626  19.2914593  64.1600370  43.8227129
  19.9787796  62.8114986  43.8263512  38.3672333  74.6346474  41.4114666
  39.3000460  74.4575310  41.5327978  38.2147765  75.4515505  41.8864965
  22.1417475  42.0399714  52.3726368  22.8946733  41.4932251  52.5971365
  22.4679375  42.6291990  51.6924572  59.4751596  11.8054044  30.0013590
  59.8979187  12.5925636  29.6580124  58.6286497  12.1109819  30.3273606
  21.3919234  16.0058689  32.7760291  22.0755887  15.4460716  33.1440783
  21.7528987  16.8908346  32.8286171  42.6260948  18.0154073  56.5078115
  43.1381226  17.4745440  55.9065390  41.7265368  17.9421282  56.1889791
  43.3518171  67.9062223   6.8466997  44.1163349  67.5538111   7.3022765
  43.6896610  68.1927776   5.9981853  62.9214048  30.9309149  24.0406489
  63.1043005  31.3107514  23.1812835  63.7051773  30.4227161  24.2496109
   8.0836105  20.2265096   9.9659038   7.3438048  19.6782255   9.7045529
   7.7030998  21.0947084  10.0988448  37.0412493  40.1764107   7.4412173
  36.8928933  39.4158769   8.0031884  37.9712129  40.1321507   7.2188669
  77.5806093  25.3553939  66.3491917  77.3295832  24.8053598  67.0912695
  78.4953451  25.5816698  66.5173912  47.3475266   8.4255177  17.4286723
  47.0341444   9.3122870  17.2507298  46.6416407   8.0182791  17.9307818
  18.4032214  11.4457619  28.7304640  18.1722939  12.2524095  29.1911435
  18.7854075  10.8852923  29.4057703  60.5986643  57.2031021   9.5956069
  60.2719879  56.5095186   9.0224981  61.5509844  57.1124411   9.5625329
  54.6896458   2.6465297  12.0677423  55.3510952   3.3312231  12.1672904
  55.1826763   1.8277559  12.1203303  39.2744613  69.3501902  34.5870996
  38.3862925  69.6746206  34.4383335  39.1525531  68.4556437  34.9051499
   0.6783482  25.4495215  21.9176316   1.5758273  25.3303981  21.6068721
   0.4918859  24.6568322  22.4207306  54.2405367  42.5893641   3.2620460
  54.3236113  41.6578627   3.4661028  55.0090361  42.7867317   2.7266192
   0.1596768  28.8238525  13.4793782   0.4270680  29.7327614  13.3429217
   0.4748280  28.3622384  12.7023172  23.1152654   4.8427981   5.8581513
  22.4683285   5.2522534   5.2836514  23.8574195   4.6510768   5.2848411
  69.1531660  11.6228949  66.3706615  68.8060285  11.2317978  65.5689310
  70.0887729  11.4218270  66.3495982   7.2727847  24.9835467  35.7570148
   7.8465688  25.6058168  35.3100419   7.4807912  24.1379166  35.3596783
  61.4235449  75.7206059  37.1039414  61.9208813  75.2550220  36.4315462
  61.5810394  76.6466999  36.9201446  21.8144894  42.6773691  46.9235897
  21.1483645  43.3342552  47.1260977  22.6455069  43.1119013  47.1154928
  75.5355167  34.6164727  45.9345150  75.5301619  34.6951294  46.8884659
  75.2778053  33.7098765  45.7674932   0.4114889  57.8433037  60.7291603
  -0.0099461  57.4872065  61.5113497   0.8838158  58.6149120  61.0418224
  49.7650623  70.8620214  27.0047522  49.5764780  70.3029156  27.7584553
  49.4406033  71.7256165  27.2600174   7.6392126  14.3866086  48.8198662
   7.3096210  14.5409203  49.7051859   6.9642442  14.7495711  48.2463646
   2.1098675  60.0777388  23.4057021   1.2084153  59.7611237  23.3476400
   2.3958087  60.1546431  22.4954534   1.7619911   5.8647233  39.7113228
   2.4184859   6.4807177  39.3860579   1.4437383   6.2602186  40.5228233
  47.4091387  42.1068811  15.4422760  48.1359863  42.4906158  15.9328544
  46.8557453  41.7030191  16.1107707  22.0306087  59.3254900  27.9245901
  21.5263081  58.8937521  28.6141658  21.4190221  59.4010019  27.1921349
   7.9888213  50.2856159   9.8103315   8.7857616  50.7532930  10.0601172
   7.4533063  50.2841997  10.6037128  31.7978811  19.3939221  46.3211679
  32.3571920  19.8905158  46.9184971  31.2564278  20.0570703  45.8930397
  79.0239859  12.3227406  23.6431170  78.7901878  12.4519444  24.5622897
  79.5143890  13.1103480  23.4077239  11.7589021  32.3523021  22.2635198
  11.3194501  32.2182059  21.4238000  11.4485931  31.6331649  22.8137755
  28.6550403  30.4311776  55.0711393  29.5270419  30.5499983  54.6946716
  28.8177514  30.0749683  55.9445667   8.4589934  26.6614270  12.6756775
   8.0095226  25.9477973  12.2229743   9.3496859  26.6438031  12.3255503
   0.8767922  12.1581459  24.7863483   0.0822194  12.4233091  25.2495670
   1.5795834  12.6423419  25.2197790  75.0860453  23.3221126   5.9350955
  74.1407871  23.3651304   5.7906413  75.2159071  23.7265778   6.7928696
  80.9200287  37.8481722  38.9081573  81.7725945  38.0816603  39.2753625
  80.9398651  36.8932700  38.8449240   3.2181871  38.2323480  35.9942055
   3.9009646  38.3982134  36.6442347   2.8582421  39.0975094  35.7988334
  73.5055017  21.6473174  43.2962608  73.8550758  21.3301706  44.1289949
  74.1817522  22.2361708  42.9613352  53.3585548  51.1769581  48.7815905
  54.0420532  51.1121368  49.4485712  53.1651354  50.2691126  48.5478401
  73.3052111  43.2283688  35.2580953  73.1653261  44.1551113  35.4525566
  72.4236774  42.8685331  35.1598644  29.6847224   4.4716612  54.6626139
  29.9581575   4.2465746  55.5518818  28.9380455   3.8983697  54.4892883
  63.3224344  35.3804588  11.9061983  62.8049326  36.0714102  11.4926660
  62.7958393  35.1028728  12.6557803   4.4784716  20.3161407  41.5075684
   3.5742438  20.4319429  41.2156868   4.4052079  20.1168156  42.4409151
  27.3875546  36.9074702  55.5782843  26.7906427  36.1736536  55.7247257
  27.2262502  37.4979568  56.3141775  20.6918740  52.7804518  64.8431921
  21.4424944  52.2012854  64.7113895  20.6664300  52.9281759  65.7885838
  19.6474874  25.5583715  39.9892330  18.8560247  25.1898623  39.5967746
  19.3253136  26.1320353  40.6844616  12.6438379  65.0604248  19.6647525
  12.1951938  64.4929552  19.0379107  12.3869061  65.9470940  19.4116998
  45.6484938  23.0066776  18.0912662  44.8552275  23.2087207  17.5951445
  45.8477068  23.8148284  18.5639596  19.5068026  46.8974638  46.7419052
  19.6304023  46.6403627  45.8281994  19.0825975  47.7542162  46.6943550
  30.5301738  50.7909584  35.1403117  30.1365590  50.7297564  36.0106874
  29.9430013  50.2879620  34.5759940   6.7082995  51.2949276  56.0905504
   7.0474958  51.1747265  55.2035761   7.4344468  51.6898966  56.5731907
  39.7625303  41.7692041  59.2697859  40.0481606  42.2776604  60.0288105
  39.3728852  40.9789228  59.6437645  18.6405218  21.6866851  10.9550047
  18.1146646  22.3702908  11.3702047  19.4363093  21.6415548  11.4850211
  35.8025336   0.3449249  33.0473471  34.8464084   0.3631704  33.0888844
  36.0003686  -0.2936255  32.3622584  45.6034660  60.2973223  63.6452389
  44.7904301  60.6641102  63.2978678  45.5846930  59.3781853  63.3786488
   3.1359208  38.9366674  31.7304254   3.5134628  38.6826897  30.8882928
   3.7339112  39.6025276  32.0699382  60.9459400  25.3069592  22.6469207
  60.0678396  25.3507471  22.2684312  61.4637375  25.9173107  22.1219563
  23.7506247  60.3102446  18.7844431  24.3958998  59.7683907  18.3302975
  23.8695526  60.0988913  19.7104108  39.0671992  36.3609052  23.5628438
  38.4932089  35.7617283  23.0856061  38.5729146  37.1792340  23.6103082
  14.0724182   7.9197627  25.5626130  14.5303106   7.7968091  24.7310781
  13.5825992   8.7341428  25.4481792  80.0053787  31.6508269  28.0244493
  79.6924400  30.7553864  27.8960514  80.8467674  31.5490150  28.4693456
  15.8906400  15.4752052  23.5364151  15.3273678  16.1327386  23.9445901
  15.3074431  14.9885082  22.9539704  79.3538570  29.5489049  49.9208117
  79.7593737  30.1448464  49.2910147  78.4743786  29.9027228  50.0533533
  22.9191184  47.6116467  25.5691218  23.8727427  47.6719046  25.5125475
  22.7342391  47.6145554  26.5082932  52.4630070  77.6837587  15.9327161
  52.8657722  77.6113224  16.7980289  52.2097158  78.6041784  15.8627152
  22.2266388  17.8277659  14.0021265  22.4375272  18.6643863  14.4166410
  22.3273063  17.1819031  14.7013819  11.0734200  27.5643086  31.4700079
  11.3908923  28.2440257  32.0645070  11.8271649  27.3586273  30.9170222
  60.9586573  46.7451429  60.1680946  60.0425816  46.4676094  60.1652956
  61.2390041  46.6366863  61.0768747  12.8504920  24.5269275  31.4000821
  13.2633018  25.3835821  31.5094638  12.9560161  24.0999031  32.2502279
   5.7852727  36.6286373  65.8144236   5.7415867  36.3654971  64.8951387
   4.9771422  36.2894797  66.1993027  18.6549008  55.6448746   6.7053020
  19.1778779  55.9559202   7.4442035  18.8916659  56.2262774   5.9827054
  15.5802822  41.4658022  21.9568324  14.7224069  41.7850685  21.6769195
  16.0948384  41.4236641  21.1507988   5.7821715  26.8055582  27.3565984
   5.0477487  26.2841821  27.0325279   6.4616364  26.7022943  26.6903448
  63.1327152  17.5594747  11.3565528  63.9380217  17.4773300  11.8673992
  62.5953531  16.8181491  11.6356719   8.2716924  53.8918877  14.8740709
   9.2108423  53.8255644  15.0467861   7.9456806  54.4880104  15.5482996
  17.2049069  24.0370870  23.8792896  16.8455255  24.4731665  24.6518898
  16.4665258  23.9766955  23.2731724   2.3357320  27.1996737  43.0477810
   3.2631695  27.2003436  42.8109455   2.3315832  27.2987556  43.9998341
  81.7620373  13.6845589  22.1487069  81.3029003  14.2041886  22.8085589
  82.6329994  13.5422337  22.5193834   0.9410508   9.9857628  27.7537227
   0.3589948   9.2528987  27.5528526   1.3050492  10.2417791  26.9062591
  18.0999005  19.2194760  25.2661681  18.6288905  19.8358047  24.7596693
  17.5383162  19.7743320  25.8074546  31.5723586  58.1438684  12.1959066
  32.2354269  58.1802320  11.5065253  31.7817068  58.8816118  12.7687395
  67.2984505  45.3772640  37.6318550  67.7363348  44.6311760  37.2221732
  67.8440046  46.1299801  37.4037743  40.7612514   0.6274936  67.4947357
  41.0910702   0.2930609  66.6607046  40.4973125  -0.1548722  67.9789591
   2.4065506  33.2135606  41.2094784   3.3377436  33.4282923  41.1546850
   2.3372974  32.6411891  41.9735622   2.8620380  34.8608255  47.5524712
   2.3573336  34.3533111  46.9169140   3.6466479  35.1302767  47.0749617
  80.5416489  57.3712111  17.4031162  81.0406208  58.1726217  17.2450399
  80.6176472  57.2237635  18.3458328  71.5514946  36.8898463  57.3853064
  72.4387932  37.1611333  57.6205444  70.9877396  37.5714731  57.7510881
  79.9419260  24.4918990  17.3664403  80.4505634  24.4621754  16.5561068
  80.3024101  23.7848449  17.9015648  28.4488392  29.5809412  21.0690761
  27.6463699  29.1250491  21.3229203  29.0412974  28.8839889  20.7871509
   9.0408903   9.3922615  39.3086934   9.8566532   9.7186524  38.9289141
   9.2308402   8.4827304  39.5387006  79.7354937  24.8303413  21.1828566
  79.6569490  25.6345057  20.6696486  79.0835810  24.2402315  20.8046842
  37.3296547  76.0378790  38.3474422  37.9680443  75.8275557  37.6659346
  37.6875257  76.8132877  38.7797689  33.1253505  70.8139467   4.6502045
  33.5491109  71.6453838   4.8632085  32.4454021  70.7140684   5.3164828
   0.5805036  70.9785175  36.5041494   1.2333025  70.3189039  36.7386651
   1.0918497  71.7066908  36.1512804  31.5369797  50.1070261   7.8014266
  30.7849669  49.5157576   7.8347754  32.1448469  49.6873093   7.1926814
  18.8401139  51.7878056  16.3123786  18.6711895  51.0007000  16.8302202
  19.4971991  51.5163803  15.6714427   3.1706411  68.9214134  11.4149153
   2.4202797  68.5830927  11.9035137   2.8388432  69.7069311  10.9800541
  14.3139899  29.8964667  17.8146780  15.0307429  29.4767404  17.3389411
  14.1117597  29.2899275  18.5270298  15.8208203  43.5311985  57.1001673
  16.6175723  43.7013960  57.6026106  16.0624456  42.8261328  56.4995527
  80.7028389  62.6944733  19.4341803  81.6182804  62.8884935  19.2327988
  80.2825928  63.5527325  19.4891524  25.2288580  28.6233997  19.7149658
  25.2362633  29.4742203  19.2764652  24.3008614  28.4018826  19.7923195
  53.9808702   9.9290001  19.0915418  54.1885138  10.5590987  19.7815359
  54.3294477  10.3249347  18.2928145  50.6866598  49.6468019  52.8151560
  50.1431751  50.0558615  52.1417141  50.0600481  49.2499018  53.4201908
  22.5520420  75.4837179  47.5372171  21.8737793  75.4089642  46.8659449
  22.4336576  76.3612986  47.9006338   1.0164525  37.8128934  49.0611935
   0.6858192  37.5521946  48.2015705   0.6391931  38.6799288  49.2100477
  23.4988880  29.7201490  23.7834978  23.1223726  29.2813492  24.5463371
  23.3957577  30.6535292  23.9689565   2.2958778  12.5480998  58.4346056
   1.9087717  11.7017007  58.2110214   2.4542156  12.9696715  57.5899506
  81.6882992   9.8185253  59.4603539  81.7464924   8.9027804  59.1878510
  81.6589642   9.7825122  60.4164267  38.9178252  30.0905848  56.6802025
  39.8372626  29.8256183  56.6545105  38.4446406  29.2914104  56.9118261
  35.4006457  22.8547311  26.7822909  34.4884491  23.1428194  26.7486572
  35.5447173  22.4171543  25.9432411  78.2170010  35.7231760  37.7974176
  78.6639166  36.0393095  38.5826302  78.7614012  34.9996924  37.4868727
  66.1997128  49.7990084  37.9624081  67.0004177  50.2955723  38.1312823
  66.5071535  48.9386606  37.6768947  27.4365354  13.1593013  41.3385391
  27.3469424  13.3920348  40.4143953  26.6575360  13.5280216  41.7549992
  27.2888112  76.3882875  28.1927991  28.0923271  76.7885494  28.5250401
  27.1196771  75.6594706  28.7898302   5.5974936  31.8196034  31.7776656
   6.1465740  31.1183167  32.1282959   5.0934821  32.1283388  32.5305843
  21.2379980  32.4457979   0.4807737  22.1262693  32.1713567   0.2529822
  21.3519955  33.0242443   1.2348522  17.1936190  30.2881408  26.8556881
  18.0810428  30.2673650  27.2138476  16.6259134  30.3351402  27.6249290
  72.0350790  65.2134371  32.5818658  72.7101755  64.8912477  33.1790853
  71.6137886  64.4217968  32.2471333  22.4472713  36.5459585  23.9159441
  21.6220355  36.2565827  24.3051457  23.0215955  36.7071986  24.6645331
  15.1334202  47.9658937  18.3098745  15.8355343  47.9142094  17.6613402
  14.7293115  48.8201809  18.1578004  11.4503050  50.0174999  39.0057540
  10.5241847  50.2094078  39.1530800  11.6045606  49.2016506  39.4820166
  15.5680811  60.5493164  54.4662380  15.4123187  60.9616756  53.6165714
  14.8692644  59.9004793  54.5492744  81.2529469  44.1596794  22.1308756
  81.6254997  44.4318247  22.9695463  80.3098392  44.2852974  22.2356963
  81.3395977  64.1846800  36.8825579  81.0353756  63.6790848  37.6362538
  80.6132221  64.7745419  36.6808796  68.8416719  35.5176520  47.0483494
  69.3709707  34.7791052  46.7473078  67.9537964  35.3106260  46.7567158
  61.7128181  17.2005236  22.3190165  61.2572813  16.6811037  22.9815292
  61.1675835  17.9794991  22.2088027  47.8000021  31.2629747  22.9808116
  48.2561016  30.4691529  22.7014303  47.8003454  31.2155080  23.9368343
   0.9658040  51.4825249  20.5741191   0.7157958  52.1531105  19.9384725
   0.1945803  51.3820267  21.1321020  81.6286278  14.5446134  31.5027189
  81.6032314  13.6115384  31.2906837  82.5566959  14.7749221  31.4592886
  65.1309919  32.3295379  27.0540857  65.1259041  31.8155646  26.2465978
  64.8060751  31.7272925  27.7233863  62.6133823  56.5309238  54.5714712
  61.8635368  55.9507656  54.4396591  63.2515907  56.2502289  53.9156294
  17.3703265  43.8109589  61.1859417  16.7938817  43.0514050  61.2697268
  16.8466318  44.4581318  60.7135630  63.9635801  59.0104914  27.7282619
  63.1852293  59.2248726  28.2424974  64.6033812  58.7127399  28.3749723
  -0.0220458   6.7647928  23.8653350   0.0011285   6.5030986  22.9448938
   0.1457532   7.7070564  23.8507390   5.9853840  48.8470507  57.3769903
   5.8257443  48.2526588  56.6438866   6.0677910  49.7103453  56.9718266
   2.9215163  76.0315418  11.1977768   2.6833084  76.2137604  12.1067786
   3.0566937  75.0843143  11.1708689   6.7448515  30.7837486  52.1824789
   6.4988446  30.6378722  51.2690067   6.3975143  30.0231862  52.6484537
   0.6968325  23.2230663  60.8113909   0.1263104  22.7954888  61.4500713
   0.1685800  23.2742167  60.0147963  55.0475264  13.3355308  60.6750536
  55.3340816  12.7696371  59.9581957  55.6245041  13.1088996  61.4044142
  48.3973932  62.3897743  25.5116487  48.6366940  61.4966583  25.7592559
  48.1360102  62.8043842  26.3338470  40.3136396  50.2473974  25.8871865
  39.4239712  49.9019384  25.8138275  40.8291245  49.7114897  25.2844310
  76.2470770  18.8385212  48.0242825  76.4592171  18.6563635  48.9397335
  76.1714554  17.9744542  47.6194382   7.9548049  33.0083203   2.5236616
   8.1098270  33.6212277   3.2423729   7.0037645  33.0017090   2.4154449
   9.9679810  70.5297852  40.3315306  10.7990432  70.2963209  40.7451248
  10.2013779  70.7412958  39.4276357   5.3015393  25.4658651  49.2890501
   5.7727295  24.6602392  49.5016050   4.5383763  25.1727247  48.7911749
   2.1283539  51.5103245   2.9788914   1.5056971  51.7631483   3.6605135
   1.8355560  51.9830132   2.1997470  44.7702789  59.4591808   1.0973583
  44.5784616  60.0691462   0.3850554  45.1085806  60.0121450   1.8016393
   1.3253634  46.7293978  23.1644964   1.4968817  46.9855785  22.2583032
   2.1934739  46.6556597  23.5609531   4.6354258  56.8838167  64.4190741
   4.4444445  55.9458733  64.4236326   5.4266119  56.9697332  64.9509335
  61.8248606  15.7855022  61.2896967  61.6258144  15.7674134  60.3535938
  61.7615747  14.8711550  61.5657330  81.5425205  30.1440644  10.7627714
  81.1275291  29.2964220  10.6030369  81.3009548  30.3632188  11.6626871
  31.5085435  24.9934888  17.4082482  31.1524367  25.1794577  18.2770610
  30.8859992  24.3781471  17.0209169  50.0000906  12.7143872   4.6498287
  49.2410755  12.3715246   4.1780514  49.6296167  13.1370592   5.4246378
  69.7989845  17.9415238  42.7098370  70.4388714  18.6035752  42.4481869
  70.2194548  17.4740815  43.4315920  31.5640140   1.9856955  43.2918501
  31.4754558   1.1523910  42.8292561  30.7005048   2.1398807  43.6750126
  34.3606329  70.0894785  64.3584204  33.9980888  70.1515961  65.2421284
  35.2930236  69.9201870  64.4934082  32.9923892  29.4105625   7.1460068
  33.3925557  29.5303750   8.0072516  33.5484409  28.7639093   6.7114061
  40.0128508  51.7200613  13.2088029  39.4014525  51.8143892  13.9392316
  39.6101809  52.2134018  12.4941683  69.4749451   7.3998517  63.3668613
  70.3846502   7.6794088  63.2643032  69.3966961   7.1744668  64.2938519
  19.9365163  13.5520864  16.0485530  20.4031754  12.7453518  16.2668216
  19.8731339  13.5412133  15.0935161   1.9415458  19.2860663  37.5732183
   1.2984684  19.2737567  38.2821131   2.6875609  19.7645020  37.9348707
  77.6963949  21.5654564   5.5000901  78.0853415  21.0392284   4.8014957
  76.7530203  21.5017200   5.3510445  29.7779441  36.2711740  32.6747274
  30.4130006  36.1208630  33.3749723  30.2911997  36.2112522  31.8689919
  31.3085794  37.2089696  17.6411092  31.8120956  36.5662718  17.1414638
  30.3954411  36.9564652  17.5045431  68.7576056  75.7714844  38.1068945
  68.2122374  76.4369678  38.5263491  68.3995581  74.9391079  38.4154081
  10.8766580  33.3131814  35.1706791  10.5353284  33.5277057  36.0388398
  11.2424707  34.1363788  34.8470140  80.0923157  27.4688673   4.0556455
  79.9541616  28.3988404   3.8759369  80.0584698  27.0510268   3.1951249
  25.4816270  24.2316866  55.6363821  26.2481117  23.8388443  55.2187586
  25.2874756  23.6527944  56.3735533  10.0819266   2.7496636  41.3023138
  10.9420383   3.1459069  41.4417076  10.0959575   1.9536683  41.8337536
   3.1472287  42.3959351  61.4508057   3.9804569  42.5119543  61.9074249
   2.8252524  41.5463638  61.7521191  72.6772785  31.5778852  58.6695862
  71.9509888  32.0312262  59.0976286  73.4624720  31.9595122  59.0620947
  48.4586620  43.8167286  10.1469433  48.5482407  44.2245102  11.0082912
  48.2211685  42.9087925  10.3353131   5.6164175  14.1213143  17.8270590
   6.5265471  14.2936993  17.5858545   5.2462471  14.9870336  17.9995024
  61.0494089  13.3528590   2.2488077  60.6452513  12.9568446   3.0208570
  61.9898510  13.2380927   2.3852991  73.2122946   2.4423949   7.9514819
  72.6221848   3.1827685   8.0923754  73.6814213   2.3488760   8.7805814
  61.6633987  40.6356859  54.4641161  61.8325806  41.1712074  55.2392483
  62.2661304  40.9749413  53.8024139  17.1088207  48.0375862  39.6527696
  16.3063538  48.5579634  39.6913862  17.8043270  48.6800051  39.5120358
  82.5585175  35.0072598  43.6108303  81.6324711  34.9170637  43.3860016
  82.7543640  35.9308767  43.4533310  16.7185187  31.7182136  60.2289009
  16.3664305  30.9624553  60.6991148  17.6428294  31.7448330  60.4762316
  42.9797697  12.4194121  22.1727252  42.3576736  11.9963205  22.7645183
  43.7442398  11.8433940  22.1771312   1.7160101  20.3418136  26.1658740
   2.2322869  21.1131382  26.3998604   0.8168944  20.6646299  26.1057687
  56.2551880  30.7140207  61.5715742  56.2072372  30.0414681  62.2509909
  55.9817648  30.2658463  60.7711935   9.7412378  16.5224040  35.8035064
   9.9656600  15.6746435  35.4198790   9.9064261  16.4128065  36.7399526
  14.9611270  49.3407822  64.6736526  15.6396484  49.1942978  65.3327274
  15.2729464  50.0941563  64.1722250   3.0474705  24.9159861  34.7134638
   2.1312779  24.9365568  34.4370580   3.0130497  25.0180316  35.6645846
  25.8925080  40.0420046  19.9893773  25.0028896  40.3949594  20.0046659
  25.7960176  39.1653705  19.6173120  15.1811075  34.2814875   3.1855404
  14.5895016  33.5598087   2.9724321  15.7639086  34.3448496   2.4288630
  70.1721382  42.6327848  43.1202364  69.5153618  42.1699142  43.6404514
  69.6684170  43.0744076  42.4365187  61.8705416  59.9241352  66.7186594
  62.8121233  59.7606087  66.7726278  61.7771959  60.5522728  66.0024500
  71.8709707  66.1641312  25.9411240  71.8617058  67.1180487  25.8624434
  71.2418509  65.8635902  25.2852917  16.9259953  42.6536512  10.0331151
  17.1534920  41.7261314  10.0977802  16.1699581  42.7556992  10.6112373
  74.6579662   0.2584146  61.1117554  75.1988712   0.0268434  61.8667603
  75.1814666  -0.0009180  60.3535175  81.9789219  45.8703566  45.7488441
  81.8786335  45.2672005  45.0123835  82.4027729  45.3482676  46.4300203
  77.7199078  38.4056807  17.9866421  78.2390642  38.9450788  18.5830975
  77.8194046  38.8282299  17.1335387  25.1640415  70.5153322  45.8341551
  25.8622026  70.4858065  45.1799870  24.8090363  71.4016247  45.7657385
   5.5417383  31.9349432   7.9385042   5.8941913  32.4022317   8.6959010
   6.1167526  32.1836233   7.2147995  27.7616000  18.8780320  42.5590801
  27.2051668  18.1724250  42.2293377  28.4474444  18.4305120  43.0546379
  34.8214173  35.6632257  30.7869506  34.2343163  35.3105497  31.4556551
  34.3747497  36.4461589  30.4648685  72.7425432  58.8543987  15.5660975
  72.1339226  59.5645809  15.7696939  72.1847773  58.1452274  15.2464080
  66.6854143  52.0658970  19.2951179  67.3986101  52.0483828  18.6569369
  66.3324404  51.1762190  19.2843115  37.4971771  48.6603880  25.4181528
  37.0456600  49.4160795  25.0422597  36.7991519  48.1334352  25.8071423
   5.6569493  35.2215719  37.1424580   4.9253422  34.6549845  36.8975878
   5.2463937  35.9668374  37.5809288  54.6903849   2.0646603  59.1981936
  55.3875828   1.7071936  59.7480726  54.8465204   3.0090398  59.1972208
  55.1306057   2.5160393  62.3605251  55.3568077   1.8893418  63.0477762
  54.3464136   2.9570964  62.6872349  66.6548538  30.0748134  62.8323936
  67.0708036  30.6341076  63.4884453  66.4654827  29.2600036  63.2976437
   0.5678415  29.9115729  41.4585829   0.5254164  28.9553285  41.4534092
  -0.3088650  30.1916456  41.1955690  18.6594605  27.8315806  32.7298641
  19.1498673  27.1314597  32.2990918  19.2221105  28.6018944  32.6506472
  72.7413416  54.3501997   6.8590033  73.4186411  53.7530518   7.1766621
  72.8141308  54.3094301   5.9054458  12.9222512  76.0631943  45.7634115
  12.0975268  75.8633089  45.3205729  13.3035374  75.2069426  45.9575272
  31.1686778  56.0805368  15.7811069  30.8937669  56.3953209  14.9199641
  31.6740942  56.8045664  16.1506522   7.6666307  52.4537754  44.9248123
   7.0610124  53.1738806  45.1006126   7.1146226  51.7585802  44.5667315
  21.4763355   8.4553963  26.0691237  21.4324641   7.7011764  26.6568828
  20.9240556   9.1165942  26.4863014  81.7801189  34.6700215  30.8281898
  81.1077404  34.8641706  30.1751685  82.4911404  35.2788568  30.6281805
  80.6528378  33.4026980   7.0921987  80.2649212  34.2591715   7.2716773
  80.3047466  32.8335309   7.7785766  74.2640591  50.1483679  33.1719112
  74.1465569  50.7085896  33.9391017  73.4659576  50.2745152  32.6587319
  28.0282545  11.0523283  33.4206581  27.2778845  11.1606753  32.8363323
  28.5531545  10.3644204  33.0113983  19.1265118  71.2926722  50.7819986
  19.1288602  71.9611597  50.0969028  19.5387888  71.7185402  51.5335941
   8.8371766  25.9236979  56.9384718   9.4263935  25.1698160  56.9652319
   7.9625684  25.5416393  56.8655014  68.9304399  48.0837107   8.1556320
  68.7019873  48.8544416   8.6752617  68.9404726  47.3638916   8.7864995
  15.8534420  67.4756098  22.9096127  15.8979857  67.7464247  21.9926023
  16.7603910  67.5097752  23.2137656  48.2396841  31.0374308  14.1662347
  47.8175354  31.3168883  14.9785948  47.6775455  31.3832355  13.4729433
  77.8833151  26.4364886  58.5407686  77.0032263  26.4626908  58.9162493
  78.1471491  27.3548889  58.4844971   9.2301255  49.8851585  42.9357767
  10.1623511  49.6681070  42.9445314   9.2028689  50.8153009  42.7114439
  70.5980396  28.6332750  37.8779769  69.7349024  28.6265731  37.4642348
  70.7175064  29.5375538  38.1682134  24.4497371  69.2146254  32.9006648
  24.4335723  70.1313829  32.6258469  23.6111903  68.8608694  32.6041365
  12.5967848  52.7562523  32.5776529  11.7979705  52.6047277  33.0827951
  13.2268155  52.1286917  32.9318643  18.9076352  49.4108582  38.0138278
  19.1394866  49.1050577  37.1369219  18.1428981  49.9702835  37.8779912
  16.6231740   6.2611145   7.1819723  16.9869161   7.0093453   6.7086077
  16.3772845   5.6403387   6.4961100   9.5822328  25.7727599   1.8235244
   9.8653257  26.4365196   2.4524227   8.8104367  25.3748822   2.2263327
  69.2695761  25.6174850  31.3598895  69.6262121  25.4628301  30.4851747
  69.6834135  24.9511719  31.9085217   8.2961261  59.8181009  47.1850872
   8.6133516  60.6345034  47.5712013   8.4300607  59.1618347  47.8689051
  59.1270351  70.0637341  36.9616151  58.9208651  70.7924318  37.5470448
  59.9604273  70.3081989  36.5592146  38.0061555  51.0902071  15.2967954
  37.1231604  51.3773489  15.0642049  38.1567883  50.3158522  14.7546542
  37.8051138  47.7860594   6.8085819  38.6822891  48.1626606   6.8790615
  37.2225928  48.5438156   6.7566144  52.3841429   1.5258792  17.3710799
  51.6899014   2.1419202  17.6050818  53.1325769   1.7948359  17.9037488
  20.3803229  54.6399784  44.1969061  20.1538754  54.8928690  43.3019209
  19.6620035  54.0712976  44.4741297  55.8142185  66.0229969  25.1309133
  54.9733877  66.2725401  24.7475576  56.4028931  66.7437935  24.9069786
  28.5218883  21.5544677  14.4999301  27.6367617  21.5748644  14.1361070
  29.0957999  21.5551329  13.7338662  49.9570417  29.3207192  65.7043600
  50.5837822  29.4051361  66.4229012  49.2307186  28.8212585  66.0774994
   0.9897243  50.4211521  35.0045586   1.6275120  49.7092581  35.0561905
   1.1385269  50.8141327  34.1445255  31.8482924  53.0095243  29.5299649
  32.0189929  52.1274757  29.8602438  32.0736670  53.5863543  30.2598310
   4.1810644   6.9395173  56.3437891   4.6205628   6.3613647  56.9673395
   3.6932600   7.5551975  56.8907976  19.6945655  58.3931446  47.8432751
  20.4866743  58.0779266  48.2785130  19.8504531  59.3281078  47.7099562
  10.6634152  18.7059629   0.3979748  10.1804590  18.2122815  -0.2647955
  10.1939738  18.5338104   1.2141980  82.3031430  66.0732746   4.4760674
  83.1980804  66.2156677   4.7843584  82.2047873  65.1213217   4.4576195
  13.8484669  20.2281022  24.9291921  14.3646204  20.7499623  24.3147969
  14.0829158  19.3217981  24.7294950  20.4076838  48.4176302   6.3971949
  19.5839441  48.7123823   6.7855304  20.7829404  47.8274822   7.0507550
  82.4823937  17.4942362  34.4199228  83.4081742  17.6840019  34.5720768
  82.0260896  18.2877326  34.6998906  49.8523808  70.1128244  30.4237413
  49.6031618  69.6550417  29.6208978  49.9775314  69.4158983  31.0678411
  26.0962057  55.8369684  35.6370950  25.4741025  55.9130144  34.9136066
  26.3341808  54.9099398  35.6519127  68.5676956  33.5842013  32.2430682
  69.1278315  33.6296606  31.4682055  68.5574913  32.6561117  32.4771142
   7.0467848  58.6362076  10.7349730   7.8616434  58.8742447  10.2927327
   7.3288488  58.2314634  11.5552473  38.3629608  42.5042152   0.2534384
  39.2987657  42.4225950   0.0694836  38.3197331  43.0536747   1.0360336
  74.7445440  49.6218061  21.8796301  73.9317560  49.4035053  21.4236116
  74.4656372  50.1541281  22.6246619  66.5999031  65.5289507  45.3352785
  66.3852978  66.4586639  45.2590466  67.4641705  65.4487658  44.9317408
  74.1704750  35.5934024  61.8042850  73.6974955  34.8037839  61.5415525
  75.0807285  35.3099918  61.8899918  44.4015598  50.0193739  13.7352455
  44.3239784  49.6796989  14.6267796  45.2882910  49.7813225  13.4645581
  12.2166395   3.1202385  22.2330427  12.1669555   4.0667379  22.0992422
  13.1343985   2.9030585  22.0693898  39.9676657  62.3411131  27.3013926
  40.1123810  62.1188688  28.2211185  40.7188177  61.9645309  26.8429327
  42.0186377  38.7000370  38.7976170  42.0257378  38.4837770  39.7300410
  41.8430901  39.6406317  38.7712336  20.8911610  38.8522768  32.6846147
  21.1589003  37.9473042  32.8445339  20.1061988  38.7774825  32.1419644
  32.6898217  76.4858341  60.0857735  31.8535781  76.1068964  59.8149681
  33.1780434  76.5964746  59.2699146  18.3100188  34.1107178  32.1082759
  17.8309155  33.9625692  31.2929583  17.6594293  34.4817328  32.7043581
  29.2534494  46.9609547  40.7875681  30.0998688  46.9612932  41.2345648
  29.1515732  46.0643482  40.4682684  38.3454680  43.5685205  20.3721833
  38.1986547  43.9939594  21.2169790  38.0261970  42.6745987  20.4954958
  26.6536951  26.1474514  19.7681916  26.7312336  26.0132360  20.7127595
  26.3822246  27.0608616  19.6775496   9.5144415  70.8828545  51.6234016
  10.3509033  71.0777044  52.0460081   8.9096457  70.7285738  52.3491096
  55.0146151  62.9592133  45.4482841  55.0573492  62.4643803  44.6300268
  55.2548933  62.3255062  46.1242437  64.0191507  56.4740896  36.1066365
  63.8048553  55.8603954  35.4040074  63.2905769  57.0948744  36.1129284
  68.1954469  77.1627065  21.4615083  68.7025882  76.5894988  20.8866405
  68.2044877  78.0124649  21.0209846   9.6124494  37.2430778  13.1003368
  10.5416834  37.2332931  12.8708613   9.3089205  38.1107140  12.8332996
   9.0705860  46.2136507  42.7159595   9.6697634  45.9518480  43.4150124
   9.4560415  45.8468866  41.9202614  49.7543764  60.2093744  34.8615074
  50.3626585  59.4706535  34.8387647  49.0536928  59.9246979  35.4482198
  60.4301596  24.9552226  63.1779623  60.6688547  24.0282631  63.1764984
  60.2263403  25.1515102  62.2635460  31.3354397  47.9866219  19.9025309
  31.4118552  48.9352608  19.8001933  30.7304263  47.8727531  20.6354880
  17.9203701  26.3547421  34.8290205  18.0516028  27.1310592  34.2846513
  18.7152946  26.2967324  35.3590798   1.7430864  34.2762756   7.8509450
   1.5055107  34.4415498   8.7633449   1.8198578  33.3239698   7.7921665
  80.6449795  55.7166624  41.1001968  80.5443764  56.1384296  40.2468395
  81.2016010  56.3147783  41.5988541  36.3809443  75.6822395  43.8605499
  35.5559778  76.1374283  43.6918259  36.1340117  74.9309301  44.3997955
  70.6750822  29.7550297  56.3559151  70.7075214  30.5658627  55.8482456
  69.8583698  29.8152304  56.8514776  25.5219936  65.0091934  22.9694653
  24.9408984  64.6620417  23.6462569  25.0912976  64.7832584  22.1450329
   7.7285677  62.1247053  36.5571928   8.0468780  62.3941231  37.4187756
   8.2765478  62.6068068  35.9378982   3.4022474  65.8506823  21.4324594
   3.1018898  65.2283573  22.0948267   4.3504870  65.7246590  21.3979244
  34.6817160  45.6925344  15.5037224  35.4910898  45.4293633  15.0656760
  34.8097205  45.4368544  16.4172173  75.5147076  27.2103071  29.1011691
  75.1821470  26.7934632  29.8960757  74.8167133  27.8085566  28.8344598
  48.8089228  73.4275055  51.0618353  48.3973742  72.9749918  50.3255653
  48.6181068  74.3532705  50.9108973  39.7146297  59.2062998   2.2940423
  40.2773046  58.6402845   2.8224885  40.0803995  60.0832224   2.4100113
  11.7435873  74.3497849   1.1622912  11.8686342  75.2980185   1.1242715
  10.9877181  74.1850853   0.5985829  29.5945644  42.2728157  31.7015982
  28.8328481  41.8397713  32.0869470  29.2270184  42.9936409  31.1901736
  71.0248804  34.1098380  63.2655525  70.3134966  34.7502470  63.2592106
  70.6247854  33.3041668  62.9383659   6.5892380  52.2293949  24.3592596
   6.3822752  52.3790932  23.4367704   7.4607658  52.6082945  24.4737411
  73.6229658  19.6635020  40.6258965  73.6334705  19.6651769  41.5830374
  73.2337141  18.8208497  40.3921175  22.1729112  23.4990382   4.8913121
  21.3283420  23.5091567   4.4409445  21.9496369  23.5561585   5.8203530
   3.2168564  63.5758638  14.4581425   4.1208291  63.8715363  14.3502319
   3.0415452  63.0513287  13.6768866  26.3797569  51.5351391  12.2024226
  26.3317919  51.0825443  11.3603473  25.4801655  51.5286255  12.5294197
  16.7330945  51.8589735  34.3212938  15.8937871  51.4281178  34.1595554
  16.9537115  52.2742844  33.4875798  71.5428066  67.8217983  47.3778009
  70.9161091  68.5340595  47.2506475  71.0815716  67.1932316  47.9331350
  32.5995851   8.8037175   8.2895243  32.7419829   8.4833348   9.1802031
  31.8822932   9.4320393   8.3728123  12.5492918  60.7284880  14.9456537
  13.0638993  60.6106567  15.7441068  12.9501772  60.1331854  14.3122995
   0.4341362  19.8386312  10.0993347   0.2488853  20.6816459   9.6855235
   1.3174662  19.9354362  10.4551280   7.0724678  45.0704908  16.2668490
   7.3967403  45.7508087  15.6767225   6.8153369  45.5428934  17.0586514
   2.1764976  60.6630087  59.0544367   2.7651304  61.4036036  59.2002678
   2.2567755  60.1334286  59.8477411  12.2407937  32.8490353   2.7543646
  11.3473189  32.5372982   2.8984287  12.7845550  32.0660734   2.8411177
  75.5796814  31.8599963  18.1305027  76.1952448  31.5169215  18.7782812
  75.3856468  31.1124372  17.5650477  49.7751760   5.4355586  32.5154781
  50.2327204   4.7817880  31.9868279  50.2043581   6.2629020  32.2974467
  67.8532314  73.9347267   5.6148714  67.5487804  74.6801615   5.0973123
  67.0841980  73.6596537   6.1140257  23.8503718  62.8013563  18.0265725
  24.4602299  62.8885078  17.2939682  23.8054776  61.8592882  18.1900716
  35.7099776  73.7971485  67.2939034  35.3166960  72.9289115  67.3818031
  34.9878655  74.4045651  67.4546250  25.9816980  28.0546594  63.6208534
  25.7702851  28.7061000  64.2895555  26.0460854  28.5572362  62.8087568
  68.7487316   5.6217480   2.1028945  68.2031631   5.7795036   2.8734136
  69.1109753   6.4807892   1.8859616  42.9323959   4.2125869  49.1533422
  42.0808315   4.4080687  49.5443153  42.8176785   4.4024053  48.2221937
  12.9274118  67.7076244  40.0409985  13.5755301  67.4225998  40.6851530
  13.4334540  67.8582716  39.2425895  55.1008081  25.3445172  33.4425020
  54.5080042  24.5982099  33.5310292  55.1211500  25.7389808  34.3144059
  82.5431824  70.2971840   9.8428291  82.5596046  70.3231573  10.7995355
  82.3132801  71.1892748   9.5829207   7.6171041  44.5329571  25.7317924
   6.7460251  44.3164444  25.3992653   8.1752300  43.8187122  25.4242468
  33.3536577   9.6306187  12.1716690  33.6458111   9.2189699  11.3583910
  33.1160569  10.5221844  11.9169378  81.9504833  57.0012903  24.3115616
  81.3627052  56.2659359  24.4847584  82.7850151  56.7372465  24.6989536
  78.3906269   3.0708855   2.6249090  77.8344488   3.1649053   1.8515673
  79.2622614   2.8909484   2.2726181  15.5454254  25.6989098  43.4507513
  16.0008192  26.3268971  44.0115356  16.1543167  24.9648190  43.3695316
  55.6417635   2.8197992   0.0085789  55.4172773   2.2254121  -0.7073445
  55.1184740   2.5118577   0.7485586  74.5056725  44.6189165  39.1392827
  75.1456738  44.9127388  38.4909773  74.8767805  43.8105488  39.4929028
  16.1525035  33.1456614  23.6672449  15.7081521  33.1248403  22.8196907
  17.0482588  33.4131360  23.4615493   8.9014137  27.7648997  50.8690357
   9.3334877  28.1809759  51.6149759   8.7357742  26.8675685  51.1581564
  42.0513010  62.8791285  17.5639057  42.1657181  62.1003962  18.1086218
  42.8783035  62.9630613  17.0892990  63.3349657  44.7457027  33.2113218
  62.7245140  44.0987349  33.5648966  63.9344168  44.9296951  33.9345360
   3.3500552  48.4050655  58.4375620   2.9483813  48.6830759  57.6143980
   4.2563260  48.7068701  58.3757782  66.9292736  20.2714300  18.8160777
  67.8410149  20.5569601  18.7575138  66.8543005  19.8870373  19.6894920
  37.8993845  53.8520479  30.4543185  38.4830880  54.5895338  30.6321836
  38.0762291  53.6211538  29.5423746  70.4191875  30.0246692  46.3853741
  70.3987312  29.7532940  45.4676771  71.2916613  29.7747922  46.6896439
  69.6775723  17.9646611  10.0891078  70.1402950  17.1283054  10.1403594
  70.2950191  18.5538304   9.6556693  33.6237025  35.3013706  38.4847188
  32.8149414  35.7807255  38.6646008  33.5883260  34.5441103  39.0691280
  12.2342110  38.3965325  25.0036335  12.7557540  38.0624461  24.2738342
  12.7975583  39.0472579  25.4224777   7.7417940  28.6422825  32.5088930
   7.1417588  28.9367080  33.1940937   8.3411551  29.3779206  32.3830676
  47.8066587  30.8676291  25.5799627  47.6160288  31.4755535  26.2943316
  47.2314692  30.1198554  25.7418966  78.6019230  29.0344667  34.6187639
  79.4627762  28.7322998  34.3291783  78.5784721  29.9598479  34.3751431
  29.1399980   5.9975988  18.3681285  28.6490345   5.1799077  18.2870841
  29.1852760   6.3392961  17.4751425  59.1910505   2.3456964  18.2380664
  59.0191984   2.0120129  17.3575258  59.0069723   1.6045776  18.8152063
   6.5589762  20.2582979   5.8846772   7.0589089  19.4522560   6.0135037
   7.2175646  20.9150481   5.6584632  14.2867887  38.6295557  35.6344533
  13.9190149  38.4654570  34.7660971  14.8988986  39.3535161  35.5024123
  34.4413662  44.9487257  25.0067234  33.9520907  45.7654858  24.9079895
  34.9817014  45.0857830  25.7848549   8.8485646  64.1447735  57.3638821
   8.5589260  64.6388817  56.5969372   9.5834768  64.6503830  57.7110052
  14.8025942  70.5537939  18.1933820  14.4321537  71.3138628  18.6420429
  15.6116068  70.8793879  17.7987719  14.3294978  64.0774632  40.1958609
  15.0515318  64.6506548  39.9382734  14.3090498  64.1325903  41.1512518
  21.6290116  31.9747019  26.1554694  21.0196519  31.8448734  26.8821454
  21.1540437  31.6614532  25.3857231  33.3383107  38.9535880   6.2683970
  32.8903604  38.7290788   5.4528195  33.1866384  38.2009244   6.8399960
  25.1339984  28.8628817  66.1294508  25.4302359  29.6324301  66.6155243
  24.3021917  29.1315460  65.7393885  75.6246567  53.3885860  30.3798223
  76.5304947  53.1270027  30.2147079  75.5841970  54.3025732  30.0983596
   7.8691572  62.4803829  14.8481488   8.5371125  62.4666739  15.5336261
   7.6111954  61.5641975  14.7467387   0.7687577  65.1522255  38.4921265
   0.0060708  65.0188732  37.9293132   1.2731495  64.3430948  38.4076643
  23.9591956  59.2411900  33.7951636  24.5857263  59.9496031  33.6473751
  23.6434698  59.3829823  34.6876025  22.7901268  55.4655647  45.5022717
  22.7124238  54.9768972  46.3216591  22.1612835  55.0479031  44.9137592
  46.2225342   5.9429491  50.4460478  46.8400049   6.6017032  50.7638550
  46.7490816   5.1499546  50.3453541  63.3411264  77.8175640  35.7988453
  63.5944986  77.9258919  34.8821688  64.0895176  77.3794174  36.2040234
  64.4620180  55.8101702  23.8882637  63.8141251  56.2017441  24.4740415
  64.7938156  55.0526476  24.3702435  55.5361414  72.6818037   3.5963434
  55.8131742  73.4296751   4.1256523  55.9806728  71.9314337   3.9907664
  22.3089576  66.1328793   8.0476856  22.8698230  65.4335356   7.7121592
  21.8033314  65.7194710   8.7474477   2.8300580  30.3628731  47.3447990
   2.0597704  30.1679611  46.8110418   3.5633978  29.9986982  46.8489981
   1.5545811   7.8698426  30.4110217   1.0733401   8.2193899  29.6610498
   2.1281302   8.5864204  30.6826615  70.4049683  23.5918927  43.7026548
  71.3542843  23.6178350  43.8224936  70.2855301  23.4841537  42.7590656
   4.1886708  24.7776413  41.3862705   3.6314219  24.5033240  40.6579447
   3.7756500  24.3959212  42.1608257  34.2963791  29.6777010   9.4440597
  35.1744676  29.7759008   9.8122263  33.7113786  29.7447038  10.1987231
  21.4717293  23.0056405   9.3653101  22.1660137  23.6505723   9.2301613
  21.8802381  22.3215461   9.8957503  34.8056960  60.2493858  12.3068869
  34.5232987  60.7262897  11.5264738  34.0773249  60.3422356  12.9209614
  24.8152161  52.2703743  32.4985290  24.9920082  52.2861814  31.5579319
  24.8501253  53.1892824  32.7642751  82.6540832  50.7368898  54.3860865
  83.2533278  50.2059078  53.8614988  81.8366812  50.7382536  53.8880062
  18.2961273  52.7902365  41.6241360  18.1502020  52.9789019  42.5511456
  18.8128304  53.5311222  41.3073730  77.8980541   8.2593596  47.6957703
  78.6308718   8.0824780  48.2856178  78.3076429   8.5988396  46.9000196
  55.8697891  14.7128475  64.5218945  56.3173771  15.3097534  65.1215649
  56.5646076  14.3761301  63.9561415   3.9334163  54.9027920  39.1157556
   3.7544170  55.7227039  38.6553907   3.7352699  54.2200375  38.4748054
  10.5767894  26.3578153  11.0245013  10.4523218  26.3543653  10.0754344
  11.4573419  26.7117715  11.1492968  35.1986098  69.2593670  15.2224350
  35.3094840  70.0023508  14.6292162  36.0428214  68.8086653  15.2021968
  32.9401922  60.5571222  14.2000854  32.2764206  60.0818634  14.6998525
  33.2883167  61.2014389  14.8164427  43.3214188  12.5616229  35.2339125
  43.2036543  11.6456318  35.4855561  43.9515543  12.9049289  35.8673954
  40.0845909  74.5481300  64.1354847  40.9668541  74.4135189  64.4814920
  39.8672175  73.7210751  63.7054110  80.3847313   7.3208404  36.4592457
  80.7861996   7.6468581  35.6537867  80.1518059   8.1105590  36.9474268
  30.9026480   1.4806989  14.6450055  31.6050577   2.1157727  14.5052397
  30.2427292   1.9598770  15.1461303  59.7854233  24.6337390   9.1080260
  59.7086573  23.9194918   8.4754205  60.4800844  25.1909399   8.7570214
  13.6622763  28.5199285  20.1368356  12.9255724  28.1235647  19.6716535
  13.3018613  28.7696195  20.9877110  20.4266620  40.4009581  61.3304329
  21.0993791  40.8542109  60.8222532  19.7019339  40.2824211  60.7164717
  79.0976095  35.4133749   7.5832510  78.5250664  34.7378421   7.2198272
  78.6398315  36.2353945   7.4073136  68.8411427  23.9822841  65.8637667
  68.8659668  24.2278838  64.9389458  68.8105059  24.8163843  66.3323498
  40.8551264  40.1357555  32.3899317  39.9909210  39.7446966  32.5181985
  40.6787968  40.9674215  31.9500804  76.4877510  50.1587105  50.8926058
  77.0608091  49.4237280  51.1108685  77.0652437  50.7961941  50.4726648
  43.0162239  67.7605391  22.0488858  43.5581350  67.2918463  21.4141512
  43.3145809  68.6684227  21.9944167  79.0523767  47.4024534  30.6163859
  79.4941473  48.0226088  31.1964536  78.1216812  47.5148296  30.8098197
  21.8698931  36.2326908  33.5029078  22.2581530  36.0718942  34.3629265
  22.6198030  36.3345671  32.9168296   7.0904374  75.1168919  30.7309127
   6.2238526  75.5190325  30.7904506   7.6380795  75.7873821  30.3225470
  14.3372095  42.8270912  29.8821831  13.6891806  43.3286428  30.3768897
  13.8273394  42.3727703  29.2114687  70.4281616  55.0032330  53.6222029
  69.4949150  54.8003769  53.6864758  70.4628420  55.8119726  53.1113529
  54.2276001  27.3179388  54.4532108  53.7869501  26.5447259  54.1007853
  55.1278782  27.0313549  54.6068430  60.1736975  18.5566521  66.0809374
  60.3568649  19.3930829  66.5087986  59.5786572  18.1062448  66.6803503
  38.2432246   1.2525144  18.2119143  37.3524356   1.5334484  18.4212041
  38.1856894   0.9218252  17.3154962  31.8042302  48.3396292  26.7505288
  32.2978878  49.0538692  27.1535134  30.9048796  48.4707928  27.0508599
  39.6290016  29.8570657  24.5209360  39.5519733  30.7693648  24.2416263
  39.9850750  29.4021630  23.7577128  13.9706433  43.1221724  25.6375742
  13.3286321  42.7352095  26.2328172  13.5356295  43.1248093  24.7849393
  71.8114424  58.5052347  61.2381268  71.2721586  58.8084364  60.5077362
  71.3051987  58.7295389  62.0189190  40.9121513  21.5444160   4.4714069
  40.2438831  21.5984607   5.1545817  41.7392588  21.6779613   4.9343216
  54.2632008  48.2288647  20.1769757  53.4839678  48.7808323  20.2430439
  54.1555882  47.5785160  20.8710217  75.8534956  16.3058901   8.2068861
  75.3206348  16.1168826   8.9792639  76.7366886  16.0298181   8.4518147
   6.6964453  62.4223804  24.3351316   5.7997966  62.1029186  24.4361162
   6.8351907  62.4513674  23.3884859  33.1497955  10.9035218  66.6257620
  33.7202716  11.6036785  66.9428921  33.7499642  10.2037740  66.3681078
  13.6329067  46.6675472  16.0775113  14.1401458  47.1831703  16.7044652
  13.1663084  46.0278797  16.6154194  32.6132131  31.4992499  30.8624315
  32.3947620  32.0467329  31.6166019  31.9414878  30.8173370  30.8588982
   1.3391790  23.4905601  12.9165339   1.3134663  24.0917587  13.6609340
   0.5983318  23.7536430  12.3704898  31.4358878  36.8592167   5.8644724
  30.7896519  36.1840248   6.0711777  32.0253348  36.8654752   6.6186225
  43.4585571  57.6367664  21.3314223  42.8880167  57.8544712  22.0685267
  42.9474783  57.0204639  20.8068275  13.0458164  42.6704502  41.9302225
  13.5701811  41.8739510  42.0130634  13.0141258  42.8394890  40.9885979
  69.8680639  41.3276768  38.3008313  70.0141287  40.9549809  39.1703105
  69.0089989  40.9961891  38.0393815  32.6745868   1.8548585  50.9569788
  31.7728758   2.1564440  50.8465433  32.5923014   0.9231701  51.1604929
  29.7826195  73.5121346  38.2643795  30.2660155  72.7482080  38.5789871
  28.9397526  73.4646988  38.7155509  63.5088921  48.0917311  61.4846039
  63.4690189  47.5811434  60.6759405  63.2844591  48.9828014  61.2165546
  32.1800351  69.9385405  25.0248098  32.7838540  69.3612957  25.4921722
  31.3698006  69.8996019  25.5329776  64.4857183   0.4896377  63.5526800
  63.8380614   0.1452278  62.9377365  65.3240362   0.3803800  63.1037760
  20.6516838  49.6531916  43.5318708  21.3204861  49.3222761  44.1313934
  21.1379194  50.1807308  42.8982258   2.1498573  78.2963419   9.8387933
   2.5027502  77.5770855  10.3625906   1.3402790  77.9467583   9.4664961
  62.8001451  11.7149055   5.2736366  63.2662487  12.0631802   4.5135826
  63.4702826  11.2469721   5.7718194  41.7179251  35.3696799  39.9099064
  42.0057201  35.6818986  40.7677650  41.8839598  36.1045790  39.3194914
  36.4486623  63.2682800   8.5602814  36.4995933  62.3278999   8.7315220
  36.4695096  63.6712646   9.4282693  21.3633919  47.0952082  34.4844127
  20.6766415  47.7471209  34.6244621  20.9677362  46.2678385  34.7585511
  48.1645346  26.9489741  16.8235421  48.7608433  27.4498153  16.2669408
  47.5260019  27.5926185  17.1305144  52.2560787   3.4996331  52.3704529
  52.4053478   3.1546295  53.2507515  51.9789696   4.4048771  52.5117874
  67.2290421   3.8554487   6.9300282  66.8138409   3.0752003   7.2975206
  66.5323973   4.5116526   6.9123203  41.0743475  13.5928333   2.3433889
  40.2522087  13.8118231   2.7819747  41.0371017  12.6437473   2.2247274
  41.6351986  16.1394024  19.9205351  42.1849966  15.4598951  20.3106952
  40.7460546  15.7893085  19.9761415   9.3717051  39.4324112  49.7518301
   9.4104046  39.8391962  48.8862324   9.5558965  38.5071301  49.5900869
  33.7888098  66.6448545  15.6093025  33.3345866  66.5245104  14.7753775
  34.2601681  67.4717903  15.5081463   9.1591775  76.1404037  17.1282196
   8.5568738  75.3991890  17.0644879   9.7980887  75.8737040  17.7891994
  70.3376961   7.0837492  12.3719180  69.7803116   6.3364029  12.1550488
  69.7783756   7.8479975  12.2329211  22.4019504  31.1051822  21.1888242
  21.6167068  31.6247725  21.0166359  22.2347522  30.6919813  22.0359015
  72.3903084   1.6821805  18.3040142  71.5512943   1.2215716  18.3152509
  72.8375292   1.3846132  19.0962756  57.1490526  29.3821383  24.6895170
  57.5393629  29.8402977  25.4338145  56.2297773  29.6487260  24.6994638
  76.2528896  55.4237986  24.5007157  75.8423758  56.1841393  24.9125385
  75.6432199  55.1680183  23.8085365  19.8219192  45.8309507  17.3230481
  20.1739931  45.2491617  16.6494024  19.0710652  45.3568649  17.6803911
  72.1316242   1.9056992  21.8767142  72.8573227   1.6175231  21.3230491
  71.8328094   2.7213266  21.4746046   9.8523796  38.1478953  66.2854719
  10.7104838  37.7878642  66.0612726   9.5459318  38.5579562  65.4766655
  71.0977221   3.9104885   1.9403222  71.3868332   3.3953512   2.6935029
  70.3801727   4.4465271   2.2779880  16.0896313  64.0587568  14.3223107
  16.9321167  64.4951057  14.4490027  15.4768169  64.7703457  14.1370213
  49.4408655  11.6415095  60.4819250  49.1640663  12.2390604  59.7872686
  49.1844797  10.7743073  60.1681423  11.4484429  18.2078850  15.8056557
  12.3677707  18.3789194  16.0101473  11.2088811  18.8965619  15.1855218
  60.6253290   7.9402065  43.4251451  59.9323416   7.2803110  43.4018517
  61.0662317   7.7950680  44.2622662  64.3183136  10.0940192  40.9461498
  63.5193729   9.5746744  41.0367203  64.9977303   9.4535249  40.7354593
  37.1198654  68.8843298  30.7036209  37.0769000  69.7598267  30.3190589
  37.9030395  68.4915686  30.3181219  68.7759638  30.1726580  27.8869629
  67.9696560  29.9944973  28.3710718  69.0333223  29.3229032  27.5293112
  21.7443657  53.8946486  19.7064865  20.9136224  53.4638977  19.5051181
  21.9828987  53.5623026  20.5718637  44.1035017  77.6420625  10.3800189
  44.6539435  76.9026197  10.6378365  44.4807657  78.3928211  10.8385682
  16.9703484  54.5911217  34.0346289  16.8827319  55.3618956  33.4738612
  17.6231670  54.0472364  33.5938954  50.1978302   5.3934759  16.6950083
  51.1099148   5.3835702  16.4047742  50.1257086   4.6423295  17.2839129
  67.3954487  27.1738935   0.9654243  66.8994379  27.6329041   1.6432963
  67.4659109  27.8064275   0.2504649  15.2632928  54.0392828  45.0035572
  14.3873215  54.3430090  45.2415800  15.7898712  54.1876030  45.7890177
  33.5626340   9.8612314  34.1116977  34.3076992   9.8549712  33.5108066
  33.9510083   9.7268957  34.9761915   0.1271565  64.9318933  34.7907543
  -0.4917686  64.8184967  35.5120754   0.9886105  64.8965549  35.2065325
  22.3489165  24.5347023  62.3428869  21.9304800  23.9120984  62.9374552
  23.0217624  24.9591041  62.8752375  34.0835428  23.0357480  40.8620405
  34.1401649  22.8896689  41.8063307  34.7452092  22.4530029  40.4894304
  28.7761831  26.1906266  32.2481918  28.0213070  26.7585516  32.0937371
  29.4822121  26.7906976  32.4883366  31.5285921  69.9911928   0.5956867
  32.1991420  70.0952005  -0.0794268  30.8722281  70.6555128   0.3856945
  75.5439758   4.5460758  51.0731840  75.3882170   5.4659206  51.2873220
  74.8685455   4.3323129  50.4295015  26.6971469  25.2281857  14.8081398
  26.5809417  24.7275186  15.6156433  26.6315436  24.5761061  14.1104853
   1.4529470  10.9614098  15.3912067   0.9098116  10.6988168  16.1343622
   1.6357946  10.1441896  14.9275804  65.6917810  68.2082653  44.8808432
  65.2326727  68.2621431  44.0426636  65.3073788  68.9072800  45.4098511
  24.8290467  17.5968242  25.3242064  23.9222217  17.5908649  25.6305790
  24.7782159  17.2885001  24.4194484  77.0548677  35.8433867  33.3866572
  76.2221050  35.8738232  32.9156899  76.8732595  36.2733388  34.2223549
  60.0029278  51.9332647   1.5787168  59.7027969  51.2032652   2.1202496
  60.9272718  51.7459774   1.4151841  78.4265629   0.7129739  37.1519566
  77.6792970   0.3317283  37.6129103  78.3978954   1.6428541  37.3772025
   7.8244275   6.1515725  17.3606348   7.2065783   6.0257262  16.6404557
   7.9735327   7.0967501  17.3858917  15.1119959  55.9996414  28.9970112
  15.7859516  56.6542530  29.1800427  14.4472492  56.4735413  28.4972501
  81.2789822  59.8857927   6.8713754  80.4357147  60.0877810   6.4659774
  81.7773724  59.4473410   6.1817414  54.2651701  11.8880570  23.4201312
  54.1284800  11.0373700  23.8371181  53.4156656  12.1060908  23.0366707
   8.7146497  54.4052649  28.8975358   8.2497919  54.2152739  29.7124243
   9.6052814  54.0897512  29.0507007  28.9456940  48.2184410  21.9620490
  29.6199751  48.5332680  22.5640965  28.9212084  48.8745880  21.2655544
  13.8834095  67.8801823  51.3206482  13.6454463  67.3338366  50.5715752
  14.4126511  68.5839224  50.9452963  52.8999996   4.5023778  43.3403301
  52.6845407   5.3114414  42.8764057  52.4308443   4.5708767  44.1718531
  59.5758200  40.8680916  17.5810325  59.9217749  40.1189852  18.0661929
  60.1538372  41.5937376  17.8167427  63.9363146   1.4881657  66.0989618
  64.4212484   1.0203987  65.4190636  63.2753754   0.8623928  66.3952780
  13.0542469  20.9142423  63.4970522  12.5519705  21.1674166  62.7225542
  13.7100244  20.3000307  63.1670046  27.0300508  64.1738510  43.6603546
  27.9581571  64.2906189  43.4573460  26.8737674  63.2376289  43.5366821
  67.7595758  10.1620352  49.0898848  68.6367559  10.2263868  49.4675684
  67.2852564   9.5800644  49.6836519  15.9276843  56.7247534  32.6769304
  15.2242446  56.0756254  32.6831603  15.5211878  57.5217104  33.0173016
  77.1706915  33.8158250   6.3585246  76.3963604  33.9396882   6.9074297
  77.5844574  33.0244470   6.7031276  41.9923210   6.3038468  25.7254219
  42.5303316   5.5465579  25.9562683  42.4355173   6.6913861  24.9706888
  32.0285797  56.0986280   3.7813610  32.0285940  56.8596268   3.2007414
  32.1465826  56.4657831   4.6574342  40.7783699  56.6033459  27.5293708
  40.5559254  56.4733267  26.6075015  41.6171598  56.1553764  27.6388478
  37.1239853  39.5447183  25.1881289  36.4032435  39.1214228  24.7216678
  36.7418838  39.8178244  26.0221815  47.0032644  51.5903473  25.5071521
  47.7003145  52.0726585  25.0624919  46.8882704  52.0486593  26.3395929
  54.4408655   9.6838886   5.9850812  55.1906633  10.2125871   5.7121044
  54.3708658   9.8361146   6.9275028   9.7390777  52.8839445   6.7170471
  10.6636560  53.1315947   6.7095572   9.3313885  53.4607363   6.0710323
  31.1877775  54.9094200  10.2091289  31.7284083  54.9804735   9.4224262
  31.7147613  54.3892574  10.8157170  10.8932841  63.7530041  21.3562942
  10.7758677  63.5219145  20.4348588  11.5072703  64.4872189  21.3427305
  38.6611414   7.6333207  16.0836720  38.3146405   6.9304156  16.6333032
  37.8992033   7.9619908  15.6065369  27.2488737  53.1351089   8.6781204
  27.2424793  53.9720821   8.2137209  27.5698042  53.3496428   9.5540249
  61.1417866  67.1867657  29.7773004  62.0207882  67.5422382  29.6460319
  60.9221077  66.7761946  28.9409971  42.6252794  25.0106668  18.1047642
  42.5251675  24.3610406  18.8006067  42.9222870  24.5064378  17.3472857
   3.9084658   3.5794514  38.2510328   3.6576658   3.7446773  37.3421693
   4.8581773   3.4639931  38.2202220  36.3272905  59.3857288  31.3529158
  36.3762116  58.8233471  32.1259403  35.3899097  59.5205688  31.2137604
  33.1050038  60.5954266  18.0629098  33.7549996  59.8928356  18.0525815
  33.4198213  61.2225533  17.4118829  31.0271034   0.4869531  31.9757080
  30.2989534   0.7534145  31.4144325  31.4315236  -0.2460076  31.5115476
  13.2297218  26.7690969  42.5377607  13.1503773  26.5839005  41.6020060
  14.0660405  26.3773227  42.7893877   3.7220210  45.2297831  45.0102854
   4.2483169  46.0258293  44.9357367   4.1901964  44.6920681  45.6489563
  32.5233436  46.8436050  23.5142159  32.0971870  47.6559877  23.7874603
  33.3559227  47.1255827  23.1353569  23.6738658  76.9593096  20.3853989
  23.8934636  76.9475603  19.4538033  24.2997098  77.5722027  20.7712913
  62.6200628  68.3516026  20.8126664  63.3915043  68.7447405  20.4045582
  62.5320196  68.8091755  21.6487908  51.0277128   7.7913296  32.1656680
  51.7636108   8.4011722  32.2184181  50.5675411   8.0400205  31.3640285
  80.7738972  30.9846902  52.1353579  80.5960846  30.2413464  52.7115965
  80.1089382  30.9207392  51.4498138  19.8388433   8.3634019  15.4570603
  20.2535295   7.8453219  14.7672343  18.9720249   8.5741735  15.1100254
  77.8551771  78.1641359   1.8308315  78.0723502  77.5506517   2.5327611
  77.5208212  77.6113478   1.1245289  56.4386415  50.5934286  42.4728155
  56.5044355  51.4566517  42.8811693  55.6873798  50.6637239  41.8838358
  53.0428791   9.5922172  63.0500221  53.0034876   8.7928045  62.5250292
  52.2033501  10.0240648  62.8921270  31.1213517   4.0884709  20.0088978
  31.4345717   4.9466074  20.2947760  31.0171270   4.1750237  19.0613329
   7.1983719  72.7956104  59.5489979   7.6104432  71.9725037  59.8115301
   6.8093318  72.6069927  58.6950064  27.7958632  65.8911419   6.5537226
  27.2946644  65.8494520   5.7392931  27.1635509  65.6652308   7.2359079
  30.4769182  72.2674847  34.1642928  29.9815202  73.0178928  34.4924688
  30.5129552  71.6619444  34.9047327  71.5821266  67.0548487  38.6940908
  71.4853096  67.2391558  37.7598047  70.6853437  67.0326614  39.0280294
  60.9787893  35.2025986   5.7373595  61.1033201  35.3859544   4.8061743
  60.6701660  36.0306001   6.1053264  46.4138746  23.3125639  46.1111546
  46.0050154  23.7223053  46.8735075  47.3341131  23.2155967  46.3560772
  71.3528919   3.8905078  38.4722614  71.6073704   3.6106569  37.5929689
  71.9004059   4.6557587  38.6478996  33.6113286   1.8344475  45.3007174
  33.1137490   2.3185085  44.6416807  32.9891109   1.1961886  45.6495762
  21.5721035  50.5860090  34.9833035  22.2023153  49.8881626  34.8042059
  21.9302154  51.3527441  34.5359778  42.1773338  25.8427739  46.2574768
  41.6325235  26.6163874  46.4021635  43.0755711  26.1651778  46.3313532
   0.0676377  77.1447849  33.7745810   0.8517678  76.6535759  33.5294604
   0.3658803  78.0514383  33.8470912  10.3207064  74.5869493  19.2637491
  10.9516358  74.2749691  19.9124622   9.5477611  74.0386248  19.3983948
   3.2078904  62.3635387  19.3222368   3.9753628  62.8096581  19.6802771
   3.5074192  62.0047712  18.4868920  23.2579374  40.8854389  19.5792615
  22.6449561  41.4491558  20.0511813  23.5241127  41.4038706  18.8199151
   6.0607761  19.3636668  21.9963169   6.6799074  19.2521119  21.2748861
   5.9815812  18.4908009  22.3811102  28.2522774  75.7249069  15.7811427
  28.0326939  76.4066076  16.4162052  28.1345415  74.9045324  16.2600493
  31.8385053  56.2121725  18.8915491  31.7664886  57.1427870  18.6794126
  31.0348749  55.8245993  18.5448551  23.7064672  48.1020784  33.3067012
  24.1910529  47.5505877  32.6924801  22.8790450  47.6401949  33.4418750
  19.2905176  61.2648439  66.1028528  19.0373302  60.3522015  65.9642553
  18.5027373  61.7664576  65.8930492  25.6625772  68.0490017  30.2369928
  25.8439255  68.4190559  29.3730426  25.1781654  68.7359476  30.6949091
   9.0615660  73.7485170  50.4616547   8.1065005  73.7891245  50.5109787
   9.3103629  73.1252623  51.1442137  79.0561724  57.6484537  59.1010380
  78.1755781  57.4765778  58.7675095  78.9414883  58.3701372  59.7193050
  33.2281828  50.2052069  28.2212234  34.0612102  49.7960472  28.4555030
  32.8621602  50.4981661  29.0557480   1.7207317  45.7571411  29.2384481
   2.6220500  45.8576536  29.5446420   1.2091853  45.6295872  30.0373745
  65.6104612   9.3606001  47.1549273  65.4454517  10.1547325  46.6466379
  66.5108490   9.4574600  47.4650049  30.7526374   2.6220602  10.1880634
  30.4296136   3.0502972   9.3952835  30.2177119   1.8323824  10.2686477
  24.2398000  36.9959927  31.3810039  24.7298026  37.5855184  30.8077765
  23.9576101  36.2837124  30.8071995  17.5277638  61.5199137  27.8629923
  17.0960236  62.2583246  28.2926202  17.9239368  61.0241413  28.5795760
  57.4324608  24.9879909  51.6909266  58.3881760  25.0402069  51.6801834
  57.2447443  24.0878224  51.9568014   0.2582755  21.6983104  21.4913082
  -0.2045318  20.9198904  21.1813021   0.8543296  21.3703012  22.1646285
  12.4996960  55.2817345  58.9771175  12.1422338  54.4824743  58.5902834
  11.9958544  55.9888983  58.5742569  34.3635988  64.6874762   1.0734691
  35.2002764  64.7634506   1.5321925  33.7502193  65.1905251   1.6091347
   9.2947608  26.4442635  29.5892382  10.0143695  26.8474126  30.0748992
   8.6248630  27.1264482  29.5434904  82.5242063  41.8817854  21.5518904
  83.0826181  42.1642733  20.8275938  82.1681511  42.6945353  21.9109011
  32.0920491  63.2266045  29.8353028  32.9077744  63.1211042  29.3457174
  31.4064074  62.9812908  29.2140532  42.7459335  60.0339890  18.2924211
  43.3045006  59.8750496  17.5315166  42.2094536  59.2445707  18.3647943
  51.8032789   6.8928009  42.6277256  51.8476677   7.4859303  41.8777561
  50.8666277   6.7556781  42.7695370   2.4761182  39.3772745  15.4968667
   1.5422443  39.1790867  15.4273474   2.7125365  39.7220850  14.6357954
  71.8142414  25.4854941  20.2784801  71.1331367  25.4117227  20.9469724
  72.3465586  24.6979570  20.3909779  82.1042538  68.3651590  26.9975543
  81.9803619  69.1168594  26.4180493  81.5015411  67.7017832  26.6615272
  65.4672623   1.1797908  24.6456695  65.6178761   0.7359160  25.4802489
  65.9627676   0.6657323  24.0081382   4.0857679  28.0022335  18.6914921
   3.5080263  27.8207731  17.9501975   4.0087703  28.9462709  18.8296843
  58.4322023  19.7684407  54.7977972  59.1850376  19.8905957  54.2193985
  58.8102198  19.4583273  55.6206989  35.8328772  61.0340214  19.8131216
  36.7210650  60.7774830  20.0611901  35.4362297  61.3423014  20.6279016
   6.1598241  27.9424953  52.0972490   6.7222351  27.1761608  52.2097492
   5.6969965  27.7812886  51.2750340   3.9365336  36.3324976   8.9324111
   3.3571178  37.0931768   8.9757454   3.3626452  35.6081867   8.6828995
   8.3255303  75.6430960  42.9786730   7.4357140  75.2916384  42.9480553
   8.2112211  76.5645599  43.2112026   4.9314147  61.6156054  27.0753837
   4.2808205  61.0275030  27.4589157   4.5079824  61.9614744  26.2896919
   5.3322399  62.2091436   8.8883609   6.0707462  61.7469501   8.4918547
   4.5660540  61.6893768   8.6453903  75.0873041   9.0598398  15.0776911
  74.8345566   8.2487667  14.6366549  75.9253550   8.8556904  15.4926860
  42.2445107  13.2353485  59.4822121  43.0888033  13.3797383  59.0549469
  41.6984463  12.8362620  58.8048792  43.3129740  64.0073633  40.2480602
  43.2632685  63.9068937  41.1986780  42.4071598  63.9224052  39.9505472
  12.4840724  56.1220646  34.6083927  11.9889641  55.3983879  34.9923038
  13.2790196  55.7133484  34.2659855  49.5967531  73.9253426  22.2123885
  49.1789341  73.3633184  22.8649139  50.2812624  74.3868446  22.6968360
  71.4410734  14.1486740  61.8773985  72.0400953  14.6476424  62.4327660
  71.6136789  13.2339239  62.1002674  29.8519325  69.0854454  23.2002997
  30.5222487  69.5286131  23.7204051  29.8013639  68.2057619  23.5742307
  60.2242088   8.8966751  59.6240616  60.2426529   8.3044314  58.8723087
  59.9560022   9.7396231  59.2583656   3.9689013  42.0705080  37.1914124
   4.3999225  42.6994324  36.6127014   3.2151437  42.5450850  37.5419283
  41.2107182  75.8390665  48.0388403  41.4100647  76.7076302  47.6894188
  41.7580557  75.2435637  47.5269604  59.2496490  58.9535284  49.6002197
  59.2097187  58.1049204  50.0412464  58.5731363  59.4780827  50.0284719
  31.1832786  26.2101960  12.5489604  31.7256927  25.8455229  13.2482696
  31.7154169  26.1154628  11.7589700  18.8751721  49.0570831  45.5879927
  19.2986512  48.9151716  44.7413778  18.5505092  49.9565458  45.5456209
  15.5231643  66.8600416  64.1920328  16.3931239  66.9403744  63.8009453
  15.6396914  66.2372637  64.9095345  28.7542844  64.1678476  23.2811785
  28.5297990  63.2532740  23.4526229  27.9299808  64.6416330  23.3920240
  48.0554247  61.3564444  40.7134676  47.5537443  62.0562267  40.2953196
  48.4180212  61.7600012  41.5020752  48.5858297  77.6239014  63.2434654
  48.9362144  77.7522087  64.1249418  48.2419348  76.7306376  63.2500982
  46.9327354  58.2872486  43.9853573  47.5187492  58.3408976  43.2304096
  46.1230469  57.9166794  43.6341953  67.3198414   3.9489210  51.4558554
  67.4126387   4.0322071  52.4048996  68.2047987   3.7589383  51.1444235
  21.2501001  56.7352629  34.1376162  22.1499515  56.4538336  34.3028378
  20.7761002  55.9248400  33.9511538  81.2063694  13.6655974  12.7401936
  81.9238663  14.2979395  12.7798855  81.5343857  12.9663396  12.1747947
   6.0912186  60.8851099  56.3865995   5.6063271  60.8737707  55.5613804
   6.9830060  61.1273670  56.1370802  44.4792223  57.4484587  56.3393211
  44.6598768  58.2338047  55.8227730  45.1878405  57.4162531  56.9820166
  46.0355043  46.9712019   7.4592137  46.6221952  47.6744175   7.7376246
  45.6074047  46.6831589   8.2654339  34.8564458  40.2613068  14.2844892
  35.4813743  40.9860420  14.2631805  34.1049314  40.5782604  13.7834918
  45.7269573  31.6585565   7.3640883  45.8891249  30.7207656   7.4664664
  46.4816713  31.9796610   6.8705970  64.8898935  34.7217727  67.0384121
  64.5427895  35.1499796  66.2558603  64.1266203  34.5992541  67.6028872
  80.0832939  23.9284325  64.2626905  80.9524822  24.3199921  64.3488979
  79.9194527  23.9142418  63.3197212  48.5513592  18.5411394  59.0015364
  48.7175465  17.9277086  59.7173023  48.9328194  19.3666863  59.3001842
  14.5830059  39.3196106  57.7876711  13.9732122  40.0427580  57.9341125
  14.0456736  38.6275053  57.4023199   7.6928169  61.3417768  32.9967237
   8.4352070  60.7402802  32.9393268   8.0271596  62.0881271  33.4941244
   6.9483799  65.6469822  31.4803171   7.8075755  65.6584024  31.0585523
   6.7458248  66.5694237  31.6362286  23.0703259  56.1389399  27.9451013
  24.0051246  56.3448048  27.9444313  22.6532936  56.9201422  28.3084631
  50.1849842  16.8564606  36.9937539  50.5650520  17.5135469  36.4106417
  49.2865276  17.1540773  37.1366906   8.6344337  51.2195492  39.3643308
   7.9043037  51.1246347  38.7526655   9.1326326  51.9648361  39.0288091
  45.4277182  12.1425760  63.4209776  45.4767799  12.5248301  62.5447893
  45.9798384  12.7085626  63.9604712  80.7900333  77.1257782   6.9228089
  81.5976810  77.5093985   7.2645384  80.0993824  77.7190161   7.2182637
  53.6030722  14.3535531  44.9220896  53.2464933  13.6337745  44.4015121
  54.5481873  14.3085861  44.7772884  72.5719500  73.1667519  28.2831597
  72.8813791  73.9259768  28.7771845  72.5510359  73.4649897  27.3738503
  21.3980508  33.0557466   5.9383070  20.6960535  33.0762529   6.5887004
  21.1680913  33.7456036   5.3158557  20.9293556  24.6088815  14.3651307
  21.7489457  24.7125793  14.8486078  20.9872293  25.2487540  13.6555910
  66.4204645  39.4280314  14.7480631  66.1393642  39.3827844  15.6619382
  67.3766613  39.4182348  14.7908282  44.5757341  18.5265207   1.2201396
  43.9880466  18.5146320   0.4646854  44.9829865  19.3923438   1.1931750
  10.1138687  33.5273242  25.2996016  10.7434046  34.2476678  25.2676582
  10.5603647  32.8408241  25.7951689  27.0768428  56.8695879  53.4881639
  27.8062606  57.4809599  53.5901451  27.4675035  56.0964346  53.0809164
  31.4781570  72.0175457  44.3687773  31.2072754  72.8389740  44.7787905
  32.4282503  71.9947672  44.4829559  41.0030031  37.7180123  35.8681250
  41.4550734  37.2205162  36.5495658  40.4630470  37.0694494  35.4164076
  22.9815722  59.2710781   3.0364007  22.0658660  59.4937849   3.2040772
  23.2773137  59.9303293   2.4085855  77.4747086  65.1506090  56.8174410
  77.8219557  64.3749380  56.3770103  76.5700674  64.9207258  57.0296049
  63.6425114  25.0571108  31.2865543  63.0646515  25.1750445  32.0404792
  64.0694475  24.2145276  31.4415026   8.6846936  63.5419846  34.5303130
   8.0787301  64.1726637  34.9192691   9.4314361  64.0700817  34.2479634
  36.6618276  75.9956598  13.5782576  36.3148999  75.1099586  13.6850405
  36.9825196  76.0201979  12.6767111   3.7038231  20.1474142  57.8512669
   3.7195021  19.2108035  57.6544237   2.8263313  20.3041959  58.2000637
  59.4674015  76.7309380   4.5777649  60.1691341  77.3553276   4.3935210
  59.6781301  75.9680653   4.0393895  38.8461256  14.9483943  11.5803289
  39.2484117  14.1336584  11.8813324  39.5634651  15.5821371  11.5753353
  72.8272915  62.8750372  58.6810446  73.4480476  63.4269476  59.1567469
  72.2145748  63.4927464  58.2819939  45.7041454  70.8204651  11.3722551
  45.5362749  71.5617943  11.9540429  46.6148281  70.9316683  11.0992634
  63.4511137   5.0887406   1.1717915  64.3244886   4.7149774   1.2890504
  63.1876898   5.3622389   2.0504487  38.1278944   1.0380906  46.4164829
  38.1694365   0.7144929  45.5166006  37.2748971   1.4681366  46.4772320
  35.7279420  48.3824015  14.6920598  35.6149030  48.5769892  13.7616897
  34.8415327  48.2117605  15.0104856  22.2083855  23.9700484  22.6522660
  22.6635575  24.7837901  22.4357605  21.2795520  24.1988707  22.6184702
  43.8536358  64.6240902  45.6693029  43.6687374  65.4890013  45.3032732
  44.2270660  64.8039913  46.5321016  30.5988908  77.3455477  41.9055700
  30.4950905  78.2201433  41.5306807  29.9529338  77.3091269  42.6110077
  43.4025288  62.5892401  29.4548345  42.7672720  63.3051634  29.4664884
  43.6551332  62.5081253  28.5351396  18.1615531  55.6125498  25.4582596
  17.6469612  54.8861313  25.8100271  17.6304710  56.3893366  25.6337214
  47.2839594  77.9059172  15.5292761  47.9700232  77.9189634  16.1966407
  46.9576025  77.0061255  15.5388367  82.5661992  75.1636362  17.2987247
  83.1270161  75.8525467  16.9421852  81.8959246  75.6333590  17.7950370
   4.7943175  59.8508930  48.1034279   5.6743604  59.4752359  48.1286955
   4.4698870  59.6422243  47.2273922  73.1811190  26.3720417  41.0430145
  73.4538412  25.7854414  40.3374958  73.9813280  26.8337989  41.2933683
  11.6708201  44.3635351  67.2226353  11.4343709  45.2907741  67.1991764
  12.4991005  44.3396211  67.7018160  32.0071721  52.4632215  39.2755103
  32.7021313  52.9990625  39.6577835  31.8940926  52.8126383  38.3915687
  73.9935541  16.4044380  62.9233980  74.7921562  16.1563838  63.3891630
  73.6843109  17.1876705  63.3785343  80.1672363  65.4541874  61.6904402
  80.1256752  65.4135752  60.7350016  79.3809366  64.9940968  61.9841576
  75.1833868   8.7925410  36.4320254  76.0847807   8.5264850  36.6135001
  75.1056576   9.6607101  36.8275905  74.4201994  77.1072960  22.5290632
  74.8753595  77.1724224  21.6895270  74.0957403  77.9924250  22.6948977
  44.7048330  48.2202768  65.6268740  45.4233980  48.6750841  66.0662460
  44.6907711  47.3511648  66.0277176  39.3485117  67.6597214  29.5625997
  40.1066494  67.4458361  30.1063895  39.4041729  67.0526552  28.8246250
  38.5424209  77.1500492   2.6614162  39.4263411  76.7863894   2.6097706
  38.4383988  77.3971367   3.5803068  30.5750585  67.7512598  11.7249143
  31.2393308  68.0479670  11.1028683  31.0759759  67.3837662  12.4531054
  66.2630558  14.9674416  45.8973503  65.6181908  15.5896342  46.2338877
  67.0940399  15.2561843  46.2746048  44.5860338  56.5385866   4.9258274
  45.0844336  55.8748531   4.4490814  44.0943670  56.0439110   5.5814123
  35.2127671  40.1836586  31.9689631  35.4839754  39.2670393  31.9190621
  34.9312377  40.3010798  32.8762579  39.4045591  25.6588960  40.9452486
  39.1638350  26.5841770  40.8989906  38.7482142  25.2692437  41.5228415
   7.1357042  19.2748928  13.3742154   6.8881685  18.8392186  12.5586498
   7.8874886  18.7759113  13.6936998  31.4301157  57.9331303  37.6141548
  31.2874937  56.9875526  37.6563334  30.7128406  58.3066177  38.1262636
  59.5976496  13.3563721  40.3390884  58.8429928  12.8355193  40.6137466
  59.2196178  14.1753316  40.0187302  12.3249960   0.3954742  57.3296070
  12.3430300   0.8865155  56.5081549  12.8212535   0.9370481  57.9433346
  36.3564897  69.7379017  56.2655544  36.9472432  69.8476791  55.5204391
  36.8850756  69.2905903  56.9264174  14.1116440  76.8528557  27.0415974
  14.9986732  77.1818590  26.8961000  14.1161537  75.9750605  26.6599131
  22.3063827  31.9674563  37.2551441  22.7103257  31.9907856  36.3876653
  21.6756964  32.6874352  37.2451091  61.3318777  57.3722696  62.5265121
  61.5137005  57.6647091  63.4196281  61.8734264  56.5908527  62.4154282
  41.1106443  59.3259573  28.6864948  41.0055447  58.4610415  28.2901335
  40.2589178  59.7473001  28.5713148  69.2801476   4.6025971  27.4907231
  70.1143456   4.7552031  27.0468116  68.6266088   4.6415603  26.7924404
  23.9018703  23.5038114  30.8255625  24.7701955  23.7589169  30.5138540
  23.7757134  24.0129018  31.6262770  34.1157603  76.5396547  25.9669042
  34.1830397  77.0535326  25.1621461  34.1836977  77.1856594  26.6699672
  44.9081755   5.4526341  26.2215137  44.7478628   6.3946849  26.2769341
  45.7132244   5.3763998  25.7093406  36.1210966  36.4882231  59.5681143
  35.6815219  35.6440306  59.4664001  36.4615703  36.4747357  60.4626083
  74.6789265  66.8892097  12.5558507  75.4731321  66.4743710  12.8925681
  74.8323345  66.9715834  11.6146219  46.8686819  26.8697619  50.3959894
  45.9967470  26.8943310  50.7901478  47.4220467  27.3547077  51.0082388
   0.0279130  44.8392105  57.2819233   0.6808554  45.2635288  57.8385687
  -0.2564876  44.0762949  57.7852154  59.8171282   6.8860769  16.0944974
  60.6620979   6.7098641  16.5082705  59.3179417   7.3582542  16.7609000
  81.2305069  42.3974180   4.3201149  80.4297924  41.9845772   4.6436080
  81.1371326  42.3874283   3.3675325  41.1979103  17.3572361  42.7791882
  41.1794710  16.5913594  43.3530569  40.7394123  17.0746875  41.9878721
  79.7639942   3.5678396  38.9644766  78.8084507   3.5494685  39.0177011
  79.9503899   3.6403102  38.0284023  69.6932697  55.2279711  34.6812057
  69.7002840  54.2994642  34.4487023  69.1806221  55.2688599  35.4885173
   7.3978078  70.9446287  47.1822929   7.6767868  70.5510521  48.0090380
   7.7564079  71.8317938  47.2063208  37.8206396  18.0025530   3.6481851
  38.6931324  18.3220792   3.8781622  37.2872710  18.7940192   3.5751647
  19.5177436   6.0382909  31.0828376  18.7088346   5.9784847  30.5745840
  20.1632285   5.5594540  30.5629373  66.3499451  77.6080847  53.9179611
  65.9991789  77.5254774  54.8047352  65.9980679  76.8510103  53.4497166
  54.2101860  73.1059599  41.3168621  54.2314863  73.5974932  40.4957867
  55.1265287  73.0536890  41.5885592  33.0382609  77.5818348  50.6603765
  33.1306839  78.0840921  49.8507881  32.9113340  76.6789579  50.3689384
  60.1559210   4.2605215  36.6202807  59.3568993   3.7861153  36.8499184
  59.8964214   5.1818717  36.6223979  25.1804519  67.3304844  16.8294382
  25.6647420  67.6658154  16.0749543  25.4047418  66.4005756  16.8639719
  14.0138423  30.4708123   5.6169069  14.6213543  30.6154823   4.8914880
  14.1499269  31.2204099   6.1964035  34.3400621  69.3781090  38.1855488
  34.8037052  69.0455818  38.9541149  34.9749899  69.3057203  37.4729085
  34.6032548  65.6715155  62.8899288  34.3734527  65.2864170  62.0442772
  34.0814185  66.4725161  62.9380798  17.6645803  62.3473930  24.3118405
  17.0834637  61.5983057  24.1799188  17.4342871  62.9557610  23.6096430
  65.7172060  27.0791793  27.0898557  65.8997774  26.4807892  26.3654041
  64.7645807  27.1726179  27.0890617  62.9494572  66.3466978  12.1944582
  62.3263693  65.8045626  12.6782775  62.4087238  66.8420124  11.5792310
  26.4580250  48.3818626  16.3700676  26.4927149  47.4282455  16.2949622
  27.3654747  48.6642694  16.2559831  62.2115946  15.1027632  34.2558312
  61.5852833  14.4212830  34.0117931  63.0624199  14.7510362  33.9938855
  41.2931967  60.9158134  43.2993937  41.7237186  61.4131546  42.6040268
  41.8991995  60.9640217  44.0387678  16.0168624  52.9746962  25.9587002
  16.3847888  52.0941114  26.0324097  15.0705779  52.8362942  25.9184003
  70.5993938   9.5525211  34.1434908  71.4379454   9.7036791  34.5796323
  70.5073929  10.2892828  33.5393810  59.6792364   2.6262990  26.2731719
  59.4844151   2.0393024  27.0037270  58.9278078   2.5367561  25.6870198
  67.8406715  61.1790085  45.3024197  67.1114206  61.7630529  45.0943184
  68.6146116  61.6350269  44.9718189  75.1153612  34.8109317  19.6373200
  75.9645510  34.3912840  19.7751701  74.9463654  34.7076488  18.7008345
  71.3931084  71.7684364  40.4648829  71.6242266  72.0207262  39.5709205
  70.8916473  72.5111294  40.8012962  69.4716024  73.3220148  51.3569880
  68.9636660  74.0406752  51.7334938  70.3842020  73.5786057  51.4894629
  64.2469597  66.3583422  46.7741823  64.3025541  66.5991449  47.6989269
  64.8405933  65.6128025  46.6847134  13.5561144  23.5388875  33.9630437
  13.2806611  23.5712862  34.8791814  14.4137049  23.9639950  33.9556146
   5.5975789  35.5436349  55.9975052   5.9029120  34.6455073  56.1254454
   6.3973510  36.0511422  55.8595419  65.2949286  32.9961324  58.4190655
  64.5879316  33.5271668  58.0524826  65.1077795  32.1071315  58.1175947
  32.2313094  69.0545511   7.0371717  31.8036771  69.8882771   6.8415546
  31.5304780  68.4055424   6.9751287   6.3310218  53.4338427   5.8534724
   6.7137986  53.8175964   6.6424239   6.8411887  53.8062143   5.1342374
  80.2277851  35.8583498  34.9520445  80.4255581  36.1769366  34.0713501
  79.5929193  35.1551390  34.8154116  41.6392422   1.0729194  14.7557926
  40.9540462   0.4130714  14.6493220  41.4988089   1.4243290  15.6350088
  62.6102686   2.5847685   5.3508800  63.4101725   2.1067432   5.1320696
  62.1402359   2.6580405   4.5202604  15.6632614  73.8024616  30.4262280
  16.3358867  74.4587040  30.6083131  16.1507511  72.9883718  30.3003621
  61.9018555   4.5316356   9.2063731  62.7903223   4.7102696   9.5145077
  61.6763067   5.2927107   8.6714667  25.9150147  63.0412626  13.7940955
  26.3909364  62.3530245  13.3292770  25.5607152  62.6057720  14.5693731
   7.6248813  32.8398418  45.5560446   7.5875908  33.6516738  45.0503063
   6.7124367  32.6532125  45.7770538  45.4954672   1.1363620  35.5813098
  44.6589231   1.4494336  35.9254217  45.3777981   1.1337630  34.6313739
  71.5157270  30.3204298  10.7376254  71.4482737  31.0000014  10.0669050
  71.8311357  29.5492744  10.2663851   6.2781876  75.4882765  56.3584375
   7.0710158  75.2927732  56.8578720   5.7867205  76.0916615  56.9157696
  28.9893031  19.6761048  16.3755834  28.8370204  20.4864597  15.8894086
  29.3378401  19.0677345  15.7239401  31.2994289  50.1780415  40.3211212
  31.9479418  50.2865076  41.0167503  31.3980889  50.9598112  39.7776747
  15.1494741  18.4943116  49.3799496  15.3445828  19.3139565  48.9257002
  14.2036581  18.5200608  49.5248699  79.3908167  45.9286499  25.0240469
  79.6331978  46.8531227  24.9708200  80.2183819  45.4579735  24.9248862
  12.8308344  62.6374674  27.9942608  12.5758147  61.7927313  27.6232910
  13.6005759  62.4418497  28.5285497  31.5397191   0.3979168  28.8390303
  31.2785602   1.3036492  28.6726665  30.8253479  -0.1274002  28.4785485
  24.0549922  76.6086340  17.3994279  24.4848323  77.4636555  17.4195814
  24.1984725  76.2893677  16.5085220  64.7157145  41.3735628  21.2020588
  64.0180349  41.9108534  20.8268309  65.2690268  41.9954205  21.6746855
  57.4250698   6.2067199  57.8514719  58.3681917   6.3668066  57.8179312
  57.0882750   6.8821508  58.4401941  49.5795107  61.3263798  18.0966532
  48.9910650  61.3797855  18.8497221  50.1744843  60.6069994  18.3081436
  72.3625803  36.7827964  25.2759767  72.1342611  35.9102130  24.9555063
  73.3031178  36.7363930  25.4476285  47.3010683  69.9621105  48.3098555
  47.7367115  69.4756746  47.6099730  46.7529058  70.6000042  47.8528690
  38.4188628  60.2759981  20.2974391  38.6618948  59.3585300  20.4216290
  39.0031743  60.5870724  19.6060324  50.5766582  74.9732542  25.7000613
  50.8998632  75.5327272  24.9938273  51.3549185  74.5160437  26.0186553
  69.4988585   2.5685230   5.1612788  68.8001394   3.0828646   5.5656040
  69.0404654   1.8937738   4.6604565  32.1642733  59.4516182  26.1007190
  32.8840494  59.9417305  26.4981413  32.4231029  58.5340881  26.1866021
  55.8148241  47.6689959   7.1245700  55.3124666  48.0507374   6.4047480
  55.9751511  46.7655277   6.8520427  67.0894670   3.8922963  44.2370653
  67.6217461   3.1619379  44.5524788  67.0069790   3.7395564  43.2957363
  11.4655888  17.7122116  33.8714838  12.2563148  17.1729636  33.8854909
  10.9523523  17.4041784  34.6184349   3.7602711  65.0672626  54.0429211
   3.5639894  64.1306639  54.0207529   2.9353651  65.4905462  53.8050318
  20.5724764  28.2162714  11.1097896  19.7944140  28.7288141  10.8903551
  21.2021923  28.4301686  10.4213560  28.2896709  65.8291912  28.4192896
  28.4433722  66.6208029  28.9349961  28.9856434  65.8325529  27.7621412
  27.0067096  23.0030203  22.9036331  26.1108088  22.7368498  23.1103826
  27.0708895  22.9100132  21.9531274  47.5225353  55.2822113   8.3544624
  47.5273085  55.6420803   7.4674988  48.1245470  55.8429766   8.8437021
  34.2395043  68.4495163  26.5197420  34.9134994  69.0754414  26.7846608
  34.7274828  67.7170801  26.1433816  24.0296006  42.6041031  23.2578063
  23.2681322  42.1259785  22.9294848  23.7955832  43.5265970  23.1554437
  42.4130106  55.7602978  19.9327207  41.7107916  55.1677227  19.6644402
  43.1154060  55.6001806  19.3024528  45.8239174  25.7265544  12.7340078
  45.6250763  25.1812410  11.9728720  46.1780405  26.5349841  12.3635066
  47.0090246  71.3484335  33.9567494  47.3745775  71.7253160  33.1563973
  46.0669899  71.3052893  33.7926173  44.5015192  65.5635357  27.5424504
  43.8068151  65.8232498  28.1475663  44.4760656  66.2245750  26.8506360
  50.0992918   5.2598602  28.9113593  50.0432634   4.7827965  28.0834079
  49.2485142   5.6898487  28.9980769  82.3843103   9.8095012   8.5020179
  83.3330927   9.6859932   8.5301167  82.1585036   9.7204560   7.5761050
  20.1215529  37.1990156  40.2144337  19.3808162  36.9990444  39.6421099
  20.2452278  36.4038658  40.7327700  52.6828146   2.1297012  57.5308847
  52.8372526   2.4017926  56.6262627  53.5398197   2.1992114  57.9515314
  33.3499694   8.1377023  38.1528687  33.8890839   8.3848071  37.4015188
  33.9799190   7.9564476  38.8503957  56.8769407  46.4726734  63.0035162
  56.8371630  46.7966223  63.9033508  56.7130709  47.2456264  62.4632168
  58.8147879  68.3927107  13.4321117  58.4727430  68.0302572  12.6148820
  58.7754965  67.6644707  14.0520751  33.9585185  36.9728112  46.2845135
  33.5967731  36.2464261  46.7921972  33.8811255  37.7313828  46.8631411
  45.6135988  11.7346025  32.4231958  44.6724892  11.7499888  32.5973034
  45.7565880  12.4599731  31.8152285  52.3947048  17.8758872  31.6264153
  52.0068026  17.0129049  31.7714071  52.5443172  18.2221103  32.5061750
  13.4337771  65.0116873  27.2106814  13.2533109  64.0834236  27.3589945
  12.8480732  65.2581596  26.4948368  29.0544200  76.7714262  44.1930199
  29.0924740  77.3986101  44.9151182  28.3870721  76.1392117  44.4598103
  64.7013044   9.1691321  44.0400410  65.4732466   8.6388493  43.8422203
  65.0546026   9.9760234  44.4146585  74.8553085   6.4361322  58.9176321
  74.9937391   6.4602810  57.9708052  74.2512083   5.7060516  59.0528297
  65.1576042  17.8407931   6.2322026  65.0537014  18.4511149   6.9622326
  64.4335556  17.2226882   6.3318592  62.1831799  26.6834545   5.0128967
  62.5707579  27.5186205   5.2746451  62.9326725  26.1039734   4.8761731
   1.9586734   3.7685382  36.0002542   2.7827528   3.4476316  35.6339955
   1.6601628   4.4294414  35.3754878  47.2287273  14.6863759  49.3862915
  47.7370739  14.4313145  50.1561975  46.4391613  14.1471171  49.4311905
  23.6088228  12.0838892  18.1092250  23.9285874  11.7391658  18.9429808
  23.3905578  12.9970622  18.2955205  45.4306936  18.7966430  39.0789199
  45.9955406  19.5681024  39.0338659  45.0700474  18.7119758  38.1963110
   5.2558857  69.2251396  13.0623138   4.5607865  69.0240097  12.4357235
   4.8378488  69.1402149  13.9192057  81.5108109   7.2575241  58.7105465
  80.8335018   6.5889966  58.8132715  81.6664600   7.2977746  57.7669430
  61.6114902  18.3174896  32.0375514  60.7432270  18.6331737  32.2879386
  61.4389324  17.6026130  31.4248466   2.9949164  10.6122267  22.3139977
   2.2231328  10.7562339  22.8615785   2.9321980   9.6948159  22.0481873
  64.0643072  15.1307142  26.8542480  64.9577236  15.2424836  27.1791267
  63.5292244  15.6735098  27.4332952   5.4977793  53.2593584  34.9187112
   5.8010751  52.3658466  34.7578359   6.0892123  53.8092279  34.4048190
  52.9664087  18.0223811   4.3248111  53.5704374  17.5671852   3.7381443
  52.0973492  17.8170848   3.9801088   7.3010290   9.6413875  49.2374802
   7.6420021   9.4635373  48.3609295   6.4438671   9.2155999  49.2519903
  48.1128407  25.7261705   3.6096084  48.2502556  26.3547373   2.9009104
  48.0170774  24.8830175   3.1667161  37.0495462  71.8343973  39.6346736
  36.5275025  72.3625517  39.0307212  37.9563808  72.0077753  39.3820405
  72.9561901  15.6241715  31.9688964  73.5379457  14.9076772  32.2227192
  73.5461378  16.3446224  31.7472124  22.0917249  56.1138105  18.2804215
  21.7854810  55.7909536  17.4329507  21.9924712  55.3672647  18.8712227
  73.1541872   6.0777247  39.1036367  72.9413700   6.5662909  38.3084989
  74.0350866   6.3710648  39.3364382  39.1602445  76.0903597  26.8206024
  38.8041472  75.2769947  26.4630222  40.1061821  76.0126305  26.6965365
  66.3855982  64.6213770  63.8021231  66.4811039  63.6791515  63.6631250
  67.0430374  65.0158691  63.2290792  20.8573985  67.7874231  60.1876593
  21.3626051  68.5968590  60.1114082  20.4935217  67.6489258  59.3132210
  51.3974571   7.3633528  27.6319337  51.0065365   6.5494025  27.9495835
  52.3139715   7.3106021  27.9029417  22.0093322  46.7367125  63.0357695
  22.0470810  45.7870483  63.1495476  21.0738683  46.9375038  63.0070734
  75.0675011  24.2936110  37.1824694  74.9303627  25.0157309  36.5693069
  76.0142231  24.1524291  37.1783566  30.6340528  74.7246122  59.5276880
  31.2028456  74.0686512  59.9307060  29.8758578  74.2277765  59.2202377
  49.8782825  73.2917261  65.3884363  50.3038406  73.2622719  66.2453318
  49.1353989  72.6935434  65.4692650  57.8548574  27.4154973  42.5966692
  58.7269783  27.0215392  42.6174831  57.7518702  27.7218556  41.6956854
  53.4670305  10.1386750   9.5269209  53.4482431  11.0022783   9.9393135
  53.3101130   9.5264906  10.2458358  65.9027052  47.9259920  51.2652969
  65.4310846  48.6940241  50.9429073  65.2502203  47.2256470  51.2625027
  59.6859074  55.3219414  18.6553741  59.2644453  55.0918627  19.4834232
  59.8517132  54.4810152  18.2292402  29.9133229  71.2290859  19.7740328
  30.7370925  70.8267641  20.0493002  29.2815995  70.9623957  20.4418921
  33.3305097  67.9622793  62.8633356  32.7637386  68.3419037  62.1918535
  33.5459518  68.6967278  63.4381390  76.7343998  36.2298799  49.0711212
  75.8203363  36.4444900  49.2572975  77.1914101  36.3922024  49.8963642
  75.7057428  64.8973751  37.7366376  74.7837830  64.8762131  37.9931116
  76.1736250  65.1156092  38.5426688  74.0200710  12.9304647  29.2323184
  73.4591103  13.5811245  28.8101864  74.4957304  13.4224212  29.9016190
  68.5966396   3.5120332  29.8299360  69.1612720   3.8454181  29.1325998
  68.8972759   3.9641234  30.6182647  39.0399289  74.9335146  44.2057514
  39.2479348  75.7205820  44.7092295  38.1452751  75.0762939  43.8968134
  53.8766956  61.9967985  42.6583004  53.6959267  61.3140631  42.0122147
  53.5840988  62.8063059  42.2395897  64.8580694  16.9863379  18.8005638
  64.3144226  17.1161735  19.5776248  64.9095821  17.8526890  18.3968127
  78.7627125   6.8114394  39.5826507  79.1839409   7.2212058  40.3382254
  79.4175148   6.1998528  39.2458582   1.0649203  46.5557194  15.4555178
   1.0850152  47.5124311  15.4324222   0.5151184  46.3458586  16.2104404
   2.4613340  38.0414176  46.4694834   2.6965821  38.3568645  47.3420572
   1.7814970  37.3862243  46.6268873  73.8355875  36.2416196   3.8441491
  73.2821751  36.5618324   4.5564869  74.3284559  35.5177665   4.2306066
  71.6114712  28.5018420  14.5976377  72.4463844  28.3502769  14.1547179
  71.1776352  27.6486397  14.5894277  38.9837980  33.4426403  20.6401610
  38.2302523  33.3774495  21.2268043  38.6778331  33.9903188  19.9172056
  74.4508076   8.9597744  28.8145518  74.4102669   9.6112466  28.1144285
  73.5969734   8.5278326  28.7895250  63.9704466  30.1954150  34.9416423
  64.1865206  29.2971802  34.6912003  64.1222048  30.7084560  34.1479230
  66.3459444  71.6399622  23.4221554  66.2708855  71.2445641  22.5536728
  65.5535936  71.3615274  23.8813782  63.9695835  32.2853684  12.8050280
  63.6898565  32.4629664  11.9070053  64.8375797  32.6838112  12.8687501
  52.0937395  15.5817032  29.3554211  52.9201603  15.1499510  29.5718813
  52.3523092  16.3608074  28.8631105  82.9415894  46.0701895  36.1850953
  82.8724480  46.8780518  36.6938305  82.0345688  45.8093643  36.0253525
  60.4614258  14.3888104  29.2521477  59.9115086  15.1720750  29.2700291
  60.5237961  14.1610777  28.3245277  58.4486198  72.4170160  16.0603237
  57.7680922  72.1557474  16.6806877  59.2294073  72.5417471  16.5998089
  49.7271919  33.8079762  61.0715389  50.5648184  33.7285066  60.6151533
  49.9022102  34.4168591  61.7890787  78.0488539  58.8103914  40.0682211
  77.8424549  58.0498791  39.5248485  77.2013474  59.1013575  40.4048204
  78.7745285  74.0071774  57.7257776  78.3338737  74.5406961  58.3871508
  79.6747589  74.3323469  57.7166367  80.2273750   7.4316061   3.5298210
  80.2184391   8.3159983   3.1637582  81.1203194   7.3158288   3.8545910
  15.0959277  25.4652190  37.5829959  15.8959115  24.9510431  37.4740005
  14.9892616  25.9220147  36.7486143  19.7675788  28.3452344  15.3296769
  20.5316544  27.7724767  15.3957868  20.0706148  29.0897894  14.8100245
  29.4156146  24.5808482  63.8348103  30.3254557  24.3349910  63.6675549
  28.9443254  24.3037724  63.0490971   2.0891772  26.9098544  25.0803614
   2.5263643  27.4322867  24.4079280   2.8041598  26.5285182  25.5898833
  33.7926292   3.1806517  10.1366556  33.3624434   3.1914848   9.2816389
  33.1162930   2.8751755  10.7412088  23.7734914  63.1593847  64.9858952
  22.8576136  63.0607653  65.2460384  24.2707229  62.7863169  65.7137775
  70.8152056  26.9203544  10.9719360  71.6674232  27.3285174  10.8190930
  70.3041601  27.5937986  11.4208663  55.6198692  44.6454048   5.5200571
  56.1314869  45.0095701   4.7976592  55.9976673  43.7784386   5.6679422
  60.6802177  37.1138549  65.3340435  59.8031044  36.9352579  65.6731796
  60.6171846  36.9280744  64.3971634  72.4071169   5.8871466  11.3860774
  71.6473246   6.4637256  11.4667368  72.7745724   6.0939556  10.5267537
   4.1030063   8.0317533   0.3951889   3.7732305   7.9898870   1.2928110
   3.8242258   7.2062576  -0.0011391  56.3194561   6.7364907  24.5437384
  56.3280296   6.0966307  25.2555943  57.2165775   6.7354739  24.2099619
  62.4128962  65.7508278  20.4712057  62.4142456  66.7073536  20.4353285
  61.6729164  65.5334568  21.0381341  60.2279758  12.7426183  16.3001370
  59.8080206  11.9407701  16.6114354  60.3044701  12.6210690  15.3537714
   1.8212108  35.1530910   2.7002808   1.7373270  34.6034288   3.4794253
   0.9190343  35.3326058   2.4355476  31.5279961  74.4253159   7.2355884
  31.6950440  75.0913095   7.9025060  31.3538432  74.9240780   6.4373779
  73.3450651  76.6456938  56.4150715  72.6658201  77.3049116  56.2726068
  73.5523272  76.3220263  55.5384207  78.9966488   4.7602054  52.1725845
  79.5400810   4.4390631  51.4530182  79.5327616   4.6290034  52.9546356
   5.0213677  29.3168235  33.6158252   4.8025650  28.5347557  34.1225076
   4.1825104  29.7580433  33.4821296  81.4418221  12.6392162  26.3494706
  80.9580517  12.4319839  27.1490026  81.2653446  13.5674930  26.1965442
   3.8709462  70.1341534  36.7033601   4.1371426  70.0877666  37.6216316
   4.0714374  71.0325861  36.4409590  33.9774060  46.1981010   2.1206710
  33.5434055  45.3611279   2.2860552  34.8106599  45.9596682   1.7143871
  76.6442823  27.6473522   3.3177921  77.2502184  28.3634186   3.5083917
  77.0043325  27.2309494   2.5347173  69.2979622  52.9051876  24.6825409
  69.0392637  52.4133587  23.9031720  70.0965595  53.3641005  24.4220185
  61.9154406  74.6932459  26.8487597  61.8116951  75.1427412  27.6874638
  61.0949564  74.2146730  26.7304039   9.0214896  19.6779525   2.8588167
   8.6482817  20.5593657   2.8663683   9.9148196  19.7933257   3.1826717
   0.7619441  10.5907774  33.4290814   1.4170003  10.8409739  32.7775192
   0.6262387  11.3830888  33.9487529  48.3757925  60.2468681  10.3266442
  47.9507351  59.4012165  10.4695737  49.2819118  60.1091862  10.6027269
  45.0902748  74.9351597  42.8443670  44.1893244  74.8762131  42.5264931
  45.5486727  75.4401350  42.1727276  53.1911135  41.2712860  14.9513590
  54.0461016  41.2583017  15.3815401  53.3183575  41.8267727  14.1822863
  11.6163862  44.8149347  27.0864630  10.8448672  45.0571346  27.5986433
  11.6664290  43.8622522  27.1647358   9.6596605  24.4134378  17.3865318
   9.3672526  24.0001917  18.1989098  10.5484569  24.0828967  17.2560930
  26.5103245  25.9298491  28.2636428  27.4386549  25.7478499  28.1176567
  26.1704874  26.1515117  27.3966885  22.9773116  17.3996210  -0.1048109
  22.7887893  17.2403634   0.8200288  22.3843098  18.1094074  -0.3513565
  76.9387197  48.8294888  25.9786248  77.1257782  49.5742464  26.5500975
  77.7585936  48.6760378  25.5090642  24.5162177  37.5679421  57.4091101
  23.8801622  37.6137424  58.1229496  24.4817805  38.4334397  57.0017242
  12.8781438  11.2162364   1.2896685  13.0841851  12.0780420   1.6517019
  13.7313569  10.8081841   1.1421800  13.8242877  34.4168353   9.4226444
  12.9731715  34.4979334   8.9922291  13.6238229  34.0451980  10.2816737
  57.6369476  65.0129843   1.1197010  56.7022181  64.8227119   1.1991140
  57.9469538  64.4121599   0.4421048  43.8228130  76.9666386  28.5835671
  44.0657568  77.7612352  29.0587759  43.6058617  76.3345861  29.2688942
  29.6282148  29.3159866  23.7006068  29.7219229  29.1682911  22.7595234
  28.9320564  29.9690127  23.7724137  17.5876951  39.2760634  12.8366005
  16.9903100  38.5284185  12.8563416  18.4186530  38.9272714  13.1592214
  34.7732687  24.9273920  23.0043912  35.5983377  25.3668308  23.2102704
  34.2736459  24.9615645  23.8201356  68.3041668  72.6570320  15.8125257
  67.5285196  72.8418446  16.3420963  68.0140495  72.7863216  14.9095595
  39.9597955  26.1882567  17.5667882  39.6296334  26.0250854  16.6832721
  40.7803202  25.6972647  17.6103318  34.4667149  22.1067238  13.5536420
  35.0182629  21.4607811  13.9949846  34.0510225  22.5931311  14.2655694
  33.8815022  36.6796827  35.9105229  34.8329782  36.6784286  35.8060122
  33.7242246  36.1309671  36.6789031  55.5138540  41.5386295  16.2325335
  55.8526039  41.5760851  17.1270049  55.7093525  42.4010229  15.8660758
  24.2717314  73.6792898  46.3918686  23.6468935  74.2269564  46.8671274
  24.3026495  74.0582561  45.5134249  16.7079961  62.3198080  65.7396460
  16.7077339  62.6867199  66.6237354  16.0165679  62.7978086  65.2817440
  39.4444990  27.3039842   6.9571030  40.0936604  27.8745651   7.3685169
  39.9228382  26.4979100   6.7630178  77.2856426  32.3693657  20.6263161
  77.5931597  31.4649105  20.6865478  78.0862617  32.8934574  20.6023383
  50.2686644  35.8730483  15.9494877  49.3761921  35.5599236  15.8022332
  50.1817131  36.8243361  16.0105324   0.8789202  41.8604279  29.7303605
   1.7529128  41.9646406  29.3541861   0.4069078  41.3230038  29.0942717
  14.0961564  65.9665632  60.1783276  13.7930286  66.7117643  59.6596527
  14.9187863  66.2640238  60.5669498  24.5401716  43.6739635  47.4500799
  24.2512751  43.9857101  46.5924120  24.9582791  44.4348669  47.8531265
  18.5120761  10.3647935  10.9663332  18.3085907  11.2957978  10.8765745
  19.4488215  10.3051972  10.7787502  15.9270453  38.9784169  30.0945544
  16.4914775  39.6389151  29.6928191  15.7504320  39.3162727  30.9725595
  26.2675405  72.2664213  10.4558718  27.1670103  72.0165873  10.6674635
  25.7794356  71.4432526  10.4753578  77.7455187   6.0601842  44.2242146
  76.8400097   5.9856278  43.9230061  77.8460979   5.3505290  44.8586464
  73.2894373  17.6747763  51.6123533  73.0259895  18.2966578  52.2906494
  73.7346745  16.9744503  52.0893621  36.0059023  41.9044256  67.2404385
  35.9224796  42.8511095  67.1261549  35.6579041  41.5336895  66.4294577
  54.9989414  13.3243287   5.1110095  54.6448565  12.8196919   5.8432639
  55.0062990  14.2286420   5.4246897  39.7636747  16.5730596  45.6956148
  39.9644685  15.8360696  46.2724686  39.4500566  16.1664236  44.8878288
  48.5460806  48.6861897  54.9160671  49.3782949  48.8828802  55.3461409
  48.2894659  47.8343058  55.2691555  72.1700859  60.5688334  29.1495442
  73.0823708  60.4744196  29.4235015  71.9939375  59.7850132  28.6291313
  10.2761209  16.6228390  67.3967743  10.2121413  17.5695240  67.5229692
   9.4464421  16.3793230  66.9862127  30.8166242  62.7309370  67.3042488
  31.5139771  63.0743837  66.7457008  31.1665797  61.9079876  67.6456022
  44.9162054  27.3177528  64.6651649  45.0205040  26.7242861  63.9214277
  43.9695454  27.3756719  64.7944498   6.7328948  30.9755254  41.0616636
   7.0239711  31.0819149  40.1560211   6.9070208  31.8233848  41.4703798
   1.7046389  14.8873007  23.1882000   2.3284933  15.3682137  23.7320375
   2.1433836  14.0585172  22.9962301  74.3908930  67.0374632  39.3332720
  74.7393036  67.1051264  38.4443045  73.5513067  67.4957275  39.2969942
   3.0313250  36.1650538  42.8890371   2.6775873  37.0505428  42.8053188
   2.8691170  35.7607603  42.0367098  10.4106474  36.9381785  41.1218691
  11.2885296  36.8804336  40.7447481  10.5018234  36.5660048  41.9990253
  57.0262623  44.5257187  14.2638385  57.3334599  45.2144861  14.8532987
  56.4585495  44.9792957  13.6407793  36.4160132  24.3649149  49.8906898
  37.0493245  23.8036394  50.3380394  36.8180037  24.5505881  49.0420675
  16.3209558  77.2745991  19.7866797  17.0358109  77.1374989  20.4083037
  16.2810290  76.4608145  19.2842984  30.7876396  61.2289238  23.0847883
  31.0865164  61.9318342  23.6616921  29.9609542  60.9382010  23.4698915
  82.8965569   6.4861834  21.0884619  82.1131134   6.9440049  20.7837462
  82.7567482   5.5748910  20.8311033  32.1262407  44.2294979   2.7502969
  31.7449856  43.9862919   1.9066575  31.6239810  44.9954796   3.0282104
   1.8503667  18.4400165  12.9268193   2.7102748  18.2760108  12.5396597
   1.8794094  17.9931271  13.7727964  59.8279095  10.8674526  32.7191401
  59.8197842  11.1185431  31.7954946  60.4273653  10.1222980  32.7595091
   3.1134978  22.5451946  27.2677708   2.8490812  22.3256421  28.1611419
   4.0679461  22.6052690  27.3084021  10.2551794  26.6380453   7.9605293
   9.4092351  26.7137623   7.5190806  10.7264578  27.4336386   7.7132225
  51.3492012  50.5327845  38.3537936  50.9374666  50.0704432  39.0838265
  50.6689453  51.1232758  38.0300570  48.8226271  28.0575871  13.1808209
  48.6235619  28.1199884  12.2466302  48.9007044  28.9666128  13.4703135
  42.1316576  36.6474056   9.4238782  42.7413702  36.2815499   8.7830722
  42.6398611  37.3156524   9.8836684  33.7949300  52.6376009  11.0407257
  34.4475031  53.0579185  11.6008306  33.9910913  52.9598856  10.1610172
  33.3621144  50.8113670  21.5320849  33.4110260  51.7537928  21.6922998
  32.8269506  50.7300806  20.7426381  65.4396105  13.8840282   7.7503300
  65.3228426  13.2956338   8.4962445  65.5440712  14.7507119   8.1429869
   9.3885058  12.9282725   4.7234818  10.3212476  13.0025482   4.5217216
   8.9900446  12.6272559   3.9068738  15.7064617  36.5480280  10.0371897
  15.0904334  35.8977413   9.6997488  16.1539054  36.1031866  10.7570112
  65.9559679  66.1237764  56.8426895  66.5040112  65.7790422  56.1376810
  65.9035730  65.4086828  57.4768209  77.4407721  21.5268326  34.7769666
  77.7756453  22.2092867  35.3586459  77.1591425  20.8269501  35.3661013
  15.3595996  13.8770497   9.2483360  14.9464238  13.7395704   8.3959174
  15.9514117  13.1317151   9.3506408  25.8737063   8.0769026  55.7164145
  25.9415531   8.2622504  56.6530418  26.4534593   8.7166315  55.3030539
  39.2716432  62.3416805  40.9701586  39.6534276  61.8999386  40.2116489
  38.6234045  61.7228937  41.3065004  53.0518770  73.3696985  55.0331926
  52.4987888  72.6207542  55.2554655  53.1891918  73.2941628  54.0889120
  55.8027267  11.2342846  57.7833986  55.9487247  10.4689658  57.2273350
  55.6507301  11.9517672  57.1682978  61.8009186  74.3194151  24.0363526
  62.0084524  74.2056799  24.9638367  61.9762039  73.4636402  23.6450028
  74.7951794  21.2970066  25.6819606  74.8519516  20.3431559  25.7383299
  75.0602007  21.5001178  24.7848868   2.9077801  19.4334412  28.3154511
   2.8922254  20.2521372  28.8111591   2.4599153  19.6413982  27.4954486
  56.5110826  53.8249207  17.4822450  56.5367794  54.1504622  16.5824699
  56.5244150  52.8720188  17.3926604  76.3241386  74.7823906  66.1751366
  76.2427807  73.8990307  66.5346956  76.3707685  74.6521091  65.2279902
  20.3473043  55.6466246  36.7506909  21.0563064  55.1158428  37.1137595
  20.4894280  56.5192747  37.1174574  53.6593390  13.1429088   7.4666095
  53.5529327  12.9900753   8.4055197  53.2633877  14.0014923   7.3173171
  73.1918812  27.8922439   9.8246408  74.0680361  27.9701805  10.2021456
  73.3382940  27.8864884   8.8787216  79.8324728   1.1415854  25.6411672
  80.0352669   2.0256326  25.9470558  79.2866039   1.2755586  24.8663688
  74.2800999  27.0023918  13.3768785  74.2400885  27.3906994  12.5028944
  75.2159977  26.9119000  13.5561442  54.1089392   4.7743228   6.6192734
  53.2284021   5.1306736   6.7372072  54.6787882   5.3838122   7.0883417
  13.3732712  17.0612931  38.9685369  12.7085972  17.6227450  38.5695243
  14.0174103  17.6711535  39.3282390  65.0131941  23.9134955  64.4509459
  64.8304272  23.1953573  65.0568390  64.9410582  24.7032881  64.9869108
  20.9561872  31.3623595  12.3533177  21.2702656  30.9237456  13.1440175
  20.0800657  31.0035253  12.2123289  26.1572766  37.2176838  23.0719566
  25.3221035  37.3436189  22.6215577  26.6519642  38.0159736  22.8868842
  17.3445535  23.7726355  12.1666789  17.6151276  24.0641379  13.0373394
  17.8319514  24.3341684  11.5638888  47.5333929  20.7469749  53.2161713
  47.7659702  20.0766945  53.8587141  47.1387625  21.4485788  53.7340975
  65.7624069  69.0310920   0.5755144  65.2657905  69.6119155  -0.0008959
  65.9704033  69.5709766   1.3380724  14.8361206  57.9279280   3.3901885
  15.7414210  57.6179934   3.4147510  14.7078371  58.2214355   2.4881753
  81.1322403  49.8284149  21.6812396  80.5214500  49.7372770  20.9499049
  80.6691647  50.3786850  22.3128986  42.9764605  20.6076527   6.5630984
  43.4309435  20.0846219   7.2234893  43.0605888  20.0999999   5.7559788
  43.6870623  11.6107512  19.5752263  43.2073498  12.3188519  20.0049949
  44.3544388  11.3531113  20.2112007  60.6094074  49.4250965  44.6552896
  60.6374741  49.0384865  43.7800884  60.4610157  50.3579521  44.5004034
  59.8322487  69.4212389  25.2520990  60.0750875  70.1641417  24.6995068
  60.4338980  69.4686174  25.9950686  14.6218550  73.3181953  63.5602760
  14.3300688  73.7236404  64.3767929  13.9591813  73.5706329  62.9173374
  25.2887106  68.6432695  20.5327106  24.4154143  68.4196234  20.2108884
  25.4080868  69.5598984  20.2841592  66.3836908  11.2162232  56.8718338
  66.6153288  10.8636892  56.0125923  66.0823822  10.4559982  57.3693323
  19.2814696  35.5277967  29.5619273  20.2304506  35.5037403  29.4390965
  19.1636455  35.5630589  30.5111933  70.3331804  15.3738081  10.3582597
  70.9497070  15.0951159  11.0353529  69.4761276  15.1058364  10.6897545
  40.0928450  77.9843283  66.4606285  39.6690488  77.2116899  66.8343449
  40.1027918  78.6212015  67.1751356  26.5806246  67.5328588  22.9536295
  26.4733720  68.0225897  22.1382236  26.2217522  66.6664934  22.7616549
  50.1216841  24.6572185   1.6660997  49.8884058  23.8849831   1.1508673
  50.7625628  24.3369770   2.3008820  16.7168760  73.5554361  27.0206714
  17.3857355  72.9639816  27.3656964  16.8012881  74.3478489  27.5509381
  27.5855899  69.1745377  47.6844311  28.3366656  69.6315336  47.3059177
  27.8296113  69.0288877  48.5984755  35.3861737  19.3498433  17.7043641
  36.1717415  18.8321149  17.5280929  35.6259441  20.2419090  17.4534428
  70.7047987  63.9825869   0.4700343  71.3756371  64.2922735   1.0785598
  69.8930120  64.3789244   0.7865040  17.9720378  17.1270895  26.9476771
  18.1459951  16.3836372  26.3703990  18.0219293  17.8921378  26.3745761
  56.1946201  59.6967316  20.3072691  56.2391901  58.7654829  20.0904202
  55.6819963  60.0836563  19.5975256  25.7165933  13.3279061  16.6776550
  25.1976418  12.6542866  17.1171510  26.1288214  13.8158083  17.3905730
  16.5457869  27.5990152  30.8284473  16.9962800  26.8925238  30.3656793
  17.1561086  27.8612638  31.5176249  76.7210913  19.7451401  44.9958277
  77.1846771  20.4566121  45.4375601  75.8765507  19.6951962  45.4435921
  68.7959433  33.8960886   8.8794494  69.4839621  33.9699793   9.5408142
  68.2137966  34.6351576   9.0558392   3.0445373   5.8865744   9.4065362
   3.6526391   6.5515184   9.0835911   2.3698005   6.3835245   9.8691410
  17.6281917  57.1510267   3.3234492  18.4114611  56.6756630   3.6004883
  17.9552877  58.0015993   3.0305892  71.5754747  34.9735665  42.3068476
  72.2078037  35.0971031  43.0147552  72.1027946  34.9947214  41.5082741
  71.0868931   5.4827946  54.5737362  71.4923906   4.6399027  54.3704319
  70.1687336   5.3726953  54.3265676  33.4922290  20.2929688  37.0789242
  33.5424399  20.9373736  37.7849364  32.5613523  20.0792527  37.0154691
   3.0225259   7.0086038  24.4611335   3.1722683   6.2149656  23.9473748
   2.5992924   7.6126033  23.8509774  60.6378126  67.3267698  41.9684362
  60.3929234  66.9835138  42.8277588  61.5748787  67.5080347  42.0410919
   5.5640656  11.1506474  28.7757301   6.0956305  10.3559923  28.7288976
   6.1724544  11.8586051  28.5638547  46.8583536  39.6714091  13.6448944
  46.4096260  39.4233942  14.4532037  47.4604273  40.3671169  13.9089656
  30.5504036  28.8474917  52.9454613  29.7564220  28.8072801  53.4785700
  30.4679561  29.6649098  52.4542761  45.9895325  28.9173746  26.0246396
  45.2932167  29.5342803  25.7992482  46.1374378  28.4190297  25.2208924
  60.7279062  75.8405161  57.4679852  61.6250420  76.0007715  57.1752548
  60.4143476  75.1339912  56.9034195  26.4582801   6.6012114  14.3086147
  25.6095195   6.2190497  14.5317435  26.4048624   7.5035745  14.6234465
   3.3535331  32.7896118  28.9047790   2.8793761  33.5489058  28.5658407
   2.7205333  32.3435354  29.4674158  20.5861855   7.0112276  37.4693036
  20.7626581   6.3221902  38.1098652  21.1909962   7.7155674  37.7024198
  37.7351809  41.2968302  21.9335508  36.9244361  41.0291767  22.3663139
  38.4152746  40.7681322  22.3508978  43.4847784  30.5410314  25.6347561
  43.3706713  29.8637128  24.9680853  43.9089060  31.2636185  25.1719260
  77.2025156  48.9445162  17.9256701  77.5060081  49.2538452  17.0721829
  76.6023254  48.2275009  17.7209949  19.2229378   2.6220441  23.6246657
  19.1382778   2.4565180  24.5636368  20.0599718   3.0778959  23.5363340
  14.2129326  17.5026321  25.1994824  14.7788632  17.3051727  25.9457827
  13.4074950  17.0158565  25.3742671  58.4727526  25.3548217  21.2309623
  57.7932453  24.7082639  21.4219356  58.3115101  26.0630131  21.8544197
  46.5320730  16.4560664  11.9252503  45.8094883  16.9926381  12.2511232
  46.7820787  15.9119427  12.6720154  30.5828238   7.8411472  31.3074064
  30.3319478   7.7348894  32.2250128  31.4871931   8.1529528  31.3409233
  67.1001911  62.7289295   3.4214738  67.9012537  62.2141457   3.5190609
  66.4261723  62.0844984   3.2055119  23.5908318  13.0933416  14.5748496
  23.1059074  12.6858175  15.2924871  24.2863297  13.5891628  15.0069094
  59.2343426  75.2531528  30.2685952  58.8302469  74.8637199  31.0440159
  59.0941286  76.1943054  30.3725338  17.5872600  17.2513747  31.5244699
  17.0546770  16.5583217  31.9146800  17.4529743  17.1545541  30.5816960
  77.0379639  31.2196088  28.2007575  77.2262144  31.8527889  27.5080252
  76.8057442  30.4165173  27.7345514  52.9150200  20.6869292  26.3384032
  52.9350376  20.1243210  27.1125507  52.1222019  20.4234171  25.8712506
  16.6034794  22.6454997   4.8137951  15.8669567  22.1288133   4.4869918
  16.5061677  23.4972405   4.3880033  77.3058987  67.8945494  60.0634956
  78.1230879  68.0462313  60.5382824  77.5771761  67.7670527  59.1544390
  23.2060575   2.3337048   3.7616083  22.9913640   2.0424217   2.8754410
  22.6702213   1.7820168   4.3314773  21.3152027  60.0237656  17.2397721
  22.0911360  59.9651146  17.7971971  21.3628912  60.8985519  16.8541455
   6.0435796  13.8309216  24.9480796   6.4281845  13.9169538  24.0757775
   5.9731245  12.8864348  25.0866866   9.8687905  21.5693116  44.8727226
  10.4515207  21.4668250  44.1202927   9.3159378  22.3175025  44.6473408
  73.3138084  62.1816301  12.9294717  72.5567913  61.5968418  12.9638457
  73.0692196  62.8528452  12.2923887   4.4314241  33.2688856  34.1015720
   4.2260957  34.1133237  33.7003326   3.8595465  33.2223868  34.8677492
  47.8479481  61.4437485   2.5081459  47.9710913  62.2522974   2.0108342
  47.7645206  60.7625151   1.8409166   0.0055440  42.0672798   9.4630158
   0.6970055  42.4274349   8.9076728  -0.3630511  41.3478708   8.9503533
  76.3374901  38.9504361  30.7777691  75.9526587  38.9448142  29.9013519
  77.1782684  39.3944240  30.6673265  29.7977328  60.1538610  65.7448149
  30.5971241  59.8834658  65.2930498  29.9292517  59.8760128  66.6513109
  52.3256016   4.5937720  66.9504118  52.1889830   3.8696745  66.3394690
  51.4448833   4.8329559  67.2391367  72.6974535  22.9269266  26.3649392
  72.7932358  22.7305675  27.2968721  73.4794950  22.5522804  25.9596181
  42.3529291   9.7839987  10.0305963  42.6687670   9.7863740  10.9341860
  41.4045572   9.8880047  10.1080906  35.7655406  18.2208157  37.6022458
  35.7814097  17.9634678  36.6804242  35.2773190  19.0440786  37.6127124
  19.2169929  32.5198460  41.4182472  18.9685261  32.9859948  40.6199980
  19.2263615  31.5971541  41.1637211  76.3371468  56.4549112  20.9776759
  75.4535389  56.6932392  21.2581611  76.7321920  57.2820568  20.7019901
  30.0052595  66.0769892  36.2280989  29.6009254  66.7838049  35.7249498
  30.4351306  66.5195179  36.9599557   5.1252162   4.2637280  25.3948617
   4.4900760   4.9392825  25.6324625   5.9661162   4.7207290  25.3784442
  12.8130054  48.5625935  33.5043955  12.7213824  49.0121460  34.3444777
  11.9760132  48.1152725  33.3795834  31.9003963   5.5143267   5.4237187
  32.2490215   5.1686686   4.6020046  32.5062728   6.2149751   5.6650418
  10.0659609  57.3533440  28.5815811   9.7646743  58.2571745  28.6740398
   9.3781537  56.9223070  28.0742717  14.0334880  41.2396812  45.1475525
  14.6130049  41.4732981  45.8726835  13.3555579  41.9153881  45.1554918
   7.9006666   2.8358412  22.1036434   7.9381257   3.4689531  21.3867068
   8.5648853   2.1832666  21.8818498  24.3535352  38.7542319  28.9056516
  25.1932216  39.0096545  28.5236621  23.7661338  39.4817972  28.7011003
  33.8935280  62.2815847  16.0951424  34.7440338  62.5916624  15.7841372
  33.4962201  63.0475521  16.5094721  52.6434612  26.4420724   1.2246756
  52.2338009  25.8798051   1.8821463  52.3992300  27.3306131   1.4836732
  34.8419237  37.1561909   3.9044401  35.6531763  36.9226432   4.3556124
  35.0882363  37.2095394   2.9810143  19.5810640   4.2811897  28.6679673
  20.2817893   3.6567596  28.8558578  18.7774789   3.7645572  28.7277436
  60.9683418  69.5054817  27.7809310  61.4535570  70.2358341  28.1648302
  60.2883434  69.3052340  28.4241533  49.7167921  42.9513216   1.4301422
  49.4662428  43.2993412   2.2859089  48.9142036  42.9932213   0.9102179
  49.4148302  66.8854332  48.0008602  49.2465782  67.5871754  47.3719883
  50.3136492  67.0363808  48.2933855  42.5315332  51.0307789  57.5744867
  42.5077534  50.6041670  58.4310341  43.2634115  50.6140566  57.1195936
  20.3686929  58.0950642  37.9743719  19.5747566  58.5490942  38.2567811
  21.0092974  58.7935877  37.8404808  41.9537258  60.8951855  21.3294983
  42.3861599  60.6355715  20.5159664  41.8092489  60.0725317  21.7970371
   4.2020544  54.8401546  48.4701872   4.0854937  55.6003523  47.9003239
   4.0245143  55.1713037  49.3505573  45.6184721  32.6787233  10.0768054
  45.7461500  31.9876075  10.7266426  45.4312229  32.2107291   9.2630780
  75.2279520   9.1515070  48.8217497  76.0994864   8.7853968  48.6713409
  75.3307676  10.0892031  48.6593056  27.3960614  17.9969049  21.8839312
  27.1614552  18.8346970  21.4848137  28.2952452  18.1199825  22.1881557
  53.9268446  58.9230537  63.1125975  54.0639019  58.0305767  62.7948999
  54.8079014  59.2513800  63.2919884   6.6989857  37.8721690  60.9547997
   7.1850801  37.8921986  61.7791414   5.8215141  38.1762886  61.1867189
  14.6538484   3.9084089   8.3660495  13.9516556   3.8919699   9.0163469
  14.8977363   2.9896533   8.2536268  73.4321642  65.5271006  56.5652370
  72.6456690  66.0254240  56.3431406  74.0777016  66.1923027  56.8040323
  12.6303959  27.8658772  11.9186544  12.2391093  27.7780795  12.7878022
  13.5419989  27.5996494  12.0383847  67.4538231  56.6978502  43.4523964
  67.4953604  57.6081753  43.7453413  67.5451469  56.7480373  42.5008869
  43.5033560  33.5134006   2.3563610  42.9799032  33.6167312   3.1510630
  42.9188156  33.0718493   1.7402625   2.4877501   2.0399176  47.4800014
   2.9531583   2.3506337  46.7034197   2.9025888   1.2029739  47.6889658
  10.3309584  63.6510229  54.1725874  10.0941253  63.1806469  53.3732796
  11.2433851  63.9072752  54.0382624  79.6422720  32.0647693   4.0548453
  80.4650879  31.7050385   3.7234867  79.7836447  32.1576238   4.9969825
  45.5293751  41.5628386  17.7113581  45.3866148  42.3031855  18.3010507
  44.6489906  41.2837648  17.4598157  82.3531151  70.9985018  15.4662788
  83.0541229  71.0464048  14.8162675  82.6120853  71.6226006  16.1442673
  28.8826013  35.1067853  18.4828353  28.7058997  35.7760668  17.8217220
  28.0820465  34.5829391  18.5132682  37.3545432  70.9358549  14.3075180
  38.0791330  70.3306866  14.1494858  37.7787852  71.7675781  14.5184314
  68.7948513  68.3280754  53.6867809  69.5906448  68.0835199  53.2144070
  68.9303493  69.2450333  53.9256620  66.7953300  35.3878999   9.5418000
  66.5265512  35.2082157  10.4427457  66.4248800  36.2490988   9.3485761
  15.2456295  30.5824566  13.8648403  14.4117510  30.3089571  14.2470396
  15.7894373  29.7950768  13.8880253  29.0141749  32.3111677  33.9736795
  29.1468000  32.3195314  34.9216104  28.3513832  32.9841423  33.8186193
  44.2682505  75.3833723   5.5018854  45.2123880  75.2978039   5.6342310
  43.9797020  75.9657621   6.2045902   4.6727833   1.9617890  13.1751525
   4.8642215   1.9847535  12.2375727   4.5825565   2.8817195  13.4237862
   9.4649088  52.5048113  11.1073506   8.6452246  52.9164648  11.3810146
   9.8010635  53.0762339  10.4169118  54.4918823  49.4657278  60.4601288
  55.1373005  50.1551104  60.6163836  54.9951649  48.7499237  60.0721073
  81.9249630  42.8361750  59.0692139  81.0240269  42.6048899  58.8432503
  81.8727112  43.1484413  59.9725389   1.3430268  23.1872487  48.4063387
   0.9126522  22.3412561  48.5300446   0.6806403  23.8316798  48.6557055
  33.6578822  24.9180675  36.9409299  34.3890285  24.3004298  36.9276261
  34.0656614  25.7747126  36.8140197  39.4268894   9.6843070  18.4222019
  38.5964346   9.9124336  18.0044281  39.2059636   8.9703441  19.0202665
  40.4429436  57.1206665  38.7633848  39.5722651  57.1733999  39.1575575
  40.2758169  57.0100307  37.8274035  31.0138083  44.5152187   5.8777142
  31.6442347  43.8145876   5.7106441  31.2100935  44.8067474   6.7680597
  55.2066994  63.2339716  54.6424818  54.6719933  64.0239811  54.7212505
  54.5738888  62.5292873  54.5038939  26.5221643   4.6570951  24.9445677
  25.8993602   5.3591400  24.7562099  26.8302417   4.8418802  25.8317971
  16.4507270  42.4675083  26.0834455  15.6051409  42.8664112  25.8782768
  16.6678596  41.9531536  25.3059340  33.5471725  63.6127472  40.2048635
  34.4013882  63.9874077  39.9899721  32.9565001  64.3653250  40.2358580
  11.4135277  43.7148762  20.2965689  10.9301949  42.9541159  19.9742866
  11.7991400  44.1038036  19.5115399  10.0010194  36.7520082   0.1390320
   9.3935885  36.0911023  -0.1933331  10.6186070  36.2594402   0.6795841
  18.5962939  27.2503304  44.8201275  19.0114129  28.1077671  44.7267962
  18.3998740  27.1797276  45.7542944  38.7714648  42.9476261  27.9371309
  39.1229224  42.2676611  27.3623633  38.4421849  43.6193562  27.3399830
  17.9287851  18.1373036   8.5313171  17.6423979  19.0423989   8.4087723
  17.1440411  17.6757121   8.8268560  18.4112978  74.5832014  50.1683998
  18.5128260  75.1551962  49.4076443  19.2518878  74.6378040  50.6229973
  43.7591982  59.8403120  66.6189766  43.1321335  60.3604937  67.1214056
  43.4834957  59.9466085  65.7085276  32.3119020  35.6306934  21.8660331
  32.6961017  34.9275637  21.3423634  32.8347993  35.6454492  22.6676512
  34.7490716  32.0018244  16.1444652  35.5023265  32.5910449  16.1852419
  34.5716453  31.9042993  15.2089226  66.4683390  37.8473139  11.5222394
  67.2455072  37.6623917  10.9949350  65.8121586  38.1368852  10.8883584
  75.9869289   3.2961068  65.0181055  76.5709209   3.1013986  64.2851162
  75.9699678   2.4886391  65.5318546  42.3808002  32.2513914  16.4943957
  42.8087473  31.9034839  15.7120562  43.0986118  32.4220371  17.1042001
  69.7302198   2.0341304  56.1862850  68.9650679   1.8081462  55.6574106
  70.2707291   1.2442169  56.1753130  63.4892702  61.1130476  64.6005583
  63.8026428  60.6141567  63.8461447  63.4313107  62.0145941  64.2841864
  39.1783285  56.6817522  49.4789648  38.7653184  56.8766165  48.6377239
  40.1116037  56.6136169  49.2775106  14.4665992  51.5724373  43.6984634
  14.2330039  51.9133759  42.8350830  14.8703372  52.3148632  44.1479445
  48.1389904  46.4492369   2.3465535  47.7303553  45.8355427   1.7361242
  47.5949192  46.4030838   3.1327400  68.3426762   8.5961759  35.6328297
  67.8385973   9.3630630  35.9048939  69.0450525   8.9520073  35.0885081
  27.2645473  22.3339987   4.1962406  27.1394157  23.1337810   3.6854336
  26.8056607  21.6574907   3.6982507  33.8986135  16.0632360  48.7265348
  34.4478106  16.0183477  47.9438448  34.3853498  15.5729997  49.3890953
  72.7030706  15.4183972  36.5307474  73.0184746  16.0315561  35.8668303
  72.3225117  15.9754813  37.2097659  67.6443052  75.1548767  52.0438337
  66.8775702  75.6664276  51.7856503  67.3175907  74.5558119  52.7151108
  23.9475584  66.8585205  11.0530734  24.4577122  66.7422628  11.8546081
  24.5711255  66.6925097  10.3460836  64.0037012  51.3209629   7.7728361
  64.6085405  51.8866158   7.2927976  63.3699226  51.0350418   7.1149570
  27.1240520  35.1185870   1.8105005  26.9882989  34.9441552   0.8791701
  27.2782850  36.0621119   1.8574679  30.9577179  20.4845548  31.8079758
  30.7974267  20.7116890  30.8920360  30.5914783  19.6054590  31.9043732
  15.5999440  47.2042555  66.9072956  16.2451952  47.9040021  66.8060954
  15.9487408  46.6567207  67.6107013  12.5976253  20.7404256  57.9459333
  13.2347012  20.8027029  58.6576128  12.5851977  19.8112798  57.7162218
  61.1651278  73.5012531  53.8073635  61.5093613  72.7207565  53.3731318
  61.3923883  74.2220354  53.2199478  39.1635370  42.5305939   7.2496635
  39.6980405  42.3498392   6.4764452  39.4678259  41.9013166   7.9036152
  24.1330910  72.1890020  57.7290344  23.8842988  71.2882137  57.5218725
  23.6765742  72.7197313  57.0762300  49.8657417   6.4375871  60.2331781
  50.7885981   6.5736550  60.4477835  49.6269083   5.6366521  60.6997538
  34.6313906   0.5227573  49.3742228  34.2885160   1.2377603  49.9103546
  34.0669823  -0.2225533  49.5796156  38.1659770  58.9901352  29.1762233
  37.7068520  58.2854557  28.7192082  37.9900956  58.8288832  30.1032043
  58.3757353  77.7238989  18.5948014  57.4773407  77.9417515  18.3464837
  58.2911921  77.2914886  19.4445682  14.8926151  58.5166264  19.9317837
  15.4572129  57.9807281  20.4888034  15.4834342  58.8829565  19.2737806
  15.7633460  75.3104687  38.5210681  14.8559690  75.3542709  38.2194400
  16.2323320  75.9281206  37.9600072  48.2950449  14.1754842   6.4356995
  48.7506628  13.8615990   7.2168010  47.7006483  14.8517454   6.7606568
  17.4953723  21.2755966  29.6404076  17.4139524  21.2160110  28.6885405
  17.9185605  20.4560685  29.8963666  39.0942001  25.1109362   4.0727413
  39.6213794  25.0869775   3.2741550  39.7233987  25.2973223   4.7695917
  77.3143387   2.5758168  62.6958847  77.1048927   1.7213702  63.0730915
  77.2464371   2.4433480  61.7503309  28.8009644   3.0937174  59.5972204
  28.5790110   2.4004717  60.2188158  28.0058670   3.6230150  59.5348024
  41.1207104  16.7880523  10.1526546  40.3144789  17.1697378   9.8054659
  41.3094282  16.0541153   9.5678866  21.3986659  32.5158215   9.0050858
  20.6778955  31.9288492   9.2335254  21.8553662  32.0683670   8.2927376
  40.0085068  57.1393585  36.0696650  39.2222309  57.4636269  35.6305218
  39.9025655  56.1880827  36.0789776   6.5353912  36.0169673   6.8627995
   6.0310745  36.8229389   6.9737339   6.1546677  35.4072833   7.4949110
  23.9061046  38.2091737  21.9982028  23.2411480  38.4609342  21.3573599
  23.4066272  37.8700137  22.7409840   8.5022533  11.7998111  41.0359240
   8.3955675  11.7394686  41.9852448   8.9266181  10.9778595  40.7898664
  22.0495319  21.6326499  20.6773162  22.2561431  22.5366473  20.9146667
  21.9638968  21.1785245  21.5155697  44.9876118  39.6248460  20.2608085
  44.4985437  38.9246225  19.8286796  45.0607347  40.3107405  19.5971560
  60.3310585  21.0580611  35.6836796  60.6734180  21.6234708  34.9913406
  61.0998297  20.5954480  36.0171723  41.2553263  53.9516115   7.8534710
  41.5570498  54.6665955   8.4138197  41.4171839  54.2611074   6.9622672
  40.9872150  43.1057072  31.8438554  40.0378513  43.2206726  31.8023419
  41.3418293  43.8859797  31.4176369  15.4023600  24.1049457  21.8087697
  15.9908521  24.1968322  21.0594606  14.5927286  24.5336843  21.5314412
  26.2663031  17.4950290  65.5321884  26.8418455  16.7331243  65.4652166
  26.1244988  17.6061773  66.4722824  35.4266524  66.9492483  19.2021525
  35.4496193  66.0176134  19.4206977  34.4982934  67.1414709  19.0701127
  66.2721062  11.1822569  44.8230600  67.0590734  10.7256007  45.1203537
  66.4897490  11.4855456  43.9416504   8.5913032  20.8857179  64.7905636
   9.0051049  20.1270342  65.2021456   8.1440842  20.5279160  64.0236187
  46.6659069  70.6338882   3.2003191  47.1108675  70.0627661   3.8264695
  45.7627058  70.3172064   3.1871700  47.0663023   7.0392954   7.7117515
  47.9137230   7.1110296   7.2724700  47.2045755   6.3811690   8.3929145
  41.1963034  59.9377918  63.8841534  41.2238836  59.1623020  64.4445944
  41.3931799  59.6070528  63.0077505  15.8083940  34.0800214  27.6218247
  15.2772582  33.3062243  27.8098798  15.5321622  34.3533111  26.7470455
  19.0143955  31.2715197   9.8839784  18.5628903  31.6369653  10.6447828
  18.3355403  30.7902455   9.4109428  33.5734701  69.7200537  53.2431650
  34.0922928  70.3699303  52.7691174  33.9728594  68.8809919  53.0136204
  17.5676107   3.5314855  11.7739260  17.1100569   4.1577932  11.2130201
  18.4142923   3.9417601  11.9500995  46.4270067  35.9325695  21.1536169
  45.6488705  35.3816223  21.2384605  46.2845182  36.6457677  21.7759299
  38.0528283  35.9214139  16.3073206  37.5908422  36.7588639  16.3458097
  37.9739904  35.6461406  15.3939533  51.5595341  23.9924145  22.2568727
  51.3755369  23.9122248  23.1927919  52.2726679  23.3737230  22.0990992
  16.3123763  39.2076468  41.0219145  17.2508347  39.1592813  41.2040901
  16.0846210  40.1238251  41.1799574  59.1164589  53.2947636  63.7116289
  59.4116211  52.3892021  63.8068628  59.7997093  53.8150883  64.1343164
  61.5060377  33.9266086  63.5852146  60.6649685  33.9770174  63.1310129
  62.1458435  33.7786937  62.8887939  56.8156290  24.3744469  12.2161889
  56.7996311  23.4195328  12.2803330  57.6885653  24.6204686  12.5222671
  42.8112888  43.9558554   6.2106931  42.5904942  43.8242054   7.1327287
  42.5364590  43.1460857   5.7806104  65.8070326   0.9722157  60.8338261
  65.4216528   0.1324163  60.5839252  65.0598145   1.5657035  60.9091091
  81.4068031  57.5453472  39.1413808  82.3571014  57.5064421  39.2492533
  81.1416340  58.3229685  39.6325302  65.3582001  35.4744124  63.4299660
  64.8697615  36.0113144  64.0539789  66.2602282  35.4966784  63.7494612
  18.0390942  55.0248671  19.7879517  18.6044860  54.2607832  19.6750665
  18.6028671  55.6817245  20.1965261  79.0377235  -0.1223876  27.9272318
  79.0174580   0.0685876  26.9894958  78.2225657   0.2487186  28.2649088
  56.8712378  32.8951716   7.2206706  56.5914297  32.8891850   8.1360412
  57.5082397  32.1832633   7.1602732  23.9513350  51.1485577  13.2243931
  23.8982606  50.5350208  13.9571881  23.2814002  51.8056583  13.4131753
   2.4465479  34.7144115  -0.0939364   2.7378001  33.8814199  -0.4647822
   2.8120674  34.7236144   0.7906776  23.9936090  22.5972223  11.2098002
  23.8827395  22.6545024  10.2607703  24.0071511  21.6578341  11.3930941
  23.0753875  37.9829645  18.4846902  22.6965976  38.8476968  18.6427677
  22.4087358  37.5182915  17.9788351  78.3418131   2.3413987  30.2747655
  79.1633606   2.6466793  29.8899364  77.7664471   2.1928394  29.5243549
  23.8125491  33.2586193  13.3815837  23.5793257  32.6373458  12.6917589
  23.0282855  33.7954259  13.4956205  61.5301704  73.8297224  65.4062510
  62.3011255  74.3965626  65.4296970  60.9780312  74.1466618  66.1210394
   9.1748291  53.1058884  24.6622682   9.7069597  52.3209810  24.7925973
   9.6239257  53.5870409  23.9672589  18.0034959  44.3580151  18.4073603
  17.6665962  44.5707178  19.2776978  17.5710726  43.5355616  18.1775570
  21.9117451  35.3197813  12.8663039  21.3467264  35.4666400  13.6248660
  22.0520997  36.1927462  12.4996078  72.1364975   4.4540441  41.5762186
  72.2089624   3.9833236  40.7459164  72.1384716   5.3785938  41.3283539
  23.1788611  68.0351353  14.2237043  23.5951042  68.6506081  14.8271668
  22.3493004  67.8104782  14.6451187  36.4893913  55.0860739  55.1500273
  36.2181878  54.6113014  55.9356928  36.9910073  55.8308983  55.4814625
  41.2487936  21.1458015  11.6971564  41.5347242  21.3542247  10.8077538
  40.2992487  21.2649918  11.6775942  60.4973650  65.2367020  57.1140242
  60.1756430  65.4339266  57.9936981  59.9357033  64.5247507  56.8076086
  21.4581394  14.0591764  41.5894318  20.7639050  14.6737778  41.3516617
  22.0210123  14.5527232  42.1859360  48.5325050  51.1445808  51.4262104
  48.8213682  51.4864349  50.5800867  48.1608438  50.2861023  51.2234354
  39.9109316  66.9992542  62.4884081  39.7367287  66.4194155  63.2298088
  40.8578968  66.9454527  62.3596096   9.0717763  23.1840563  20.0586128
   9.9394512  22.9777884  20.4062128   8.7353057  23.8639259  20.6423926
  26.2193847  15.8909428   4.6377483  26.2459397  15.7686710   3.6887613
  26.4818597  16.8020046   4.7692925  26.3322139  40.1062202   0.9937595
  26.9042683  40.2475739   1.7480832  26.2165284  39.1568112   0.9554713
  23.2074428  66.2190533  28.3447337  23.4919572  66.4825726  29.2198586
  22.5392246  65.5517340  28.5009480  57.9027271  26.0978603  59.9086523
  57.4894571  26.5082717  59.1490412  58.2375574  26.8313050  60.4245758
  58.4169769  47.6868486   2.2425841  58.9902592  48.2596445   2.7519810
  57.8611803  48.2860279   1.7442805  30.0449181  11.6601753  25.1282382
  29.2039084  11.5397847  25.5691910  30.2939105  12.5622439  25.3294992
  54.8122835  50.8596182  55.9378242  54.2297506  50.1590109  56.2311363
  54.5676613  51.6144085  56.4732504  77.2879601  70.6689167  41.9658279
  77.6019192  70.0536966  41.3031292  77.7626562  71.4799309  41.7837572
  39.1894984  39.8370266  18.3012402  39.3578362  39.7698498  17.3613572
  38.5456562  40.5409908  18.3795345  64.9022341   3.3990449  20.5305648
  64.6165705   3.4098125  21.4440823  65.3333664   4.2442998  20.4044557
  16.5410638  56.3783121  52.8860092  17.4413562  56.3177919  53.2054520
  16.0564590  56.7758942  53.6094189  19.6641052  56.5748835  21.4425302
  19.8381484  55.6510496  21.6227221  20.4908395  56.9113636  21.0968065
  51.1548853  29.2397809  26.2145710  52.0797443  29.1227317  26.4317632
  51.1085129  30.1140666  25.8276510  73.4940958  53.7935543   4.0214831
  72.7965355  53.3450127   3.5435146  74.1324234  54.0293264   3.3482945
  60.1737690  53.6743307   5.1302969  60.8080530  54.0055132   4.4945031
  59.4782305  54.3318796   5.1395154  37.2146010  33.0786276  16.8346298
  38.1121516  32.7905536  16.6683567  37.2932625  34.0153456  17.0151889
  38.1484270  39.3180656  32.5526261  37.4754190  38.6694574  32.7590251
  37.6694083  40.0379038  32.1420097  67.9380131  16.1247754  63.9417982
  67.3932934  15.3377390  63.9508915  68.0321550  16.3615716  64.8644590
  20.4274082  20.9536958  24.2823601  21.0566998  20.7405663  23.5932994
  20.9676766  21.1503959  25.0476384   3.6806208  37.2448063  62.3312616
   4.3964413  36.7135525  62.6799774   2.9026204  36.6972256  62.4366283
  79.5756006  54.8201180  29.9697638  79.4655514  55.7513142  29.7774267
  79.4946480  54.3886614  29.1191626  37.9017004  27.6108776  66.9310699
  38.0895123  28.3137451  67.5531099  38.7619814  27.2642266  66.6944622
  80.5535793  69.3539000  12.3525488  80.5078125  69.1281652  13.2816231
  81.3761806  68.9673042  12.0523751  26.9278765  42.3901701  23.0259633
  25.9769177  42.3949432  22.9169416  27.0805335  41.8100500  23.7718773
  15.2135682  41.7612457   7.3585129  15.5382311  41.6450596   8.2514441
  15.4351962  42.6661730   7.1389270  28.8779831  39.3091893  51.8928051
  28.1248140  38.7192082  51.9226265  29.3969202  38.9978242  51.1511946
  47.9959679  38.5342264  19.7585380  47.8378582  38.1050134  18.9177001
  47.2475386  38.2833791  20.2999783  30.1007652  22.8336406  16.2852049
  29.5905614  22.6399112  15.4988253  29.5418453  22.5509214  17.0090222
  64.0568686  14.3402100  48.0922556  63.1937361  13.9651942  48.2671738
  63.8732815  15.1606536  47.6346540  27.7685022  12.9906273   8.9757127
  28.2675743  12.5083733   8.3164769  27.9429936  12.5269842   9.7947484
  42.8512716  27.3650432  54.2049789  42.9307461  26.4139509  54.1319132
  43.7325668  27.6623631  54.4311428  51.8211842  67.9904985  64.8454809
  51.5914631  68.2711983  65.7312918  51.0066891  67.6376486  64.4872522
  72.6087570  50.4412460  52.5800085  73.2250881  50.6818676  53.2717228
  73.1627655  50.1424551  51.8588734  37.8836322  74.4256306  15.6475151
  38.1585765  74.4132948  16.5642941  38.6224580  74.8165894  15.1811266
  14.6265125  41.4581299  12.8641093  14.3959558  42.2495842  12.3776150
  14.1901946  40.7500887  12.3902583  71.6625023  73.9917135   2.0755124
  71.4637995  74.5115852   2.8542805  70.9182882  74.1401768   1.4921290
  36.3593507   9.3892938  23.4867311  35.6730986   8.7961400  23.1810212
  36.3879251   9.2545420  24.4339681  33.4949064  34.1056013   5.3818560
  32.6807928  34.0500045   4.8814949  34.1722226  33.8171697   4.7700694
  45.4804802  36.6024137  35.7277393  44.8305655  37.2784567  35.9196115
  44.9767971  35.8916736  35.3310227  28.3192825  43.5792923  35.0849938
  28.0121064  44.3477345  35.5660033  27.9855251  43.7036705  34.1965294
  10.3244698  17.3987353  53.8630581   9.7175699  18.1190753  53.6927271
  10.2278125  17.2202241  54.7984886   5.0295687  74.3351078  60.4796314
   5.4523188  75.1766539  60.3084040   5.7015187  73.6840248  60.2776289
  77.5307751   8.9201510  12.4817884  77.7981710   9.1343755  13.3755660
  78.3381939   8.9748967  11.9705999  28.9664221  16.5093648  13.5484695
  29.6236563  16.8757081  14.1401350  28.4645009  15.9035039  14.0936637
  68.9360189  14.8286414   4.0995783  68.6077976  14.8614216   4.9981481
  68.1486654  14.7626531   3.5592490  42.2326612  29.5485330  14.4339979
  41.3668156  29.5802522  14.8408604  42.8167295  29.2613173  15.1358581
  21.9967461  25.5921650  65.9419060  22.5087357  26.0724401  66.5926218
  22.5320196  25.6187558  65.1488066  41.1581516  65.3846741  18.8399851
  41.8942976  65.8320332  18.4226239  41.2524748  64.4697380  18.5749757
   6.1719877   5.8997536  58.3341837   5.3702712   5.5859894  58.7525511
   6.7000401   6.2425739  59.0551996  37.9671979  37.8172517  20.4369497
  37.7763748  37.7212787  19.5038867  37.8436613  38.7501717  20.6119633
  14.0767729  43.1435013  10.8749092  13.6554241  42.7139854  10.1304555
  13.9504457  44.0787220  10.7147837   4.9566662  27.5488138  35.7505322
   5.7397556  27.0345950  35.9469557   4.2479011  26.9059420  35.7260394
  65.2549696  15.8325720  54.6617270  65.7827473  16.1950123  53.9501667
  65.8871412  15.3876126  55.2261686  57.0874786  24.9934721  63.6901855
  56.2004137  24.6794820  63.5148048  57.2117615  24.8485899  64.6281624
  49.4283485  15.6786561  17.7192128  49.5301914  15.9473455  16.8061602
  49.9324560  14.8678637  17.7879369   5.9750766  64.0953255  14.1515040
   6.6046983  63.5630465  14.6378064   5.9105074  63.6689281  13.2969582
  47.8797579  32.9547691  16.8519199  47.7603626  33.5553026  16.1161661
  47.4261522  33.3767676  17.5815701  45.0975275  64.7672033  47.9972553
  44.6792316  64.1256332  48.5714054  45.3036022  65.5044556  48.5719061
  47.7407837  56.8893385   6.2834013  48.0256081  57.7401018   6.6170210
  48.2334137  56.7735434   5.4709142  41.1264420  72.0192575  49.4395638
  41.0595465  71.8860912  50.3850937  41.7696333  72.7213430  49.3414831
  65.8573341   0.7342707  10.0361061  65.5482817   0.1457249  10.7248223
  66.5238476   1.2728848  10.4625928  59.6323442  59.5352650  10.6687188
  60.0580168  58.6975098  10.4865181  60.0023079  59.8147917  11.5061069
  18.0879009  58.3849192  60.7032537  17.8449142  57.9061508  61.4956999
  18.3119500  57.7026033  60.0704193  62.9943037   8.4070182  58.3259249
  63.0948496   7.8006208  57.5921679  62.0491791   8.5396910  58.3992195
  12.3004520  34.2112947   5.2332765  12.4792767  33.6104178   4.5099500
  11.8622375  34.9566889   4.8226839  34.8266792  40.9917212  28.4654975
  35.2762103  41.8359852  28.4285092  34.9058938  40.7180309  29.3793082
  39.0490389  19.1068447  43.0803061  39.2386556  19.9303019  42.6306438
  39.8927474  18.6566305  43.1214666  82.1522999   2.6893550  66.2853909
  81.8206787   2.1738508  67.0205832  81.4356136   2.6902491  65.6508970
  75.0862455   1.8121238  53.7142038  74.9315023   1.8109415  52.7695942
  74.6705341   1.0082642  54.0260172  22.6984811  26.6322160   6.5882409
  23.5787797  26.2613750   6.6497493  22.6986217  27.3548770   7.2159290
  59.9747992  24.0793800  45.8488274  59.9514771  23.1745005  45.5375719
  59.2521524  24.1363382  46.4739466  10.3176069  55.8664799  23.2173944
  11.2563646  56.0242319  23.1169987   9.9958062  56.6315937  23.6941361
  24.9997640  45.1768732  65.2619171  25.6713200  44.5122099  65.1087189
  24.8368287  45.1399374  66.2044239  22.6134014  75.4140234   7.3072910
  23.3952379  74.8653364   7.2448093  22.1545124  75.2722645   6.4793068
  24.4990277  28.7622094  10.8561218  25.4158163  28.9563060  10.6610405
  24.5340824  28.1722593  11.6090894  60.1174927  70.6752300   8.0926627
  59.7430563  69.8810911   8.4739399  59.4191265  71.0286570   7.5416589
   5.6582290  68.0019426  33.0750537   5.0736958  67.5089979  33.6508656
   5.0930315  68.6547756  32.6620245  68.9741707  53.8257837  18.1466532
  68.4328079  54.4466066  18.6342323  69.6330070  53.5355711  18.7774825
   7.2964489  48.5184288   1.0692519   8.0109841  47.9050398   0.8976991
   7.1670169  48.4764194   2.0167300  29.6537352  63.7596798  20.4032874
  29.5889354  63.8110018  21.3569117  30.3588557  63.1321096  20.2445674
  53.0125380  12.7911341  10.1013625  52.2467899  12.5254107  10.6105316
  53.5369205  13.3105838  10.7108116  52.3476696   4.1460162  37.8600097
  51.7238855   4.8584458  37.9998922  52.4584246   3.7513530  38.7249994
   7.6300818  19.2563510  58.1794643   6.8250936  18.9530206  58.5992432
   8.3171207  18.7030017  58.5509634  37.0203066  73.6362982  48.2862425
  36.1179972  73.9547205  48.2602453  37.4194169  74.1069984  49.0179443
  75.0037575  26.3574243  66.4398050  75.9209442  26.1229324  66.2983465
  74.6865273  26.6162682  65.5745888  34.7045493  42.7142143  21.6899824
  34.4343448  42.5421476  22.5919867  34.7861099  43.6667204  21.6419482
  25.3367758  62.2870684  10.7472730  25.7237363  61.8476582  11.5045142
  25.4785943  61.6808081  10.0202453  75.8536720   6.0625708  47.2188425
  76.2080908   6.8788308  46.8662310  76.4116478   5.8643073  47.9708958
  60.4279852  13.1790066  45.0461197  60.3691626  12.4584413  44.4187784
  60.5905247  13.9531565  44.5071363  61.6955709  13.7467325  21.7784739
  61.1615753  13.2987869  21.1224031  62.3838377  13.1183469  21.9967604
  61.9233704  50.3877449  34.2959833  61.7617846  50.5040216  35.2322531
  61.0546875  50.4289675  33.8960814  64.9824333  14.0424931  39.7981191
  65.4281807  13.2084155  39.6502948  64.0739918  13.8000691  39.9775481
  36.5504241  53.4693384   4.1836441  35.6997228  53.5233355   3.7481850
  37.1268606  54.0183353   3.6520857  73.6992741  70.3343725  20.0549531
  73.5436249  71.2735510  20.1546836  74.5967245  70.2737570  19.7276306
  15.4230165  23.4082484  46.7778206  15.4315698  24.1816711  47.3417139
  16.0098529  23.6319923  46.0554695  24.6702504  56.3827133  19.8040354
  24.2342997  56.3069010  18.9552534  23.9565253  56.3711166  20.4417610
  28.2169700  44.5923996  14.4634604  28.8143110  45.1681566  14.9408734
  28.6713052  44.4036913  13.6423647  69.6757174   4.2226118  32.2970963
  69.3289661   5.1112080  32.3770547  69.0500784   3.6775321  32.7742720
  13.2340288  23.1026959  26.2420988  13.2684481  22.7781034  25.3422737
  12.3596287  22.8637719  26.5496230  34.5887542  55.2432537  37.0436001
  35.5424237  55.1752567  36.9975305  34.3605947  55.8762121  36.3627625
  17.1573853  40.7918501  24.1191196  16.8311608  41.0548496  23.2585144
  17.0455658  39.8413777  24.1374350  67.2801924  67.1505690  22.9763818
  66.6809082  66.9341612  23.6907053  66.7458916  67.0787811  22.1854329
  36.6049647  33.2480478  12.4237382  35.8658314  33.4331989  11.8443978
  36.5266609  32.3146892  12.6210773  42.4099636  76.0059404  31.0447884
  41.9893503  76.8613768  30.9578991  43.0530024  76.1251116  31.7437363
  43.9056444  63.0128908   9.3641990  43.2400465  62.9616308  10.0501907
  44.6325874  62.4858952   9.6959507  43.2687283  64.1826487  14.3176818
  43.8419151  63.6138201  14.8316085  43.6506796  65.0553131  14.4114757
  16.7041957  62.9126215  10.7324779  17.4174643  62.5721550  11.2724411
  15.9229422  62.8116894  11.2762511  71.8768167  31.5206885  32.0618844
  72.7634382  31.8357992  31.8862700  71.4600897  31.4858246  31.2008667
  38.1006455  54.9797869  22.5334024  38.2275033  54.3020010  23.1972909
  37.4970031  54.5872831  21.9026995  25.2648878  65.0568628   4.7619617
  25.3830695  65.8496523   4.2387515  25.4359579  64.3394756   4.1517746
  33.9202857  42.3448038  24.4001603  33.6941695  42.0503998  25.2824473
  34.2107892  43.2493925  24.5166087  29.9516749  58.8786697  35.4326963
  29.5491195  58.0157280  35.3351617  30.6577182  58.7435436  36.0647368
   3.4429240  53.8573742  33.2077360   4.1841158  53.5878229  33.7501454
   3.6690703  54.7401190  32.9147243  13.3549011  29.8894143  30.6287265
  14.2912614  29.8846626  30.8273172  12.9300272  29.9938750  31.4800811
  46.1163855   2.8588551  23.8788843  46.1359978   2.3598644  23.0622721
  45.3556776   2.5181901  24.3495250  25.6272268  43.0584812  11.9940591
  25.2371478  43.7780094  12.4903917  25.1022053  43.0061340  11.1954069
  11.8090653  19.8265874  30.4591608  12.1166039  19.1341031  31.0440683
  11.2252176  20.3566504  31.0017347  32.5179720  65.3205156  22.8062916
  33.1914973  65.9921408  22.6989746  31.7257786  65.8092546  23.0294442
  63.9931250  51.5954256   4.7785047  64.0283108  52.4609089   4.3711543
  63.0794287  51.4930058   5.0447768  48.0911636  37.3061347   7.7575916
  47.2810555  37.4578524   8.2443601  48.7727165  37.2795606   8.4291655
  14.4547546  38.8518524  64.9710178  14.8738575  38.3935690  64.2426205
  15.1242352  39.4569111  65.2902842  34.2200422  66.2572861   8.5251760
  34.0906763  65.9684849   7.6217991  34.2620468  65.4464626   9.0321565
  54.6339893  62.6982403   7.9805845  54.6647263  62.3470926   7.0906508
  54.9071741  61.9679403   8.5357964  67.4031115  66.1561441  54.5992756
  67.4137497  65.5971241  53.8223457  67.7394867  66.9983292  54.2929935
  43.1761503  52.4462843  21.5406919  43.6407661  52.4886465  20.7048869
  42.6011038  51.6856861  21.4567757   7.4214667  31.6660810  63.7794685
   7.3958957  31.8129992  62.8339577   8.3201164  31.8793917  64.0307808
  32.8440952  52.2705030  26.0346127  32.9092860  51.5006065  26.5996289
  32.1835399  52.0343924  25.3833461  28.0168843  -0.1387385  54.9548054
  28.1824374   0.5626393  54.3248129  28.5304523   0.1049207  55.7249451
  80.4507446  60.0475645  24.1103625  81.1936665  60.5189276  23.7333751
  79.8770857  60.7354069  24.4480276   0.4034741  61.3608408  54.8985720
   0.3505166  60.7741070  55.6530046  -0.3840987  61.1683702  54.3897200
  20.7923150  29.7060204  17.9604948  21.4211845  30.2743769  17.5158298
  20.2625561  29.3362284  17.2542059  35.9918284  73.6015081  38.0808663
  36.6050410  74.3285942  37.9734111  35.1519179  74.0218544  38.2655191
  52.8075075  13.5915554  25.5265307  51.9177580  13.3171058  25.3045893
  52.7855539  14.5466185  25.4664874  38.9149475  62.4924135   7.1809870
  39.3481565  63.2140112   6.7250723  38.0196071  62.8006506   7.3209524
  75.6321573  17.1029329  44.0719175  74.6966076  17.2668374  43.9531374
  75.9647369  17.9006577  44.4833279  14.5359182   7.4327558  62.4969530
  14.2517388   8.3137721  62.2534704  15.4100311   7.5567019  62.8668118
  28.6528778  13.8792765   4.4369933  28.7410426  13.4713793   3.5755536
  27.8718710  13.4748161   4.8147118  31.2407660  49.2909098  23.3837390
  31.9796610  49.6532154  22.8948641  30.9080601  50.0278807  23.8960028
  25.0347710  47.5057411  12.2083247  25.9201121  47.4082422  12.5588894
  25.1596880  47.9179764  11.3535202  75.1434851  45.9788942  20.4919505
  75.7103395  45.2279043  20.3161073  75.3575563  46.6072321  19.8023176
  36.4090800  31.0125256  63.7443018  36.3886929  30.0990438  64.0295458
  37.1919894  31.0751772  63.1971645  31.5901470  43.7539387  15.6479847
  31.2502599  42.9829216  16.1021209  32.5326753  43.7333775  15.8136594
  25.2660847  64.0990829  34.1833019  25.7103944  64.0236330  33.3388329
  24.9524093  65.0030613  34.2089844  42.9143429  67.0593023  25.5635071
  42.0831680  67.4272633  25.8634806  42.6809359  66.2048817  25.2005744
   0.0715192  49.7523499  42.7956915   0.1878484  50.1927042  41.9537973
   0.8863194  49.2674875  42.9269838  36.1481476  18.2272601  35.0289655
  35.3579044  18.4823012  34.5528316  36.8666196  18.5983527  34.5167923
  33.3349824  73.4131718  35.7988429  32.4743152  73.8316774  35.8172107
  33.8661861  73.9822388  35.2418733  18.3826506  22.2265410  16.9854605
  18.9321029  21.4741373  17.2050643  18.8248825  22.9724765  17.3907256
  57.9433918  56.9954062  35.1555610  58.2586670  57.5483656  35.8704519
  57.3523998  57.5607443  34.6582174  39.9275637  64.1220999  25.2174973
  39.5826077  63.3436394  25.6547999  40.0736189  63.8439560  24.3133187
  30.9442568  75.2146769  14.7979128  31.4874196  75.5500841  15.5111504
  30.0464535  75.3071690  15.1167011  16.2912154  74.4253635  41.1511993
  16.1188710  74.4811487  40.2112961  16.8863547  75.1536179  41.3292170
  31.7554164  28.9572978  16.6031766  32.1738029  29.6890807  16.1496556
  30.9351659  28.8193917  16.1294675  46.3204813  53.9285612   3.2707855
  46.5939617  54.8040581   2.9970220  46.3711739  53.4015131   2.4733637
  53.8062382  54.9882078   6.9181728  53.2121563  55.5072403   6.3760448
  54.4500160  55.6193352   7.2398305  14.9693704  42.3032093  17.8288686
  14.7729385  41.9978046  16.9432199  14.4840515  43.1240177  17.9123259
   7.4471390  66.9521523  15.7994986   6.8927819  66.1745071  15.8641887
   8.3404148  66.6163731  15.8739460   5.7743341  17.6542974  62.8544044
   6.5229619  18.1663966  63.1602526   6.1246395  16.7733324  62.7224207
  51.2607527  49.5434713  11.8085933  52.0383978  50.0531340  11.5811157
  51.1063147  49.7415447  12.7322543  22.5175762  54.3984556  30.5751991
  22.9366302  55.1231050  30.1109695  22.8750944  53.6116743  30.1636362
   4.5226657  46.9196510   2.7971926   5.0591755  47.3613119   3.4554681
   4.0131944  47.6219702   2.3929402  32.1812868  42.3529100   4.7785309
  31.7013907  41.5653896   4.5221266  32.5294542  42.6993513   3.9569548
  42.2558355  55.4219961  13.5092890  41.6850662  55.3974247  12.7412713
  42.5355721  56.3353443  13.5706890  27.8725815  73.6994791  28.9862752
  27.8423071  73.5772800  29.9351621  28.7920904  73.8875484  28.7982225
   5.1662421  24.1424298  60.7161474   5.0483227  23.2840753  60.3092623
   5.9984761  24.4608951  60.3665781  26.6099787  39.3832183  27.1402264
  26.7399597  40.1553917  26.5896893  27.3786807  38.8378429  26.9732141
  51.3176918  64.1477776  26.7345524  50.7226467  64.1707325  25.9851360
  51.0642719  64.9033022  27.2648311  47.0521259  73.7715769  11.0957420
  46.7169380  73.3506012  11.8873620  47.8108883  73.2438231  10.8467567
  52.8857517  61.0773516   5.9286511  52.1414185  61.6764307   5.8712327
  52.6522827  60.4720402   6.6324413  68.7319326  24.2454505  63.0869055
  67.9598284  23.7139201  62.8930950  68.7573957  24.8957348  62.3849678
  62.0149946  31.8425870  65.4677343  61.5303850  31.3909698  64.7767735
  62.1764946  32.7174282  65.1144648  73.4099722   5.1025581  48.2497644
  73.9930677   5.8242542  48.0144310  72.5375843   5.4090381  48.0022860
  28.6854362  51.5753317  14.3131220  28.1592131  51.1190701  13.6565042
  28.1025028  51.6651821  15.0670111  23.0731368  44.9724913  26.4156580
  23.0019116  45.3141403  25.5243444  22.9885936  45.7443047  26.9754696
  25.2957177  48.8119984   3.3949554  26.0158968  48.2466984   3.1156591
  25.4688048  49.6500063   2.9659811  16.7728007  57.4036646  21.8312192
  17.0535362  56.4946699  21.7256355  17.4183476  57.9122543  21.3404655
  40.8234024  64.5177412  42.4614143  40.4543686  63.7916279  41.9586182
  40.4164171  64.4426632  43.3245230  57.8565836  71.7067194  63.5579538
  56.9874811  72.0319843  63.3232212  58.4304285  72.4669838  63.4634542
  10.6729746   5.7040590  19.5109642  10.7026148   5.6219435  18.5577536
   9.7758675   5.4652047  19.7441578  34.0551281  70.6207991  30.6148171
  34.1952395  69.9188662  29.9792933  33.3117771  70.3238297  31.1396742
  21.6368699  31.7709613  56.9836283  21.8739009  30.9715724  56.5134954
  20.7013440  31.6753459  57.1621847  18.8915372  26.4387441  19.4168866
  18.3105373  27.1696234  19.2059684  19.7198594  26.8532181  19.6583915
  65.4169464   2.5252166   4.0030807  65.5367565   3.1728470   3.3084923
  66.2740993   2.1086818   4.0926215  29.3855500  32.1103287  17.3018336
  29.3549156  32.0024514  18.2524419  30.2480006  32.4889779  17.1314263
  27.2054601  35.5400205  62.4310732  28.0438209  35.2037930  62.1143246
  26.9158840  34.8934507  63.0747557  52.6156235  42.6509428   5.9431738
  51.6916609  42.8214407   6.1260802  52.7378464  42.9390621   5.0385845
  56.8112803   6.2551695  55.0768948  56.8049717   5.9882319  55.9960985
  56.3348532   5.5603844  54.6224451  12.9163015  31.2972641  47.1916342
  12.2160757  30.7606459  47.5630569  13.4844947  30.6718206  46.7419577
  38.0073547  46.0047197   4.3632543  37.5782585  45.3047180   4.8552939
  38.3474088  46.5958929   5.0349021  63.6544243   0.6562780  51.7050934
  62.9953495  -0.0254656  51.8357801  63.3751622   1.1101125  50.9099340
  60.6372166  24.6352673  39.8404288  59.8199320  24.6081161  40.3379679
  60.5794811  23.8887787  39.2440605  31.2553191  77.6094818  28.0091500
  32.0143080  77.6572895  28.5904241  30.5047321  77.5473833  28.5999084
  36.3877058  38.4866571  12.3523521  35.8013105  38.5350513  11.5973473
  36.0004687  39.0811729  12.9948711  65.1935816  62.1582317  61.3044930
  65.9793615  62.1664524  61.8510389  65.5249405  62.2081232  60.4078627
  82.3910046  75.3489208  29.7454309  81.8159676  75.1382780  30.4810905
  81.7979431  75.4624367  29.0027189   2.6471236  61.6695833  16.3038373
   2.9994032  60.9634590  15.7620633   2.7822122  62.4612474  15.7830215
  30.3174281   9.8830920   8.3752024  29.7633886  10.0826943   9.1298085
  30.2776241  10.6713653   7.8336555  40.8673286  28.7996674  63.1961346
  40.8281517  29.7522736  63.2812309  41.2237358  28.4989858  64.0320778
  66.9785786  44.6679735  14.4916630  66.1625671  45.0418186  14.8242331
  67.5589466  44.6446943  15.2524912  15.2371264  36.1141372  66.7128325
  15.7783628  35.5444169  67.2593784  15.6037903  36.0213423  65.8335304
  74.6537103  77.2565112  63.7268400  75.5661036  77.5012374  63.8813734
  74.1485251  77.8571110  64.2748356  30.9536576  17.8098536  14.9489892
  31.4519644  17.0587945  15.2712178  31.4213896  18.0875134  14.1613579
  54.5331049  52.9323244  36.2936783  54.6816254  53.6920691  35.7306838
  53.9319038  52.3787832  35.7953072  19.1803396  32.0430732  45.8134174
  20.1096892  31.8277121  45.7349443  19.1686416  32.9694700  46.0540104
  44.5527539  77.4827075  22.8769779  44.8311695  77.5561611  23.7898421
  44.3406805  78.3795722  22.6183462  56.9721842   3.9960402  18.0703449
  57.7981806   3.5858634  17.8139925  57.0808458   4.1922063  19.0009058
  20.4397178  44.2823982  40.6555462  21.1099195  43.7229204  40.2630568
  20.4525161  45.0793457  40.1255035  79.1124439  36.2215447  63.5894585
  78.3394432  36.6653275  63.2405186  79.4719982  35.7436013  62.8421116
  40.3562117  54.4598055  19.2780054  39.6469188  54.4657469  18.6352789
  39.9314213  54.2189217  20.1012659  46.1067867  13.3616841  22.9400849
  45.9182358  12.5361562  22.4937844  46.6605854  13.8445723  22.3266053
  39.4628286  31.0524035  31.1829877  38.5056686  31.0612726  31.1817479
  39.6957636  30.2714753  30.6808639  31.1890149  72.6898718  13.9816475
  30.9905362  73.6108160  14.1510439  31.2687778  72.6332617  13.0294585
  29.5933509  69.8049545  26.1967397  29.3422961  70.4761219  26.8313527
  28.7746716  69.3555498  25.9869003  68.4973097  44.3167305  16.5734518
  68.0036354  43.9851570  17.3235035  69.4132614  44.2598963  16.8455398
  22.8073049  53.0427170  17.3398912  22.6242375  53.3577347  18.2250369
  23.6115074  53.4955454  17.0860505  33.7135649  22.6045609  11.0274291
  33.9599848  22.3209715  11.9078195  33.4203672  23.5087276  11.1403346
  52.0983839   3.7722126  59.9609756  51.8284369   3.2122076  59.2331314
  52.5333309   4.5153460  59.5428753  39.4193244  57.3783207   8.2619327
  40.0939226  57.5142479   8.9272678  38.9400649  58.2064342   8.2341039
   8.0377167  55.1516628  17.3334420   8.8279396  55.1122141  17.8721666
   7.6195753  55.9761667  17.5815952  37.8180504  57.3091078  59.7090244
  38.3578277  56.8991995  60.3849268  38.2014108  58.1781721  59.5907307
  20.3741813  58.2453012  19.0242326  20.5236268  58.7968874  18.2563460
  21.1334300  57.6630783  19.0523350  58.9188337  58.8892365  37.0173335
  59.5210838  58.7006187  37.7370191  58.4642029  59.6868229  37.2882605
  41.3489199  27.3975945  25.6777906  41.5016556  27.7314115  26.5617990
  41.9690371  27.8785133  25.1296997  35.5903006  42.3510361   8.4903991
  34.7947288  42.1493912   7.9978174  36.0548186  41.5160465   8.5473907
   5.6433684   3.9793128   7.1923685   5.3986329   3.6591142   6.3241464
   6.1061972   4.7999477   7.0233148  39.3987083  61.9020033  36.2910938
  38.5839534  61.6131687  35.8800220  39.7722316  62.5267649  35.6694961
  38.3296824  74.4369125  18.4880161  38.1005168  75.0329113  19.2011094
  38.9929080  73.8578701  18.8636124  60.9178448  58.6186218  20.6671262
  60.0226641  58.2932043  20.5723333  61.3323784  58.0058765  21.2745261
  67.0121670   7.7412140  56.7318773  66.4131308   8.2952291  57.2323322
  67.7218151   7.5428194  57.3428345  46.8340063  77.5884581  28.0210876
  47.0422411  78.3090162  27.4263883  46.4385366  78.0129433  28.7824368
  49.7664404  70.9607172  58.5377502  49.5332289  71.7825270  58.9695835
  50.2940083  70.4917431  59.1842556  35.1241660  75.8399820  40.4804659
  34.6183300  75.4105902  39.7905493  35.9565020  76.0630274  40.0636911
  44.4972134  67.3201847  31.7797351  44.1392231  67.0267296  32.6175642
  44.7946739  66.5172195  31.3519573  65.9848022  49.5685768   4.1758636
  65.1829529  50.0911617   4.1892198  66.5835094  50.0335836   4.7602871
  76.0310984  56.2988091  30.6319141  75.4055357  56.5413475  31.3146138
  76.7423248  55.8639240  31.1023021  64.7844219  14.0371108  58.6888647
  64.9166012  14.4966900  59.5180464  65.1032972  13.1497085  58.8533878
  46.8926907  74.8121834   5.9262222  47.3650074  75.4736757   5.4206735
  47.0290852  75.0658607   6.8390620  21.6451669  16.1270654  29.1194177
  21.1721230  15.4215658  28.6781335  21.7522359  15.8176339  30.0188732
  70.2865458  11.0630810  62.3803425  71.0001516  11.4454317  62.8910398
  69.4966316  11.2714362  62.8791952  37.4429560  44.4001198  25.8626127
  37.2057009  44.0585470  25.0004840  37.9693413  45.1774359  25.6757069
  67.7769327   0.1646980  58.4233284  67.6204014   1.0250334  58.8126278
  67.6215839   0.2933569  57.4876213  11.2600291  43.1219387   7.1129745
  11.8722868  42.4521637   7.4175650  10.9070873  42.7699757   6.2957931
  56.0381937  55.4560184  21.9348598  55.5569172  54.8521280  21.3692379
  55.7518673  55.2340078  22.8208399  28.9627600  63.7127352  30.1582265
  28.5190725  64.3654776  29.6166515  29.6941185  64.1868925  30.5538607
  29.9223757  57.3622465  21.2373519  30.7293272  57.8166866  21.4793086
  29.4655466  57.2269297  22.0675516  36.0947418  64.4782305  23.2775235
  35.8218265  63.5628176  23.3389497  36.8377590  64.4666719  22.6741791
  25.7161355  77.7610445   1.6065538  24.9381995  77.8081274   1.0508294
  25.4836655  77.1340036   2.2913957  37.2910333  48.4677172   3.4023359
  36.3854885  48.7031412   3.6043090  37.3617196  47.5476217   3.6566228
  27.5169992  16.0970068  55.4043436  27.3507500  16.6639769  54.6512604
  28.4311509  16.2647831  55.6332779  20.6141043  56.1775923  24.5095515
  19.7678983  56.1802483  24.9569416  20.4211307  56.5027237  23.6301875
  20.7015729  75.7622671  24.5279241  21.5055776  75.7234049  24.0099478
  20.1036668  75.1581001  24.0877891  62.3318100  64.3583584  49.8326302
  61.7693758  65.0329256  49.4520235  62.8216982  64.0073538  49.0889645
  25.2268100  53.0552912  29.9771976  26.0558200  53.4834290  29.7634840
  24.8673391  52.7928448  29.1297698   2.5395980  68.3498430  58.0822849
   3.0671877  67.9877615  57.3704004   2.4780396  67.6389408  58.7202978
  41.7738390  57.6860142  56.4215994  42.6486683  57.3234797  56.2820578
  41.3621473  57.0856905  57.0431709  16.9115162  29.6808863  36.9523072
  16.8204427  28.7578821  37.1889544  17.7457631  29.9462104  37.3394322
  15.5426800  65.5337143  20.0071454  16.2222576  65.2751064  19.3846262
  14.7261631  65.2308893  19.6098638  42.7927589  19.1560102  25.2797627
  43.5622883  18.7337542  25.6615472  43.0025673  19.2403483  24.3496537
  20.9696865   5.7562315  45.2453947  21.8032384   6.2049526  45.3870773
  20.9811258   5.0279653  45.8664656  58.2980299   6.0798770  43.3212328
  58.1272078   5.1430935  43.4186363  57.5821877   6.5043163  43.7941504
  63.2226562  51.6332293  10.3340256  63.6978722  51.5347481   9.5089781
  62.3568535  51.9491196  10.0755072  14.6235394  63.3369684  63.3313227
  14.9973619  64.1327190  62.9528189  13.8753510  63.1333780  62.7700758
  72.1350718  59.9422979   9.7579533  71.4651918  59.4207668   9.3157989
  72.7821541  60.1277161   9.0774107  76.2257290  18.3150709  40.4475641
  75.5848360  19.0240145  40.5012655  76.2659788  18.0986428  39.5160198
  53.4738684  55.5454159   9.8877299  53.8134909  55.1146030   9.1033274
  52.5229406  55.4673004   9.8111826  45.8164644  50.6081152  23.4211731
  46.3587856  50.8116817  24.1831946  44.9235535  50.8076382  23.7024879
  22.8482294  73.7891865   1.1776529  22.0807457  74.1963339   0.7758710
  22.9566813  72.9639864   0.7048791  68.9995718  65.9929657   4.8238620
  69.0001202  66.6794586   5.4909122  68.1590176  65.5493402   4.9374110
  29.7154713  16.3442838  65.4868078  30.2902842  15.6148517  65.7186460
  28.8329005  15.9759533  65.5272579  21.3501477  65.5102444  11.1348736
  21.9173717  66.2756395  11.0418487  21.8665075  64.8906994  11.6504025
  29.0301299  56.0251808  35.6643343  28.1074452  56.2198782  35.8285832
  29.0341473  55.5827522  34.8155284   7.0653200  19.9660075  17.0333517
   6.3191164  20.3709221  16.5912485   7.8311867  20.3060675  16.5707064
  60.1728106   2.1447992  30.4606318  60.8931017   1.5318206  30.6078458
  60.5997086   2.9949105  30.3543210  32.0718908  69.7623682  13.1013393
  31.6327596  70.5829000  13.3252192  31.7425704  69.1319418  13.7419140
  45.1550102  51.8108034   9.9108005  45.3283882  50.8813953   9.7612309
  44.3742418  51.8227339  10.4644167  69.0508795  38.3757329  15.1605093
  69.8619747  38.0530405  14.7677910  69.2908955  39.2171597  15.5486131
  54.0243149   7.6795501   1.1144844  53.8701248   8.5083044   1.5679415
  53.8537741   7.8752941   0.1931633  30.3294897  60.1447248  29.6800780
  30.8298254  60.7794809  29.1672611  30.9476280  59.4340420  29.8505592
  24.5265269  74.7715425  15.3225338  25.3086472  74.5190859  14.8318386
  23.8928795  74.0787125  15.1362264  21.2383556  75.5722332  32.6856732
  21.0321712  76.4774132  32.4524975  21.9638205  75.3353691  32.1078944
  29.4847131  69.3068218  17.9146612  29.7885466  70.1931620  18.1104207
  29.4638634  68.8675356  18.7648511  63.5201359  43.0150318  63.9077234
  63.3751249  42.0881081  64.0974998  63.6217213  43.0517578  62.9566383
  27.0085835  55.8992529  21.3819504  26.5125799  56.2660933  22.1138239
  26.6067481  56.2844944  20.6032681  10.7754779  20.3276849  47.0273447
  10.0425065  20.3789639  47.6408243  10.4115427  20.6261754  46.1938667
   2.4531011   1.6272552  24.2112565   2.7509367   1.3976750  25.0914955
   3.1103387   1.2461185  23.6290169  57.5810814  63.8853741  13.1156301
  58.2435036  63.2788801  13.4466839  56.7510319  63.5305834  13.4340274
  42.3423243  60.2448654  10.8351207  42.4109602  61.1719179  11.0633624
  42.9795074  60.1237011  10.1311696  80.8542633  60.2336740  20.7760763
  80.8487797  61.0915470  20.3515077  79.9483824  60.0981855  21.0540056
  33.4165025  57.9422379   9.9745852  33.6730647  57.3821974   9.2419440
  33.4509683  58.8308096   9.6203440  72.4855042  32.2032118  19.5858991
  73.4401560  32.1335840  19.5899785  72.3133802  33.1245303  19.3915272
  62.8084040  40.9203815  66.5929270  62.4095154  40.5927706  65.7868338
  63.2285929  40.1530123  66.9812775   3.2048014   2.1649724  40.5342340
   2.5856388   2.8453100  40.7988310   3.4754840   2.4176249  39.6515536
  59.4973040  75.8205462   8.2109863  59.8307228  75.4323339   7.4020642
  59.6758032  76.7564297   8.1188369  50.4936695  53.8359070  21.0853982
  50.4981089  54.6026468  21.6583967  50.0390244  54.1295385  20.2958989
  42.9787540   2.9150295   5.4044282  42.3190260   2.5356027   4.8238850
  43.1921387   2.2110808   6.0169262   9.2461735  62.2154617  11.0818732
   9.2102909  62.9785109  11.6586709   9.0208572  62.5581789  10.2169979
  66.3741255  57.6882744  51.4715242  66.2538958  58.6378908  51.4707136
  65.7297707  57.3658037  52.1016407  79.1571665  29.0576291  58.8285351
  78.8973188  29.4731617  59.6507502  80.0731754  29.3096948  58.7117958
  21.0220098  56.0439682  15.5127060  21.8087482  56.3711405  15.0765491
  20.4967189  56.8268776  15.6781042  63.0519867  70.6562901  40.5065346
  62.1067381  70.5817175  40.3754616  63.4271049  70.4986954  39.6401167
  46.8348789  57.7090263  25.5309367  47.5907898  57.3516178  25.0650072
  47.2127867  58.1895113  26.2675190  35.0499105  60.2547455  26.7360806
  35.3351116  59.3465090  26.6360903  35.7975674  60.7744503  26.4408731
  45.9177971  51.5647650  61.9206572  46.7696381  51.6472864  62.3493624
  45.9431171  52.2075510  61.2118435  48.6722231  14.8634374  41.4523077
  48.3889723  15.6051481  41.9869709  49.2095518  15.2556574  40.7640696
  74.5182371  60.0498295  24.8062968  73.6173248  60.3324556  24.9635005
  74.8239565  60.6100035  24.0928698  22.4790263  23.1776452  33.3930230
  22.1566248  24.0611339  33.2148719  21.8288612  22.6002121  32.9929090
  10.9384477  12.2984254  45.8939075  11.5578389  11.6605735  46.2484932
  10.1555097  12.1986270  46.4354610  77.8052711  54.1039610  35.5554605
  77.8032923  55.0499296  35.4092669  78.2946777  53.9885044  36.3699436
  54.5336485   6.1767244  30.7829309  54.3800592   6.6989660  31.5702724
  54.4033527   6.7899370  30.0595880  14.3241477  57.1359730  64.8968887
  13.5602760  57.2023296  64.3238878  14.3312812  57.9605341  65.3829718
  35.2657032  13.4465289  34.6992826  34.6426058  14.1478193  34.8894763
  36.0892487  13.7471318  35.0835228  75.7712507  26.2199998  46.8413496
  75.3514385  25.7178092  47.5397730  75.5019236  25.7801843  46.0349607
  51.1951828  64.4651079  10.8310449  50.9346867  64.7983027  11.6897380
  50.5393457  64.8163986  10.2287912  32.0615458  68.9948893  34.6433663
  32.7200365  69.6821785  34.5420933  31.4455199  69.3462563  35.2862382
  27.1170211  44.9026823  27.9470682  27.3118353  44.1147423  28.4544420
  27.8374577  44.9681330  27.3202324  53.5028219   2.6139203  27.9037857
  53.1048203   1.7890491  27.6255536  54.2945147   2.6895303  27.3711181
  39.5920491  61.9366503  11.1984706  40.0830269  61.3098717  11.7298102
  39.2496729  61.4174175  10.4708660  45.4684544  30.7640743  16.1772609
  45.1801777  29.9335670  16.5559220  45.5850077  31.3431001  16.9305038
  40.9828663  74.9849033  15.0037324  40.7710743  75.6576538  14.3565977
  40.9407902  75.4399300  15.8448100  40.9266806  69.3625307  11.1453998
  41.1948967  69.8236990  11.9401443  41.4468098  69.7632265  10.4488802
  53.7991953  67.1640968  34.7440410  53.8858652  66.2108278  34.7440076
  52.8554869  67.3187971  34.7026038  56.3652992  56.5130949  18.8803124
  56.4209032  55.7220650  18.3442104  55.5511284  56.4115667  19.3733168
  12.4794948  28.6612773   0.7537226  12.3859894  27.7283406   0.5610608
  13.4086490  28.8430071   0.6127353  26.1470294  73.3174181  24.8198199
  26.8762016  73.8086748  25.1982427  26.2118912  73.4794521  23.8786650
  14.6917689  68.4248638  25.3267598  13.9229560  68.8352060  24.9308109
  15.0837219  67.9158354  24.6171856  76.8596172  18.7230706  11.2044716
  77.2295713  18.9541721  10.3524399  77.6006699  18.7713408  11.8084085
  64.0421391  45.4832840  15.9577680  63.7088776  46.2831068  16.3645208
  63.9593649  44.8157978  16.6388297  77.7102327  24.3201947  56.3824701
  77.1103764  24.8310804  55.8389664  77.8507328  24.8622727  57.1587706
  33.1248474  41.7701721   7.1863210  32.8518891  42.2555399   6.4077687
  33.1528139  40.8567476   6.9015372  42.1485043  76.6708565   6.6464257
  42.0229721  77.3993015   7.2545749  41.2781191  76.5105629   6.2817830
  60.9880686  56.1459494  41.9131279  60.8417273  57.0452356  41.6196918
  61.4974976  56.2366772  42.7184105  13.7806284   3.2052782  32.8601789
  14.1904521   3.3167234  33.7179995  12.9628932   3.6992747  32.9194140
  40.3020954   4.7333845  16.9086754  40.7677841   5.3971946  16.4000261
  40.0958872   5.1671320  17.7366686  40.6120014  75.6680584  10.6058681
  40.7146215  74.7417784  10.3874505  41.4308882  76.0735083  10.3208005
  34.2912698   0.8071763  20.3244758  33.6176181   0.9570689  19.6611834
  34.9630594   1.4624450  20.1359153  72.9383421  15.8450818   6.7670459
  73.3253145  15.4408419   5.9904683  73.5643816  15.6644642   7.4682444
  68.5385799  57.4265242  59.7332001  68.6789513  56.5755320  59.3180656
  69.3243694  57.9296970  59.5197010  12.6873600  44.8390532  54.8227072
  12.5452268  44.0464973  54.3051243  13.6383629  44.8981714  54.9139690
  60.3370142  46.7864513  50.1336384  60.6201601  47.1726561  49.3048429
  60.8461571  47.2485924  50.7995462  54.7946548  62.9047680  21.2202382
  55.5601597  63.4788990  21.2449646  54.4208145  62.9660416  22.0992827
  65.6365824  64.9502945  59.3943119  65.2427006  65.0462341  60.2614212
  65.4139805  64.0583992  59.1274738  59.5540810  64.7718430  30.7134318
  60.4500103  64.5113468  30.9271765  59.4390488  65.6153536  31.1510181
  28.5335994  53.4072638  11.1065853  28.5133576  52.9285288  11.9352210
  29.4005036  53.8125420  11.0852325  34.1473198  70.0178957  17.6327825
  33.6813831  69.2475128  17.9578066  34.4683123  69.7571468  16.7695308
   2.4202414  53.4632015  14.1308534   1.9708474  54.2161179  14.5147729
   1.7233336  52.9533625  13.7178004  76.7728329  42.4173260   3.7085009
  75.8684587  42.1751165   3.9076883  76.8293285  42.3681593   2.7542353
  64.7963572  72.9688549  56.3095713  65.0908709  72.0581865  56.2962723
  64.6575546  73.1621742  57.2367144  14.0552771  27.9538560  51.5723658
  13.5065222  27.5630236  52.2523260  13.5853946  28.7458372  51.3112020
  59.0107822  15.1327264  21.0866928  58.8017511  14.2711532  20.7258201
  58.3016682  15.6986666  20.7815623  74.1096163  16.3073838  12.6917779
  73.3685207  15.7401729  12.9045808  74.7743559  16.0879838  13.3446276
  47.1278572  53.5598850  16.4356756  47.3158169  53.0949354  17.2509813
  46.2087822  53.3633518  16.2542832  46.2731695  76.7223740   1.3166977
  46.5458441  75.9055042   1.7345546  46.1586189  76.4930391   0.3944641
  11.1234665  29.3421292   8.1775272  11.9883716  29.3307352   8.5874552
  11.2382102  29.8754334   7.3909825  13.3438456   1.1295144  54.4285202
  12.5764227   0.5713169  54.3031836  14.0769827   0.5175895  54.4940281
  50.9673500  59.2152023  41.9102335  50.1165581  58.8345385  41.6923475
  50.8518791  60.1551723  41.7711306  40.4323339  38.8989091   2.3518215
  39.9300909  38.4143257   1.6967177  39.8031759  39.5135188   2.7295074
  52.9081726  54.1999340   2.4542926  52.5207520  54.4287157   3.2991570
  53.4807062  53.4573221   2.6465663   6.3542670   1.4799191  44.7844934
   5.7225126   1.9622351  45.3178692   6.7385119   2.1426073  44.2105341
   0.2686755  55.3366709  15.4019916  -0.6731088  55.2456760  15.2570987
   0.4831169  56.1998940  15.0482988  64.2026186  12.3215532  42.3818588
  64.2228842  11.5076995  41.8784046  63.2821035  12.4334764  42.6192522
  81.4314651  15.5127776  27.1140194  81.4047909  16.2640190  26.5214348
  80.5908394  15.5383241  27.5711179  30.2503753  31.4803219  62.6714373
  30.0980282  31.9878340  61.8742847  30.0156879  30.5835128  62.4329329
  54.5860529  70.6460810  26.0383105  53.9843655  71.2816381  25.6506705
  54.0639114  70.1961470  26.7025089  55.1606894  10.6711578  33.4794617
  55.8194637  10.7275820  32.7873158  55.5723476  11.0879242  34.2364788
   5.4269230  17.2659624  23.8028121   6.0501587  16.8227065  24.3784285
   4.7440508  17.5874913  24.3914866  76.2161016  39.8562193   6.6245085
  76.2120628  39.3801975   5.7940745  75.8595896  40.7178640   6.4084059
  32.5164604  28.9420176  27.8823924  32.3944330  29.5896578  27.1881986
  32.0548797  29.3091583  28.6363053  48.7723064  13.9055359  10.2887905
  47.9196262  13.5155249  10.0962865  49.3487597  13.5725474   9.6010023
  41.3977480   6.9015253  15.6571317  40.5444098   7.3160088  15.7846177
  42.0070219   7.6331437  15.5583918  75.1051807  61.9362164  22.8056526
  74.5882511  62.3938084  22.1426105  75.8680964  62.4975109  22.9440045
  33.0499530  44.3438435  27.8915596  34.0043378  44.3699408  27.9601336
  32.8508306  43.4353065  27.6654148  74.8491526  56.7376328  17.9427314
  75.7984543  56.8596411  17.9560494  74.5029163  57.5023079  18.4027553
  66.7155647   8.3587277  19.6894991  65.9567547   8.8973475  19.9138427
  67.3008347   8.4441477  20.4420900  51.3612318  75.7581139  20.0293303
  52.1271849  75.6773901  19.4609761  50.7042789  76.1928654  19.4856024
  66.7841053   3.0423462  13.6022305  66.5930605   3.9675042  13.4479046
  67.7379704   3.0030999  13.6716962  10.0820351  45.7155466  52.9112959
  10.6585693  45.5427742  52.1669912   9.7608668  46.6051531  52.7640390
  19.1781187  36.8499017  65.9748650  20.1190615  37.0158577  66.0324478
  19.0466821  36.0416698  66.4705658  80.0863075  26.9690037  64.4652510
  79.2297029  27.3698258  64.3176126  80.0532627  26.1464810  63.9767885
  27.5033951  24.1554737  33.9550185  26.5724373  24.3559074  34.0518355
  27.8392076  24.8469257  33.3846188  53.1923294  59.5516634  40.0903225
  52.8064728  59.9695539  39.3204427  52.4808311  59.5246887  40.7300663
  58.1576204  77.5551176  21.2289929  57.6354647  76.8806362  21.6633368
  58.6617613  77.9594517  21.9351006  54.8629332  64.7275686   1.4382970
  54.4787979  64.3924141   2.2484475  54.1649818  64.6417713   0.7888843
  31.5299034  33.8971448  54.9854231  31.2337685  34.5826745  55.5842400
  31.0400629  34.0559435  54.1785336  56.7095947  75.0452042  19.5295906
  56.5508270  74.1507626  19.8312473  56.6311169  75.5815268  20.3185320
  33.8328314   2.2314958  62.8979349  33.9952207   2.3294751  63.8361549
  34.1027665   3.0682373  62.5194740  19.9271381  60.0548792  26.3688517
  19.7799861  60.9908104  26.2324524  19.5279825  59.6360350  25.6063032
  29.2734766  58.3326960  52.6909828  29.9517035  57.7429295  52.3617268
  29.7135210  59.1781473  52.7793360  57.0742702  72.1128225  27.6405096
  57.1352911  71.7299652  28.5156846  56.5873671  71.4661789  27.1296144
  72.2006178  42.4759483  17.2061992  72.9427052  43.0280733  16.9598234
  71.8241596  42.9086637  17.9725337  58.1285572  63.1942368  43.9748621
  57.9142952  63.1490421  44.9066782  57.7854824  62.3783493  43.6103678
  12.7300358   4.9770278   6.5353805  13.3071434   4.4517964   7.0897365
  13.1871486   5.0299054   5.6960452   7.9923314  70.3166628  54.0056515
   7.1040809  70.0594807  53.7584639   7.8696728  71.0328770  54.6287251
   0.0954658  32.7970982  66.5067911   0.5067860  33.4338856  65.9223700
   0.6508950  32.7937579  67.2863579  11.8914223  15.3302312   9.1923440
  11.7255270  15.3993428   8.2521665  11.0643351  15.0178230   9.5591676
  33.4727836  74.9168062  38.1997538  33.2338405  74.2743921  37.5315905
  32.6584458  75.3849173  38.3840203  68.1206131  22.6376343  13.4368658
  68.6352873  23.2509947  12.9123354  67.2803164  22.5800467  12.9820979
  74.9554396  69.8804760  24.2009521  75.4949617  69.7652197  24.9831724
  74.4464350  70.6720877  24.3755794  35.5402502  77.8393063   3.1830007
  36.2182459  78.0653373   2.5462422  36.0109743  77.7463410   4.0112558
  10.7145870  50.0408220  27.7728438  10.4274154  49.1784000  28.0728221
   9.9080294  50.5519056  27.7058005  56.5241194   8.2231069  59.3202782
  56.1795712   7.9734063  60.1776981  56.6054964   9.1758811  59.3630648
   6.7485023  10.5912745  53.0380583   7.4312955  10.0741482  53.4653807
   7.2256726  11.1892867  52.4627972  20.4115558  65.3437853  24.5021582
  20.4425716  64.7554445  25.2565622  21.0012388  66.0613680  24.7336411
  78.4363842  68.5324717  28.9695811  78.5319901  67.6247215  28.6813331
  79.0704107  68.6260414  29.6805596  14.9310827  18.8282752  40.7480288
  14.5661032  19.3922114  41.4299393  15.8693480  18.8021016  40.9356642
  75.9660053  14.8241127  52.9364395  76.7168760  15.1332045  52.4295998
  76.0699940  13.8729417  52.9627657  66.0952187  63.8827419  39.1722059
  66.6651917  64.1827726  38.4641504  66.6306686  63.9639997  39.9614573
   7.1822011  37.3242402  27.2515583   6.9027323  37.5166392  28.1466055
   8.1069803  37.5704169  27.2312498   6.7457402  13.5161734  14.1844499
   6.1010796  14.2092752  14.3267703   7.5161850  13.8010955  14.6758413
  70.0968742  65.9189796  48.9675379  69.9572229  65.9051037  49.9143982
  69.2513180  66.1826420  48.6045647   6.9154733  66.3149595   0.2162291
   6.2481976  66.9116402   0.5552693   6.4180011  65.6020975  -0.1844956
  62.5388670  56.5617514  29.8433971  62.3892117  57.5024223  29.9381375
  63.3558416  56.4004660  30.3153825  73.8316298  31.0923171   4.4831493
  73.1153297  31.5765166   4.0724272  74.4994164  31.7553401   4.6583474
  48.7749624  53.6306334  36.2414527  49.4050264  53.3571291  35.5747843
  48.9995003  53.1086063  37.0117140  19.7804701  53.6666298  60.6637430
  19.6641994  52.9022789  61.2280846  20.2779913  54.2855215  61.1982346
  54.7625208  60.6570005   0.7896224  55.5777979  60.6875515   1.2902424
  54.0757895  60.5967808   1.4537069  63.2481861  73.2252026  38.9714909
  63.2976866  72.2786856  38.8377690  64.1084671  73.5499716  38.7056375
  19.1246939  10.3177261  31.0686755  19.4440281   9.5364463  31.5201831
  18.3013213  10.5289555  31.5087581  10.1845467  11.0475814  14.9073708
  10.3465378  10.1867902  14.5213270  10.4482543  10.9530604  15.8226609
  23.3558726  47.6438046  48.4283638  23.6716151  47.1467543  47.6737213
  24.0442371  48.2873774  48.5962820  56.9411802   6.3090187  16.1415076
  57.0005417   5.5380017  16.7056358  57.7517605   6.2963921  15.6325543
  59.5477676  60.3078127   6.0135329  59.8030567  59.3972826   6.1618304
  59.9858475  60.7959700   6.7106861  42.1770287  54.6891308  33.7289429
  41.6233349  54.0224123  33.3225703  41.6216516  55.4675055  33.7727714
  18.3444356   0.5094885  61.1528349  18.5599659  -0.2105452  60.5601025
  18.5978316   0.1906513  62.0190716   5.6632990  76.6940069  33.7606049
   4.9213517  76.5428066  33.1750417   5.2726650  76.7497683  34.6326852
  63.3199692  16.3388705  41.7106724  63.5358810  16.2090731  40.7872200
  63.9003515  15.7388067  42.1789789  22.8586078  31.0112214   7.4498826
  22.3738050  31.5328956   6.8103087  23.5140729  30.5448771   6.9311148
   3.9574763  56.3729477  32.5376439   3.0584979  56.6760826  32.4104404
   4.4305173  57.1473312  32.8422642  -0.0625020  10.0743091   5.6161690
   0.6277462   9.7262740   6.1806691   0.3673350  10.7630169   5.1090646
   2.1153861  33.5062504  20.8863235   1.5711270  33.9341378  20.2253199
   1.8640791  33.9236283  21.7102599  41.1717176  68.4289551  65.0728083
  40.3545284  67.9346609  65.0086927  41.7781496  67.9650593  64.4955111
  28.4614396  17.4109292  25.3272009  28.9010525  17.6931787  24.5251369
  28.9560056  17.8298950  26.0315466  81.7540550   5.4903853  44.8099184
  81.9369698   5.1345420  45.6794882  81.0865974   6.1597383  44.9605846
  68.7733555   4.6232256  36.5644431  69.4595528   5.2636075  36.7522740
  67.9757929   5.1453149  36.4775991  25.4241061  23.8108563  50.8594465
  25.8836126  24.6279073  51.0531235  24.6892881  23.7981439  51.4727259
  39.3594265   0.6058783  20.8547521  39.0836358   0.8218178  19.9639428
  39.9571419  -0.1340600  20.7476974   3.9826906  51.2491083  53.9062262
   4.0713871  52.0284033  54.4549227   3.1565666  51.3771963  53.4400272
  15.3281629   3.4053454  24.3899584  14.6384931   2.9846472  24.9033785
  15.3102565   2.9514229  23.5474229  18.5959423  58.5744190  12.7666545
  17.8009570  59.1074896  12.7586472  18.2792175  57.6728344  12.8220201
   9.6519172   1.1520031  21.2678361   9.8992676   0.3042977  21.6372228
  10.4472899   1.6810657  21.3287306  55.4030371   1.5061700  65.1600838
  55.5561304   1.2164205  66.0594368  55.9721327   0.9492461  64.6288633
   2.5865230   7.8171587  21.7184758   1.7472869   7.4606931  21.4271903
   3.1870848   7.6374978  20.9950948  71.6362572  33.1122994  22.0035338
  71.5624952  34.0607524  21.8975711  71.7484236  32.7798057  21.1129737
  65.4446268  62.0456314   7.8548890  64.7240639  62.6533175   7.6883429
  65.6980085  62.2173738   8.7618262   9.2642248  23.4374142  49.4211531
   8.3567572  23.1599021  49.2957687   9.6285546  23.4717965  48.5366678
  50.4803276  40.2743053   2.5540522  50.5372763  40.6532955   3.4311795
  50.3946638  41.0293531   1.9719909  82.3319530  14.7686970   9.2119539
  81.5529060  14.2219782   9.1099030  82.0601273  15.6330061   8.9032280
   8.6431277  67.4680138  24.3806458   9.0492177  66.7590427  23.8819623
   9.2043757  68.2264137  24.2192125  48.0878258  23.4284544  10.4676890
  47.3791409  23.9657617  10.8216619  48.5586071  24.0136504   9.8742723
  51.4016294   3.9512548  30.9694576  52.2308302   4.4118905  31.0977912
  51.1025333   4.2328256  30.1048803  21.5427279  41.4563084  22.3096561
  21.0075593  41.5791798  23.0937028  21.7976308  40.5340433  22.3357654
  29.6578407  48.8222599  29.4417596  29.3234563  47.9429579  29.6185398
  28.9578891  49.4074059  29.7314143  22.3882103  26.8817830  53.7022924
  22.7266431  26.9861388  52.8130198  21.5098834  27.2609329  53.6703253
  45.0051785  17.5090444  41.3765001  44.9984169  18.0926001  40.6177855
  45.4286098  16.7107224  41.0608721  34.5409632  37.5328469  56.6677809
  34.5855546  36.5767264  56.6590691  34.4729257  37.7610064  57.5949001
  53.5479307  73.6053276  16.0017347  53.1142044  73.9140034  15.2062273
  54.3530798  73.1917191  15.6904566   2.3544136   6.3172424   5.6026906
   2.4245922   5.7487780   6.3696027   3.1485888   6.1390007   5.0989574
  40.7452154  69.8257732  28.3713603  40.4508829  70.6674433  28.7194920
  40.0661707  69.2058468  28.6374855  79.9385977  57.7498293  33.1113052
  80.3794956  56.9970751  32.7173519  80.3682995  57.8623247  33.9592052
   5.3020358  24.4396091   7.7342176   5.2301389  23.4869099   7.7927637
   6.2005067  24.6290612   8.0045694   2.2313344  34.4573164  31.3842463
   2.0784523  35.2357125  31.9199324   1.7182469  33.7697983  31.8088555
  55.4399633  60.1847506  30.5863905  56.2030268  59.8598385  31.0643005
  54.9356890  59.3984842  30.3772855  18.8244379  35.7032275   8.6826032
  19.2217326  34.8926663   9.0010029  17.8926420  35.4986143   8.6043543
  54.0273476  48.2339001  49.3109941  53.4600306  47.8938675  48.6190653
  54.5329142  47.4745893  49.6009588  47.7159357  23.3002710  21.5359426
  47.2022629  23.8301158  20.9263206  48.5777044  23.2304454  21.1251950
  41.7141438  26.6770887  42.1177387  42.5271416  26.2009263  41.9488192
  41.0591173  26.2304497  41.5813780  76.3968801  10.5648184   8.4987843
  76.3066149  11.5170097   8.5364097  75.9520245  10.2507687   9.2859995
  13.7488711  14.4298708  22.2521210  12.8843224  14.6201384  22.6162410
  13.6027622  13.6906314  21.6618586  77.8683519  51.7618656  64.4097996
  78.6811209  52.2674704  64.4109774  77.2040224  52.3770761  64.0992880
  28.3689427  28.3450413   8.1649274  29.1356587  28.5577416   7.6328200
  28.7313032  27.9764223   8.9705604  53.6889839  23.2734895  18.8398647
  54.5891857  23.1361341  19.1348159  53.5892630  24.2250156  18.8100493
  26.0343909  45.6045580  15.7803619  25.2926850  45.5535412  15.1774526
  26.7066979  45.0531006  15.3802013  55.9513426  24.5871758  25.6720901
  56.7313433  25.1152825  25.5020046  55.4529428  25.0953054  26.3121176
   1.7372921  12.9573011  52.7551460   1.2598754  13.1053257  53.5714769
   1.3542795  13.5801065  52.1373701   4.9620718  21.0301375  24.0873790
   5.0902438  21.7014003  23.4171462   5.2343047  20.2152586  23.6653686
  50.5005980  56.8251181  43.5959721  51.1459255  57.5164318  43.4480906
  49.7045040  57.1459913  43.1722879  13.7648559  69.9598503  60.9661150
  12.9928255  69.4311619  61.1678314  14.3213701  69.8762512  61.7404127
  37.4653101  58.0934381   5.6341940  37.9371643  57.2614670   5.6717920
  38.0082059  58.6996794   6.1381441   9.9986726  22.4203062  32.9623652
   9.6630812  22.0907903  32.1286798  10.8046293  21.9250679  33.1086755
  67.2358942  51.3353825  54.7258520  67.6318502  51.3424635  53.8544178
  67.8909969  50.9153175  55.2831841   3.9281565   1.3244572   6.4878494
   4.1364369   0.9603480   5.6274569   4.7752595   1.5861695   6.8486196
  58.9418077  75.2547026  41.5831184  58.6627340  75.5073738  40.7030582
  59.2257690  74.3451023  41.4924240  22.2837687  52.1063566  59.9799156
  21.9736099  52.6127005  59.2291498  22.5335383  51.2592506  59.6107769
  51.5895700  65.9337044  61.5346193  51.4089060  65.3899670  62.3013926
  51.7753839  65.3072357  60.8351612  77.0283413  63.9043665  22.6183558
  76.6550303  64.6047163  22.0832133  77.3416138  64.3467951  23.4072447
  52.3457384  74.4403648  31.9173646  52.3198557  75.0055790  31.1452937
  52.2156334  73.5571384  31.5720844  14.2518854  75.7237101   7.1765661
  14.5649016  75.3847122   8.0152142  13.2978797  75.6810284   7.2420144
   5.1152891  30.0639319  21.2127638   4.7216710  30.8555770  21.5796375
   6.0583436  30.2200961  21.2626910  40.7305861  10.0097573  50.9314871
  40.2390957   9.2411411  50.6418324  41.0784292  10.3896475  50.1246881
  69.7056055  55.8455896  47.7789640  68.9343357  56.2524366  48.1737423
  70.2313662  56.5819311  47.4665403  62.1584606  42.3148870  47.5270844
  62.8801680  41.7534447  47.8102016  62.5861073  43.0964661  47.1771049
  80.8988190  60.9687328  57.5436020  80.9346676  61.4707422  58.3578110
  81.4568710  60.2082586  57.7063370   5.2631462  48.0961370  12.1902323
   4.5842001  48.6920404  11.8737483   6.0813618  48.5765457  12.0638895
  50.1723814  44.4797516  65.8240080  50.1888752  43.6404467  65.3640890
  51.0948467  44.7067356  65.9413433  36.0282516  16.4313674   4.9936208
  36.3198280  16.4038622   5.9049159  36.6427755  17.0259035   4.5633665
  20.5038929  41.1071777  44.9110794  20.5076599  40.3620958  45.5119705
  20.7684588  41.8518209  45.4512167  73.4775829  20.2990818  19.8315823
  73.0900574  20.6449270  19.0275621  74.1459274  19.6838105  19.5299387
  49.3745995   5.3839612  57.6670599  48.6724567   5.9566063  57.3583460
  49.5366669   5.6674069  58.5668516  65.7135582  54.7537613  55.4533720
  65.8629560  53.8972616  55.8537674  65.7768202  55.3725767  56.1809015
  28.3883047  41.7551279  15.6054211  29.1783190  41.8006420  16.1439729
  28.3441186  42.6076841  15.1724911  48.3482409  35.4164529  64.6038961
  49.2046738  35.4740667  65.0274944  48.5228109  35.6115365  63.6831903
  78.3585739  15.8636248  63.1468916  77.6203871  15.8479965  63.7560511
  79.1267681  15.9863949  63.7045956   8.9972955  39.7699618  22.5428200
   8.5248780  38.9406180  22.6152110   9.0907037  39.9109554  21.6006804
  59.9858761  23.9614058   4.3970510  60.2459669  24.8552990   4.1744697
  60.8013582  23.5320449   4.6556473  39.3249178  38.4787178  11.9020462
  38.4016895  38.5309625  12.1493399  39.3120122  38.2084727  10.9838784
  42.9185581  35.2727509  16.5853751  42.1632719  35.7299709  16.9551384
  42.7407885  35.2377844  15.6454778   6.0154057  28.2114387  62.5979280
   5.0871700  27.9820681  62.5532246   6.4401430  27.6116180  61.9847059
  49.2543364  25.0562930  26.8313527  50.1438570  25.4051733  26.8884730
  48.9596462  25.2944231  25.9523296  37.2716069  70.1890707   7.5178599
  38.1910014  70.4226112   7.3897815  36.8477988  71.0111141   7.7645564
  57.8475952  34.6415091  64.5707655  58.1339121  34.0066934  65.2274704
  57.7181101  35.4526472  65.0622129  31.0089087  75.7873201  63.9174318
  31.8267775  76.1511326  63.5783720  30.7861137  75.0867271  63.3044291
  45.0887537  18.4995615  26.3139963  45.4137278  18.7577903  27.1765161
  45.6246996  18.9979374  25.6970549  22.8673100  16.0874748  52.4125671
  23.4869313  15.8361137  53.0974865  23.0938005  16.9941938  52.2057009
  64.9689770  57.6350307  60.5538082  64.7480965  58.2399464  61.2619877
  65.7203341  57.1429348  60.8847618  82.2455215  58.3458185  53.1397629
  81.5287495  58.9234877  53.4019995  82.6034546  58.0184698  53.9649630
  58.9402866  41.6017580  62.0911026  59.7269583  41.0985565  61.8809414
  58.2156610  41.0348082  61.8270683  33.2626200  14.6420550  27.3337793
  33.9725614  15.2183521  27.6167941  32.4647975  15.0856423  27.6217794
  46.9056225  70.3473616  43.2597542  46.1219740  69.9690151  43.6584854
  47.5685263  69.6611404  43.3364868  23.2179976  56.6588688  22.1645522
  23.0265069  57.5909424  22.2684693  23.2054973  56.3109207  23.0561852
  80.7934284  52.8624439  14.4652939  80.3781033  52.2660017  15.0881803
  81.1353016  53.5740423  15.0065744  52.2850323  70.9330988  56.4507580
  51.9977713  70.8013916  55.5472279  51.5228796  71.3079548  56.8921661
  60.4849958  19.6401465   0.0210599  60.3518438  18.9291799   0.6479798
  60.5528164  20.4269123   0.5620139  62.0999146   8.7839520   4.8972970
  62.2476435   9.7038597   5.1167935  61.5115309   8.4658402   5.5820149
  14.0238249  55.9200954  51.0434866  14.0152705  55.0439596  51.4288998
  14.7291648  56.3766193  51.5020847  22.3272705   0.7613129  60.0453997
  21.4188886   0.9282238  60.2968264  22.8453207   1.1273229  60.7622623
  49.1322088  53.0268669  61.5900326  49.4449854  52.6077127  60.7883406
  49.2732573  52.3717690  62.2735405   3.8935423  24.5055103  44.3991232
   3.7281108  25.0560641  45.1644707   4.7698492  24.7573948  44.1077948
  37.7991748  33.8087225  25.2757215  37.5074840  33.4308553  26.1053991
  37.0444965  34.3061113  24.9606061  72.9421473   5.2517349  17.7815318
  72.6096439   4.8991889  16.9560730  72.1656895   5.5899000  18.2276106
  32.1577477  39.7622943  17.6649356  32.6388431  39.7878122  18.4920549
  31.9032907  38.8450670  17.5640583  37.5409579  13.9886045   0.8386585
  36.9479299  14.5434678   1.3452913  37.2059298  13.1010449   0.9660318
   5.3933823  51.2427330   2.7140874   5.4833364  50.2959251   2.8222522
   4.7501481  51.4992523   3.3749035  33.3680749  68.4548330  46.7475271
  32.9683971  68.6316872  45.8959341  34.2991638  68.6345100  46.6170692
  70.1332998  64.2067575  65.8622265  69.6848965  64.3061638  65.0224113
  70.9783459  64.6379852  65.7350588  49.9873209  13.7227714  22.2851181
  49.1645145  13.8593686  21.8154836  50.5395126  14.4582295  22.0197535
  22.9520607  39.5483661  46.4173365  22.0488453  39.7829866  46.6303778
  23.0498743  39.7851968  45.4950714  44.9781990   8.5934722  65.4336023
  45.6301832   8.8784385  66.0738707  44.1810656   8.4603310  65.9465170
   8.0570346  41.9160032  57.7155495   7.8430444  42.8172874  57.4744558
   7.2160751  41.4589548  57.7043009  31.0074210  33.5007095  32.4936533
  30.3777719  33.0068088  33.0188537  30.7178497  34.4102407  32.5653005
  50.3583717  25.4325008  13.3169138  51.1987257  25.7476068  13.6496902
  49.9662447  26.1967516  12.8945506  68.3050394  62.9505205   7.0467436
  68.3217430  63.6136007   7.7368748  67.5137281  62.4415207   7.2227466
  56.9822645  65.5774260  52.5724077  56.8718767  65.6723928  53.5184669
  57.8540230  65.9313250  52.3962688  39.5809484  35.7174420   3.2249707
  39.5912194  34.7758198   3.3966550  40.1040268  35.8217025   2.4301440
  30.1597381  17.0015335  52.4438620  31.0268092  17.3039901  52.1737862
  29.7192574  17.7898180  52.7613783  30.9082985  74.0642452  46.2141895
  30.9595895  74.8474216  46.7621231  31.3607860  73.3885956  46.7191505
   9.1450351  42.6777029  42.8345108   9.1948199  41.9241238  42.2464037
   8.2127148  42.8913069  42.8717089  43.7427521  13.9113820  57.3018360
  43.5564089  13.1780744  56.7155170  43.6348534  14.6891403  56.7544031
  21.8607330  27.0822525  29.1273284  21.0003614  27.2538662  28.7445188
  22.2757149  26.4704609  28.5192752  35.1460266  13.2439399  11.4956284
  34.3275166  13.1433868  11.0096622  35.7658958  12.6732409  11.0414314
  36.0336661  37.5777102   1.2368349  36.5331745  38.0258870   0.5542954
  35.1799011  37.4100566   0.8378240  75.3576517  68.9190340  64.3858051
  76.0690451  68.3255672  64.6265316  75.2842474  68.8318491  63.4354162
  66.0014057  53.4523773   7.0928764  66.4294195  53.8450861   7.8536761
  65.1403761  53.8693047   7.0607245  71.4785480  67.4317074  58.3650398
  70.8087587  67.6760912  59.0037012  71.2847471  67.9692745  57.5971222
  70.3833723  62.5095272  44.5500088  70.4827261  63.0691528  45.3201914
  71.2663651  62.1841335  44.3748713  56.3960123  37.2873783  10.7587469
  55.5638933  36.8537259  10.9478378  56.2043476  37.8599787  10.0160336
   8.1922793  74.3136358  61.7012358   8.5517830  73.6638784  62.3052216
   7.9094213  73.8041162  60.9418869   2.0461175  49.5910931  65.8892727
   2.5494617  49.6825171  65.0802469   2.6988289  49.6575499  66.5862560
  31.1221051  36.3964319  10.0758588  31.6478753  37.1133089  10.4306626
  31.5538931  35.6031060  10.3927588  24.0766692  18.8122809  52.3704910
  24.6445775  18.9155340  51.6069174  24.6803951  18.6923671  53.1035471
  60.6074762  62.6052618  46.5737057  60.7072067  61.8207359  47.1129608
  59.7749472  62.9848814  46.8548059  32.1672130  76.5730953  12.7752268
  32.8294563  75.9397840  12.4985015  31.6749668  76.1209679  13.4604299
   5.5057365  29.1009855  58.7373972   6.0958982  29.5507741  58.1327200
   5.2061033  28.3321810  58.2522249  39.4365311  25.5648804  25.5639291
  39.7949052  24.8116922  26.0335088  40.2054071  26.0686374  25.2969241
  28.5376859  36.9838667  10.4883099  29.4562078  37.0826674  10.2377355
  28.5634065  36.4677405  11.2940300   6.5721256  60.6405878  64.4795561
   7.3861051  60.6119871  64.9823999   6.0608917  61.3375282  64.8908329
  43.5556173   7.0810509  10.6788921  43.1431007   7.0873541  11.5426183
  43.0761814   7.7422142  10.1796556  10.7390869  17.0714068  56.8757963
  11.5254533  16.8452179  57.3724842  10.2105033  16.2734783  56.8877077
  18.7928057  54.2927504   0.9989902  19.6663117  53.9569759   0.7978089
  18.9045310  55.2425957   1.0383552  45.3270960  63.3124018  51.2530470
  45.9865046  63.9740324  51.4619780  45.6052542  62.5355005  51.7381096
  38.2565546  47.8604937  16.5014064  37.4925804  48.3613300  16.2155008
  38.9895177  48.2474804  16.0226202  22.6957560  37.0608521   1.5577051
  22.6845789  36.1181688   1.7234120  21.7765808  37.3235011   1.6063496
  30.9577203  40.1171684   3.9021868  31.6386175  39.9110150   3.2617882
  30.1814365  40.3045988   3.3744699  13.6485302  59.6640587  50.5361223
  14.3829656  59.0532207  50.5970669  13.1828523  59.4002962  49.7425175
  34.4118786  33.3620191  10.5581975  34.4737673  33.2217693   9.6133524
  33.5439777  33.7445593  10.6872082  23.1220961  20.5912495  26.8093085
  23.9057684  20.4066014  27.3269916  23.4327459  21.1466432  26.0942817
  41.5969038  48.2791519  51.9837713  41.5166569  49.1773844  52.3046589
  41.5875101  48.3636761  51.0303593  30.2993989  30.4458308   0.1835944
  29.7335815  31.1998153   0.3496987  30.0868487  29.8281264   0.8832340
  42.8714752  33.1708741  66.0888815  43.5578394  33.7498546  66.4204168
  42.6111221  33.5612702  65.2545929   4.6874580  43.1384277  11.4793789
   3.7654230  43.3952332  11.4678299   4.8584029  42.8195953  10.5931759
  61.6570711  54.6657896  59.0804100  62.4400854  54.4540024  58.5722065
  61.9005108  54.4747925  59.9862146  76.0095596  61.3397741  59.2095852
  75.8644772  62.2122908  58.8436604  75.1502895  60.9194660  59.1746092
  20.4715157  77.6869631   7.5501341  21.2924838  77.1990871   7.6151091
  20.6626081  78.5324955   7.9560721  80.1287174  30.1083183  24.1014528
  79.8453856  29.2212749  23.8798475  80.8029747  29.9845099  24.7694993
  53.0117798  18.3735931  39.4662166  52.1671724  18.4228504  39.9139190
  53.6435318  18.6921704  40.1109123  80.6925964   5.8495933  42.2889519
  80.9852123   5.2372223  41.6139650  81.0981083   5.5295336  43.0947733
  27.9967785  33.5377240  30.2818990  27.1917486  33.8521624  29.8704553
  28.6731768  33.6715937  29.6179748  56.8864298   0.0997037   3.6163229
  57.4321699   0.6673021   3.0720475  56.2339783   0.6878199   3.9966556
   9.7161138   0.0622979  50.2012873   8.9239550   0.5719187  50.3715897
  10.3565443   0.3983972  50.8282804  53.2539177  60.7367802  59.9234295
  54.1502714  60.4029417  59.8869514  52.7133608  59.9577951  60.0546074
  60.8272552  51.7668438  49.4640732  61.6468525  51.9507217  49.0050697
  60.1472950  51.9045973  48.8045931  41.5354872  36.5759540   5.3886157
  40.9519672  36.0072303   4.8863310  42.3162651  36.6611910   4.8414844
  18.4476960  77.7678537  24.8633170  19.3008363  77.3348713  24.8331809
  17.9363394  77.3374748  24.1781020  23.7288880  24.8950958  59.3087339
  23.1217837  25.2566814  59.9544191  23.2655811  24.9724817  58.4747124
  21.9431162  70.2782202  51.1463785  21.9132566  69.3897581  51.5013075
  21.0546780  70.6138420  51.2658215  29.1544700  69.8101044   8.8197881
  28.9559197  70.3769922   9.5650715  29.5089197  70.4020691   8.1563318
   1.8416318  43.5087347  26.2284851   2.6192242  42.9544306  26.2942910
   2.1808958  44.4029331  26.2677836  50.1559782  38.7481689  16.2322617
  50.7249260  39.3014455  16.7674387  49.7623491  39.3498135  15.6003499
  48.1461000  61.0501099  50.6087923  47.8923845  60.3469324  50.0109625
  48.1031036  61.8443680  50.0763083  65.3602886  60.8868647  20.9675217
  64.8386240  61.5420961  21.4309549  64.7527838  60.4986334  20.3378797
   8.1975520   2.5423637  32.4152613   9.0096956   2.9861605  32.6595950
   7.9762566   2.9033643  31.5568113  22.3509121  35.4613471  21.4038944
  22.5919580  35.8929181  22.2235751  22.7586985  35.9960938  20.7227278
  82.2841354  36.2842226  59.4223881  82.0238548  35.8633304  58.6030388
  83.1305163  36.6862440  59.2268181   2.0104739  46.4637327  47.5102186
   2.0061819  46.5781260  46.5598869   1.6588937  47.2858047  47.8520012
  79.9085499  77.3198155  48.2598495  79.5322348  78.0225393  47.7299452
  80.8441235  77.3430148  48.0588531  36.3527870  69.4202566  40.5611086
  37.2633362  69.1307354  40.6186199  36.3957858  70.2545118  40.0937748
  23.3406353  27.8489375  15.5964077  23.2749915  27.5190973  14.7002327
  23.4584785  27.0645976  16.1322749  78.6053991  71.0562897  57.5955534
  79.1288471  70.9390354  58.3883238  77.9935551  71.7591619  57.8143072
  56.1135721  22.6962805  20.0987482  56.4741230  22.5744677  20.9770417
  56.8652010  22.9536772  19.5648634  40.6502819  72.2377253  18.3364856
  41.2547255  72.3712206  19.0665936  39.9209189  71.7475414  18.7159312
  20.8219552  67.7743530  67.3936367  20.6714416  68.5945654  66.9237137
  20.2271867  67.8147650  68.1425381  15.1773500  21.9987130  30.6622791
  14.8920059  21.3520098  31.3077140  16.0180151  21.6672492  30.3466129
  75.1974678  63.2875776   7.5984210  74.2420053  63.2739305   7.6544613
  75.4881430  63.4330559   8.4987402  20.1265788  23.9222360  25.6645823
  19.8840392  23.0330706  25.4061413  19.4937539  24.1552448  26.3438964
  51.9321442  49.5069313  20.7299423  51.2090826  49.9521065  21.1717916
  51.9888020  49.9328947  19.8746204  19.6247888   8.6822170  22.6414537
  18.6971796   8.4572238  22.5696707  20.0358844   7.8934634  22.9951501
  26.2005806  17.3476171  27.6677537  26.0095024  17.6700270  26.7869735
  27.0587945  17.7163708  27.8768468  68.8930798  19.0546691  46.7180681
  68.3350611  18.6363673  47.3737144  68.6411667  19.9777913  46.7429495
  78.8024998  11.0281992  55.6389093  78.1142139  11.3053036  55.0341749
  78.8571453  10.0798297  55.5212593  63.0963278   7.4974424  61.6783571
  63.3992052   7.2959763  60.7929707  63.6856890   7.0061928  62.2506905
  23.0689073   5.5517006  51.1649847  23.4087110   5.9238243  50.3511715
  22.5748634   4.7801915  50.8876324   6.3766164  14.4462049  43.1579971
   6.5396154  13.7460530  43.7900209   7.2341514  14.8483288  43.0195713
  29.5747423  40.0964880  11.1221242  28.9847445  39.5058346  10.6538677
  29.1678619  40.9586954  11.0368204  78.9591455  12.9922485  64.6927261
  79.6991539  13.5975873  64.7395182  79.0765095  12.4119127  65.4448366
  50.3845072  16.0132599  31.4395738  50.2251196  15.1702785  31.8640828
  50.8614063  15.7922089  30.6396127  45.4607296  31.7863417  13.2691205
  45.6945229  31.1301064  13.9255702  44.5188093  31.6729546  13.1419885
  21.8319702  34.1212535   2.7627987  22.7510881  34.2957735   2.9652801
  21.3448524  34.5751143   3.4505177  56.2450504   9.0842307  47.0462751
  56.8214655   8.4457350  47.4661541  56.3063383   9.8626828  47.5998878
  56.2013054  25.2276158  16.1618972  56.3299227  25.3381133  17.1039593
  56.8095016  25.8495879  15.7625496  17.0439374  62.4266672  59.8749161
  16.6468000  61.6635418  59.4552040  17.5596941  62.0628881  60.5945587
  23.9892864  45.1262617  18.0180001  24.6428514  45.3911972  17.3707807
  23.9239287  44.1766024  17.9174924  31.5284204  44.6606016  25.4606652
  32.2345638  44.7434425  26.1015463  31.9457316  44.8453045  24.6192575
  76.7059898  25.9003305   5.8406985  76.5559769  26.3156319   4.9914321
  75.8518982  25.5461502   6.0883170  18.9596689  77.1660280  17.6354897
  18.8739026  76.8428326  18.5323846  19.7900605  76.8023396  17.3282254
  27.6633239  75.5243301   2.8855073  27.9418731  76.2434196   3.4525600
  28.4733200  75.0625849   2.6688665  23.9152265  56.2680674  14.3494368
  24.7904801  56.5768623  14.1153276  23.5235667  56.0044765  13.5167575
  60.6314611  75.4480076  60.9578276  61.4279318  74.9934769  60.6834745
  60.3811455  75.9727478  60.1974201  28.4039760  12.1124148  12.7578282
  27.6410484  11.6002440  13.0258811  29.1542602  11.5723181  13.0060267
  13.6774039   1.3930534  62.8618336  13.7558651   1.8696991  63.6882019
  14.4904912   0.8922602  62.7960587  56.7380571  69.3693829   5.1732916
  57.3315620  68.6899471   5.4932135  56.9876766  69.4936991   4.2576125
  38.6056328  21.6486835  11.7552841  37.9059052  21.0067225  11.6348636
  38.1570125  22.4378395  12.0589328  17.7745128   2.2342609  16.9721651
  17.4651420   2.8065902  16.2700546  17.3284149   1.4017686  16.8166506
  81.2646770  55.6765223  51.3692141  80.5457783  56.1815596  50.9892797
  81.1483955  55.7684565  52.3148680  10.5153477  41.9333076  56.5585089
   9.6401489  41.8251562  56.9307470  10.7734287  42.8208542  56.8072796
  40.7435036   2.3982435  37.4530959  40.4208279   2.8423256  36.6689396
  39.9539185   2.1904927  37.9527211  60.2099085  53.5972214  39.9516773
  59.3590927  53.7891102  39.5573163  60.3607655  54.3209410  40.5597067
  18.9276588  22.4393988  20.0252533  19.8199701  22.3170400  19.7011518
  18.9933598  22.2927666  20.9688711  22.2990632  52.4462557  56.3945913
  22.9542518  51.7643833  56.5429401  21.8380594  52.5212860  57.2301006
  77.6527977  74.4599056  51.9716501  78.0745554  74.4219065  52.8300858
  78.3564758  74.2720509  51.3505411   8.4294218   5.6285375  44.0035248
   8.3634019   5.1952875  43.1525421   8.7257028   6.5153295  43.7984610
  62.9043865  63.2152557   8.8692230  63.5352468  63.8960457   9.1032469
  62.4984264  62.9689789   9.7003537  70.7540369  64.7472382  58.4269571
  71.0747910  65.6310177  58.2472944  70.3328466  64.4749546  57.6116705
  36.7458272  38.7868452  37.2199726  37.6192546  39.1761565  37.2623372
  36.5149665  38.6165237  38.1331682  60.0424814  14.1652095  26.6089177
  59.1405678  14.4308805  26.7883611  60.3238964  14.7389543  25.8962774
  19.1164041   6.1456281   5.5514884  19.5265758   5.7254857   4.7955313
  18.7044513   6.9322467   5.1940572  77.5091124  12.0131481  58.5511827
  77.2213173  12.7388966  57.9973841  78.4288359  12.2031665  58.7362146
  31.1574578  60.2627754   2.3092330  31.8162370  59.5797300   2.1839947
  31.6645694  61.0549927   2.4866205  12.8090513   3.8335687  54.5239019
  12.2724688   3.8510713  55.3163671  13.2036638   2.9614997  54.5210552
  59.8672915  61.8771505  29.8660469  60.5298948  61.5595961  30.4795170
  59.3966961  62.5547981  30.3513956  46.2664127   5.8748567  10.4282868
  46.3869286   5.8546090  11.3776541  45.4463005   6.3517916  10.3010786
  35.2505207  66.3003778  25.3288555  35.5658746  65.6642437  24.6868896
  34.8304820  65.7695580  26.0056353   5.6064773  40.6352329  56.9686794
   5.4388624  39.8711729  57.5203609   5.3201461  40.3675652  56.0954094
  40.5505991  69.7766733  56.5826559  40.8554745  70.5848026  56.9952202
  39.9071121  69.4224262  57.1963835  71.0050869  19.3660653  25.6176400
  70.7430315  19.4614267  26.5333176  70.6523466  20.1438212  25.1853204
  41.8241024  60.5372190   4.3438360  42.3722410  59.7531796   4.3763590
  41.6978264  60.7794046   5.2612418  26.0612011   9.0342647  15.2678561
  26.6493154   9.4933176  15.8675432  25.6324530   9.7318232  14.7720551
   4.7997740   7.8735977  64.7030258   5.1555967   7.3493272  65.4204941
   5.3861386   8.6278552  64.6438360  15.9527993  68.2210493  46.6898870
  16.3881385  67.8710175  47.4671793  16.5570617  68.0328751  45.9717703
  60.2501965  55.1822853  66.1951971  59.9200153  55.7697248  66.8749952
  60.4285765  54.3613577  66.6539860  71.1876678  59.1709518  44.2097187
  71.5727663  59.9677896  43.8450480  71.6696262  58.4582901  43.7901211
  48.6765862  55.2461576  12.8269053  49.0741110  55.5074120  13.6575389
  49.1247511  54.4336414  12.5919676  23.7528752  57.4394513   1.0317474
  23.2448004  57.6570786   0.2502542  23.4956692  58.0990077   1.6759973
  47.3324680  10.8719230   0.9066182  47.7966547  11.7090011   0.8985823
  46.4186478  11.1031878   0.7402609  34.7481465  49.0988064   3.5388902
  34.4847059  50.0144958   3.4475666  34.0631676  48.6062765   3.0867273
  54.2608786  72.7898216  44.5975542  55.0885057  72.8507423  44.1205263
  54.4880629  72.3483801  45.4159355  46.2925529  37.9412031   9.9195987
  45.3770542  38.1963873  10.0335157  46.4166641  37.2151494  10.5308878
  32.5889373  34.9714589  27.8096890  32.3049188  34.8159671  26.9089198
  33.3942342  35.4814410  27.7222562  16.9889462   1.2785105  40.6025219
  16.6791761   0.6494454  41.2541008  16.6252124   0.9645721  39.7746515
  70.0406981  63.7605095  46.9695568  69.2936754  63.4701872  47.4929142
  70.2840757  64.6055269  47.3476410  63.1388664  70.7117319  37.8278351
  62.8859186  69.7885752  37.8224134  62.5692081  71.1199903  37.1758819
  14.4888091  40.1622009  27.4329853  15.1652932  39.4961953  27.5556183
  14.9678230  40.9908390  27.4213123   7.6048458   5.2528083  25.1613235
   7.6006097   5.4326302  24.2211747   7.9937184   6.0348517  25.5530095
  24.0962362  46.7762566   0.8835080  23.5027981  47.3842478   1.3244265
  24.7624350  47.3373318   0.4865159  27.3969722  21.8626213  65.5383825
  28.2661366  21.6649604  65.1895046  27.4243093  21.5478802  66.4419460
  20.6053996  10.9864056  64.8084164  20.8298564  11.3786793  63.9646292
  21.2548900  11.3389397  65.4167843   7.1066403  21.9433713  41.3864803
   6.9022346  22.8591275  41.1971617   6.2528342  21.5147972  41.4462471
  51.8351698  58.4516811   2.0098859  52.3397207  58.0356169   2.7088493
  51.9438267  59.3904114   2.1622348  25.5157900  64.5966053  27.3652649
  24.7546840  65.1595831  27.2238231  26.2283349  65.2032471  27.5665045
  64.0823984  12.5474703  63.8045740  64.0986538  11.5939415  63.8867474
  64.6386576  12.8589153  64.5185852  29.0970373  49.6102571  11.3284123
  28.4314990  50.0149536  10.7720745  29.8351026  50.2191162  11.3004696
  44.6988630  32.3331523  23.9127779  45.3002453  33.0601072  24.0743566
  44.0246916  32.7022982  23.3422899  79.6186447  42.7182913  19.7236764
  80.1609993  43.0112314  20.4559827  79.7784090  43.3629704  19.0344036
   8.1469673  42.7900362   8.0730921   8.4148896  43.6321688   8.4408706
   8.9477974  42.4290991   7.6927906  41.6404963  41.6913033   5.2129662
  42.2313023  41.5456581   4.4740710  40.7986164  41.9011927   4.8087174
  61.3244247  76.5289068  63.3727455  60.5284977  76.2473488  63.8238001
  61.1873722  76.2704992  62.4613285  81.5814686  61.0077190  67.2531128
  82.0797825  60.4092455  66.6965628  80.8443451  60.4843998  67.5677872
  55.0258589  20.4173803  60.6308413  55.4694414  20.2571321  61.4637804
  54.0937662  20.3599191  60.8409309  75.6266308  58.8774395  53.0668402
  75.1065540  58.5564947  53.8035536  75.2974367  58.3907223  52.3112154
  47.4756050  59.3737650   0.8527222  46.5393639  59.2193890   0.7268009
  47.9000854  58.8167286   0.2002195  46.5323067  29.5309329  61.0976267
  46.9854069  30.3251362  60.8144760  47.1873283  29.0483546  61.6019058
  79.4886351  52.3009634   1.5865400  78.7620592  52.5644159   1.0218159
  79.1021061  51.6729975   2.1968600  42.3231316  43.0757904   8.6460674
  41.5713310  42.4866390   8.5833907  43.0843353  42.4958277   8.6249465
  62.2222109  77.9465203   3.3936304  62.2777994  77.0226520   3.6377802
  62.7727343  78.3970496   4.0340829  25.7357359  26.3108444  58.3494043
  24.8525929  25.9879375  58.5283518  26.2806964  25.9035039  59.0226984
  33.7528133  75.5919075  62.7963972  34.5945644  75.3254557  63.1661177
  33.9659500  75.9067202  61.9179344  53.4561300  19.3999076  11.8498731
  52.6748466  19.8152649  12.2149897  53.9831209  20.1282096  11.5211093
  58.2688570  63.6057329  47.4278164  58.1923771  63.2370901  48.3078623
  58.4724617  64.5298338  47.5720930  37.7589917   3.6675903   3.9250064
  36.8786573   4.0432549   3.9359519  38.2463527   4.1806147   4.5696121
  54.4646072  36.1195803   2.2255579  54.5523357  35.1714373   2.1277891
  53.9343214  36.3896251   1.4758205   6.1075652  17.5759363  45.0970364
   6.6900700  18.2966602  44.8572874   5.2825993  17.7777231  44.6555090
  23.6674690  32.5334477  24.3505454  22.9958272  32.2865582  24.9862957
  24.1326594  33.2607818  24.7638416  26.7918229  16.2609363  42.0310926
  27.1624160  16.3981724  41.1592817  25.9707952  15.7953584  41.8717718
  46.6812277  72.0165300  15.4139745  45.9304237  71.7774010  15.9574294
  47.0070505  72.8295803  15.8000052  46.1275482  49.2768431   9.8659253
  46.8839025  49.4246149   9.2981905  45.9332371  48.3446741   9.7682542
  10.7397640  16.7853332  46.4592028   9.7966331  16.8571556  46.6060972
  11.0832345  17.6509464  46.6805029   3.6090901  56.8590689   5.1323098
   2.7390027  57.2577477   5.1168871   3.7332875  56.5902805   6.0425615
  20.7079244  69.1891861  63.8768387  21.5288901  69.5496607  63.5417175
  20.5977273  68.3643818  63.4037876  77.6805305   5.0516057  49.3525600
  78.1027412   5.8707166  49.6114588  77.0958090   4.8428446  50.0810814
  23.4884715  45.5113602  23.2478094  24.2945266  45.6244564  22.7441072
  22.9725027  46.2936831  23.0529308  34.1455841  18.2251084  67.4958134
  33.5698509  18.8490820  67.9378796  33.8725185  18.2553518  66.5788841
  47.4783182  77.6098394  36.4683437  48.1597900  77.1593046  36.9671869
  46.8870068  76.9119740  36.1862659  37.5069380  27.2225547   2.2653000
  36.6402173  26.9884920   1.9332747  37.7083087  26.5433121   2.9089698
  34.0478539  61.7092180  24.0555978  33.9900947  61.8629217  23.1125855
  34.4424868  60.8405924  24.1329622  79.7217083   6.7532718  30.0854683
  79.3440247   6.1455041  30.7212400  80.3714466   7.2485161  30.5842781
  39.5605612  71.0035181  21.8496919  39.4023490  70.0961590  22.1102667
  38.7331009  71.2892914  21.4625502  33.0016160  17.2197795  57.3073912
  32.3591208  17.6398468  56.7355728  33.6113453  16.7900610  56.7075539
  10.9744215  22.9927588  63.9620209  10.1068676  22.6712346  63.7166548
  11.5717459  22.5591493  63.3525753  69.9683189  40.9348488  16.1542439
  69.6154642  41.0341740  17.0384729  70.7969713  41.4136505  16.1718595
  26.5961742  37.4030161  14.3617260  26.1914396  37.5170064  13.5018265
  27.2667885  36.7340279  14.2240143  79.0017080  10.1778471  21.7158937
  78.8909483  10.7171476  22.4989128  79.7596502  10.5558610  21.2699580
  75.0737810  71.4786148  51.0194063  75.9216261  71.4636040  50.5753708
  74.9041462  72.4068022  51.1804342   6.3907659  25.4653478  43.5289764
   6.8126172  26.2827468  43.7938023   6.7162508  25.3037977  42.6434278
  62.6271200  71.6069508  28.4811878  62.2853899  72.0567560  29.2539287
  63.0288410  72.3007965  27.9582787  32.6387739  76.5031052   8.6145520
  32.6251888  77.1131420   7.8770566  32.6017165  77.0635176   9.3896610
  51.4121485  50.5389166   4.0431228  50.7926941  50.3417826   3.3405226
  51.2308025  49.8806810   4.7139984  44.8291826  25.5029750   2.4078374
  44.2372942  25.6669307   3.1420177  45.3897667  26.2781239   2.3744011
   0.2948029  20.8840680  48.9954853  -0.5981223  21.0023403  48.6715651
   0.3033955  19.9973178  49.3558073  66.8776989  73.7733316  27.3609209
  66.6414785  73.8875246  26.4403820  67.8323555  73.7036991  27.3563576
  43.3100891  63.3518744   6.7573214  43.5208988  63.4259939   7.6880729
  44.0518808  63.7597322   6.3105160   4.8439175  12.6297677  51.5058327
   4.1617677  13.0989504  51.0254478   4.7025385  11.7092371  51.2847710
   3.0493906  17.9292810  25.3769398   2.3868795  18.4454465  25.8361602
   3.3809346  17.3221016  26.0384846  36.7460752  40.3684139  -0.0092095
  37.3007107  41.1030436  -0.2717500  37.2453094  39.9243879   0.6762379
  45.7771254  64.4889164  34.1523600  46.5003109  65.0095081  33.8027525
  45.7667351  63.6994934  33.6111259  44.1910744  15.4904842  29.3318462
  44.0997362  16.3847208  29.6608281  45.0975943  15.4381168  29.0289998
  47.5022745  66.1078405  32.5993323  47.0427132  66.8941212  32.3047137
  48.4253454  66.3607979  32.6127267  60.1101780  54.6466208   8.1062156
  60.6777763  54.0463638   8.5896927  59.9481010  54.2042017   7.2730130
  25.2774525  14.6932673  57.5739050  25.9993720  14.2673373  57.1116829
  25.3557801  14.3846714  58.4766054  27.6964688  30.7343507  49.4036245
  27.0987678  30.9549046  48.6892414  27.2519922  31.0450935  50.1923609
  51.5439701  64.9961281  15.9335017  51.1457062  64.6696520  16.7403662
  51.1839151  65.8767271  15.8279514  63.5455179  22.7491832  37.0195770
  63.7920523  23.6682057  37.1237397  62.6968145  22.7774572  36.5778351
  50.2528572  36.9464540   9.5809811  50.8816433  36.5770721  10.2009952
  50.6974316  37.7116656   9.2162365  66.0745811  47.1312475   5.7972711
  65.1432657  47.3512506   5.7753485  66.5141821  47.9179144   5.4745656
  70.9678698  71.6432333  48.1409025  70.0358534  71.8595934  48.1131744
  71.2385988  71.8640423  49.0320730  69.5837545  24.4027042   9.9405891
  70.1414633  23.6693454   9.6810198  70.0471354  24.8083568  10.6733620
   9.9149519  11.7012942  23.3968019   9.7136152  12.4591553  23.9457488
   9.5379215  10.9578359  23.8672805  20.4414821  36.8694711   6.8456233
  19.9731934  36.2819266   7.4386889  20.2831101  37.7442002   7.2005898
  60.4214287  31.3531852  61.0364580  61.0363102  32.0746136  61.1694670
  60.4163361  31.2143421  60.0893974  17.7304280  50.0311852  61.7581654
  16.8837285  49.8024464  62.1415854  17.9853308  50.8385277  62.2047663
  32.5792289  73.6579752  21.6367030  32.1124172  72.9467440  22.0754099
  33.3032656  73.8687563  22.2262597  34.4792867  18.1492901  59.3698978
  34.7544217  18.9945793  59.0149069  33.9406872  17.7632844  58.6791468
  54.3261147  66.4693737  13.5455751  54.5602369  65.8376026  14.2254877
  54.9695301  66.3241816  12.8519142  71.3655806  50.7896948  33.2513142
  71.2045908  50.0232220  33.8016200  70.8252811  50.6446362  32.4746132
  47.7473021  33.1740999   0.0069930  47.1897840  33.6667991  -0.5952153
  47.1547699  32.8880119   0.7021867  44.5614195  63.4750462   2.6579806
  43.7320995  63.9508343   2.6122922  45.0049925  63.6875010   1.8368015
  37.1165013  45.8473349  14.2762315  37.1408224  45.7663345  13.3227742
  36.8203449  46.7439747  14.4329548  22.5392556  38.7575912   9.7876394
  22.1763134  39.6418929   9.7374791  23.4202600  38.8392067   9.4223928
  16.4102960   4.1410932  52.9857635  15.8192170   4.8926774  53.0302477
  17.2499049   4.5123997  52.7148056  47.9979706  68.1953669  52.5434494
  47.8650236  67.3034430  52.2224760  47.5255823  68.7471581  51.9200611
  57.7303457   3.3277684  24.3773293  56.7827606   3.4359547  24.4586587
  58.0860519   4.2012349  24.5409131  20.0197625   9.5613950  47.2639179
  19.7654974   8.9231122  46.5974522  20.8166552   9.9637681  46.9185305
  44.3395948  28.9616060  45.2187634  44.8357010  28.1430316  45.2121782
  43.8521671  28.9528918  44.3950081  72.2523832   6.8156534  22.0899558
  72.9369974   6.7558622  22.7562571  71.7362309   6.0177356  22.2046137
  24.9220324  70.0069046  15.3029525  25.3888559  70.0993347  14.4724321
  25.5324674  69.5352221  15.8696210  51.4506674  43.8254499  16.2629437
  52.2563076  43.8407278  16.7796063  51.6092300  43.1618452  15.5915856
  37.5135660  76.4496708  47.0843458  37.2361231  77.3164654  46.7878246
  36.7787886  75.8758116  46.8675041  53.1679964  18.0077255  15.9980369
  53.7414980  17.7408504  15.2796316  53.7262487  18.5395789  16.5652382
  31.2783360   3.5368711  48.1333637  31.7485213   3.8655478  47.3671198
  31.6645169   4.0080678  48.8716507  63.0444670  66.5676212  66.7511177
  63.7214184  65.8940125  66.8160820  62.6540804  66.4323711  65.8876753
  62.3984051  71.5798950  23.4492922  62.3862839  71.3748693  22.5143862
  63.1576538  71.1059380  23.7886095  13.9050484  51.9883776  36.6694689
  14.6709669  51.4143562  36.6597080  13.3766186  51.6953135  35.9271049
  54.7543144  42.3103428  62.7469063  55.3012323  42.9454136  63.2092857
  54.2358303  41.8943882  63.4356642  35.6920838  13.4450471   4.5326534
  35.9323454  14.3615758   4.6685931  35.0657916  13.4664035   3.8090968
  65.0732756  58.6705256  44.8284340  64.5849323  59.4389534  45.1238394
  65.6223154  58.4337378  45.5759096  53.0043077  22.7305388   5.2577198
  53.2037973  22.0383453   4.6273988  53.6074066  22.5738978   5.9843326
  66.6955662  10.0889707  53.5330105  67.6343393  10.0963962  53.7197876
  66.5152788  10.9590685  53.1771183  79.8648262  68.3449650  61.2883854
  79.7963762  68.6079216  62.2062111  79.9893618  67.3964167  61.3196468
  82.1227837  52.4491549  18.1723356  82.7745533  52.1412706  17.5425470
  81.2881470  52.1312952  17.8279829  22.5799823  57.5360060  47.5252056
  22.7223277  58.4269190  47.2054482  22.2674131  57.0538521  46.7596626
  55.9963655  22.8626037   1.7113209  55.9777975  22.5677156   2.6217756
  55.2407169  22.4369884   1.3062496  37.0512462  42.6002502  13.3853567
  36.1677718  42.8259754  13.0942369  37.1588707  43.0714130  14.2115855
  47.3641491  37.1659684   0.6540076  47.9448414  36.7046237   0.0488706
  46.7316866  37.6088834   0.0882809  55.5390406  53.9323092   8.8090998
  55.2861691  53.2834959   9.4658554  56.4203167  54.2029238   9.0666872
  78.1579876  52.5156021  50.0495529  78.9767075  52.0520496  49.8733473
  78.2578468  52.8473711  50.9418440  42.4317980  33.7879419  63.2175159
  43.0940962  33.1637669  62.9208755  42.1079016  34.1937423  62.4133730
  17.9311514  11.6611218  44.1879654  17.9678726  11.9034982  45.1132441
  18.8174474  11.8202579  43.8633347  12.5203478  63.7278271  60.9206772
  13.1701589  64.3776608  60.6529188  11.8053520  63.8312578  60.2927303
  63.8380623   9.2423803  24.2829919  64.0454721   8.3281231  24.0897393
  62.9126263   9.3313426  24.0552163  18.7773192  29.6529269   3.9784241
  18.5658967  29.4187641   3.0747101  19.7327018  29.7098374   3.9938545
  34.5217443  18.4730673  40.5991411  33.8031411  17.8598619  40.4448080
  34.2708945  18.9403570  41.3959742  50.6350040  17.3613942   2.5815797
  50.6456757  16.6208518   1.9751859  50.0829124  17.0691371   3.3068469
  59.0704918  37.5234985  16.9228148  58.3208561  36.9828558  16.6738546
  59.4540644  37.0700359  17.6734650   2.2502175  60.0032282  61.6882181
   2.1672708  60.8426142  62.1407509   3.1183639  59.6834850  61.9338083
  25.7242680  28.4622264  29.4038320  25.8680797  27.9180574  28.6296034
  26.1400795  29.2974877  29.1901183  19.5651448  38.6501932  21.1890125
  19.5423305  39.5059729  20.7608151  18.8035417  38.6521101  21.7688298
   8.0887485  63.4751463  66.5623951   8.2318050  63.2390070  65.6458807
   8.1385136  62.6439381  67.0344687  31.0538673  46.1856985  29.5497727
  31.7712569  45.8530951  29.0103674  31.4814234  46.7439842  30.1991916
  72.2361994  69.8876667  11.1740184  71.7602062  69.5285749  10.4252064
  72.4498749  70.7839108  10.9145665  30.0186872  44.4881153  12.1970415
  30.7504582  43.8971806  12.0194483  30.4315782  45.3312492  12.3838067
   3.0280825  74.1175842  16.5758622   2.3068717  73.9859819  17.1913028
   3.5644177  74.8008776  16.9779646  57.1161985  70.1927328  14.9201417
  57.3681402  69.3723822  14.4961333  57.7499962  70.3002882  15.6293416
  72.2703171   5.8249718  59.8448086  71.9265938   6.1507946  60.6766319
  72.0362663   4.8968697  59.8360157  24.7611117  68.4084558   1.1656600
  25.3317428  69.1298628   0.9007311  25.0513935  67.6663113   0.6353861
  70.9923983  65.0436687  61.1853361  70.8539534  65.1838875  60.2486372
  71.7595577  65.5757999  61.3963604  11.7781675  62.0259142  49.6393156
  12.2600198  61.7791367  48.8499165  11.4241064  61.2009764  49.9715042
  53.2808542  57.8477383  45.1584673  53.7251472  57.0824480  45.5233955
  53.3474302  57.7338791  44.2104006  44.9472809   7.3090017  17.9573333
  44.0193939   7.4219090  18.1635296  45.0466919   6.3688165  17.8076637
  49.0032387   9.2663670  40.8221912  48.6201906   9.4085056  41.6878128
  49.3499804  10.1222432  40.5702353  37.8998661  66.6482735   5.6545913
  38.8197064  66.9096184   5.6973159  37.4173284  67.4216700   5.9465587
  61.6279364  63.5775805  34.5673299  61.1498451  63.3173895  35.3547072
  62.5495481  63.4561396  34.7956228  62.8792429  28.7516522   9.2150432
  63.6293268  28.1620145   9.2920917  62.7225399  29.0578508  10.1083064
  66.6463137  76.7493296  67.7389479  66.6838741  76.0461712  67.0905733
  67.1305943  77.4710417  67.3379040  11.3908625  13.0329585  56.7499733
  11.8230546  13.8139045  56.4041948  12.0519710  12.3439646  56.6832209
  46.3508558  60.8794832  29.1863441  46.2774706  60.3453302  28.3954430
  45.4703283  61.2297344  29.3213654  31.4716339   1.3219346   6.0880303
  30.8928800   0.6034832   5.8328789  31.9993663   0.9626374   6.8012172
  52.3179674  41.7984009  21.1165285  51.4483738  41.4283848  21.2686110
  52.8487015  41.0540581  20.8327842  57.8085661  48.3749914  10.8817399
  57.5285816  47.6366615  11.4227629  57.9237080  48.0015564  10.0079441
  73.7047148  10.7343256  53.2458019  73.1360579  11.4695263  53.0170202
  73.2364702  10.2778316  53.9447927  27.5886273  17.0974898  59.8971510
  26.9868040  16.3535547  59.9216795  28.1552744  16.9224882  59.1458082
  56.0865831  39.6452880   6.2187219  55.9967756  39.6282911   5.2658957
  56.1930227  40.5721569   6.4327657  42.8923321  58.5670280  35.1903081
  42.7303743  59.4951200  35.0210667  42.1408749  58.2838631  35.7112288
  32.2178507  15.6316113  54.6436644  32.2812533  14.9201608  55.2808857
  33.0964518  16.0107195  54.6197367  72.6401520  15.9838367   2.4434218
  71.7662525  15.6307554   2.2764927  72.4811125  16.8175113   2.8860578
  28.7568474  66.3852978   2.7666306  29.2407417  67.1959352   2.9245874
  29.4092631  65.6927013   2.8709936  24.3790221  14.9442804  12.1016347
  24.0066648  14.3761706  12.7760482  25.1378608  15.3491533  12.5217199
   9.3832844  69.3935633   0.7376180   8.9566189  70.0276327   0.1612997
   9.8982662  69.9279737   1.3421270  44.4099855  33.5042381  17.8301144
  43.7356186  34.1243029  17.5526524  45.1570988  34.0533900  18.0677724
   2.6175699  55.0450563  17.3193705   2.8391343  54.2352295  17.7790654
   1.6789374  54.9730110  17.1461356  63.1588697  54.3480015  20.5226493
  63.3323097  54.9531651  21.2437129  63.5161448  53.5115242  20.8207965
  51.5470409  63.3694553   7.0165187  52.4292612  63.2425308   7.3655319
  51.0473490  62.6251698   7.3520583  72.1240520   3.4144521  35.8151841
  72.2145510   4.2828584  35.4228663  72.7802610   2.8800258  35.3679657
  29.0709972  61.3882637  35.3319836  29.3090439  60.4615450  35.3044772
  28.8483119  61.6053247  34.4267058  41.3850975   4.2870048  41.5409899
  40.5289650   4.1153732  41.9331884  41.2560511   4.1293141  40.6057310
  74.1742516  45.1600838   7.0569617  73.7925577  45.6562853   6.3328552
  73.4320116  44.9587297   7.6268464  32.6373267  56.1025429  41.5819836
  32.3048401  55.6166363  42.3366880  32.9250097  55.4257870  40.9692240
  25.8802605  43.6864090   3.5020682  26.1434698  43.2013035   4.2841309
  25.8952165  44.6042776   3.7732315  59.1919279  39.1618562  13.8890386
  58.7621069  39.4748187  14.6849906  60.0979137  39.0017343  14.1532052
  57.5607157  24.5623589   5.3513497  58.4084702  24.2074251   5.0838345
  57.0281315  23.7907720   5.5443162   5.5961293  47.4432659  45.0033951
   5.8135962  48.3046675  44.6471262   5.5966675  47.5694180  45.9522438
  63.2988501  77.6237535  45.7610607  62.7272940  77.1179724  45.1833582
  63.2194233  78.5247135  45.4476976  31.0759449   7.0164973  51.3728142
  30.2306104   6.6113889  51.5665388  30.9358716   7.9501569  51.5305853
   1.0145755   6.7471987  26.5617180   0.6581185   6.6124934  25.6836390
   1.9638613   6.7289662  26.4402461  20.0419664  56.3295889   4.0867811
  20.2433133  55.3992414   3.9860317  20.8966947  56.7604589   4.0917313
  39.4870758  29.1276550  29.4000173  39.3450308  28.1812191  29.4177365
  39.2744493  29.3850088  28.5029149   5.1661485  73.4431076  53.5651207
   5.2072269  73.1902599  52.6428366   4.2880055  73.1850719  53.8453293
  23.2583761  40.4113722  36.1455297  23.6115193  40.9979963  35.4766536
  22.3945642  40.1641893  35.8154345  22.3053789  62.2289562  39.4084239
  22.3832774  61.5916872  40.1183939  23.0389881  62.8288031  39.5434380
   7.0618016  20.6615520  37.6462698   7.9113901  21.0245371  37.8966141
   6.9147837  19.9468124  38.2657552  77.2487293  65.1511490  66.7076293
  77.6393686  64.7842705  67.5007437  76.3654934  64.7829950  66.6832935
   3.3846614   2.3591740  65.4505539   4.3183666   2.2434726  65.2743721
   3.1748819   1.6768000  66.0881996  65.7637167   3.7093487   1.6237649
  66.3396502   4.1421080   0.9934828  65.6780434   2.8145337   1.2948310
   8.0260867  46.3444138  14.2214918   7.5591987  45.8656979  13.5365987
   8.8723242  46.5593100  13.8291502  75.0420809  66.2514973  41.9431877
  75.3374434  66.5695190  41.0900450  74.0984964  66.4123440  41.9452000
  36.4156032  37.8729606   8.7659979  36.1059165  37.5047135   7.9385209
  37.1858406  37.3496723   8.9876688  25.5950093   4.8561552  39.4644928
  26.3676572   5.4178083  39.4028902  24.8743415   5.4055554  39.1562271
  79.8278093  40.0555372  13.1871700  80.6517792  39.6947098  12.8598905
  80.0819874  40.5871487  13.9414978  30.9074354  71.3726902  66.0309792
  31.5176249  70.7525539  66.4301443  31.4378357  71.8570042  65.3982449
  52.5431967   3.6671019  62.7121878  52.3376036   3.6149403  61.7787838
  52.3151875   4.5636830  62.9579258  14.8350394   7.6728708  19.3901575
  15.3890896   8.3027738  18.9292002  15.4503059   7.0454550  19.7696686
  53.9822435  72.7738762   1.3192378  53.9670897  71.8169641   1.3011909
  54.4386673  72.9908991   2.1321398  75.0241709  55.7064247  40.5421829
  75.8273792  56.0814953  40.9033060  75.2553082  55.4633713  39.6456718
  80.7339573  65.1964426  20.5665851  81.5615368  65.5903816  20.8425522
  80.0711632  65.8494711  20.7912683  19.9288893  39.7837281  53.0295420
  20.0686121  40.7072449  52.8201914  20.0668526  39.3265510  52.1999693
  64.0581560  16.6540515   2.1184257  63.6584473  16.0223222   1.5206081
  64.9475288  16.7704940   1.7842299  68.6706877  57.8343344  34.4139624
  69.1535711  58.5311413  34.8583865  69.2373180  57.0662975  34.4866347
  11.1523974  48.3620405  21.2932777  11.9376850  47.9486465  21.6519713
  11.3874459  49.2856216  21.2039614  54.1930056  25.8808899  22.8742242
  54.7086525  26.6349530  22.5883460  53.8950396  25.4724693  22.0614266
  67.7528811  54.6629190  53.5469532  67.0811653  54.7386742  54.2246628
  67.5223970  55.3346252  52.9051399  77.1040869   0.7485236  65.7362986
  77.7223492   1.1593934  66.3405895  76.7994928  -0.0319644  66.1992121
  45.1624680   3.7605733  39.1129327  45.1919603   2.8039938  39.1307569
  44.8235846   3.9735922  38.2434440  34.6518779   5.5383742   9.5172966
  34.3900824   4.7194180   9.9380171  34.7971249   5.3013402   8.6013544
  23.2959366   3.9038244  65.1167059  22.5843692   4.5181957  64.9365616
  23.8084388   3.8872433  64.3084383  67.9480505   1.5984513  33.5294008
  67.2387028   2.1840340  33.7942600  68.2128620   1.1615959  34.3388844
  73.2950258  64.3099880  46.2757444  72.7505350  64.1493845  45.5050516
  73.3414125  63.4619188  46.7171717  69.3566084  74.0460014  20.3029323
  68.6577988  73.7525558  19.7183084  69.5882416  73.2672882  20.8090806
  30.1595426   3.0122629  25.8955789  29.6049309   2.8761178  26.6637611
  31.0533452   2.9786867  26.2364912  26.1875653  40.6851006  30.9443116
  26.8768215  40.9147358  31.5675497  25.9108615  39.8069406  31.2060380
  28.2812405  13.4716845  35.6643629  28.0844855  12.6361668  36.0879564
  28.8747168  13.2435620  34.9488378  48.5949755  20.7649636  22.3749375
  49.3510675  20.6303930  21.8035841  48.1874275  21.5669823  22.0479774
  54.0615749  73.6400270  66.8185616  54.2181683  72.9098082  66.2198210
  54.5352268  74.3749666  66.4290142  47.0202971  49.3370581   2.8099167
  46.7245626  48.5921574   3.3332661  46.5234804  49.2692280   1.9945630
  68.2797337  65.3383827   8.7963372  68.6445570  66.0403490   8.2574713
  67.8127384  65.7927656   9.4975370  53.9185762  75.2678680  60.9207106
  53.4133148  74.6116734  60.4407597  53.3828640  75.4683876  61.6881990
  21.7275524  68.0985212  23.2202578  21.7383075  69.0190887  23.4823132
  21.6627073  67.6156855  24.0442085  27.1392870  43.4575987  64.7862434
  27.0249462  42.9228926  64.0005922  27.7734923  44.1272020  64.5300293
  35.3560448  56.3752699  29.2666435  36.2229514  56.0908127  28.9771771
  34.7550344  56.0107613  28.6169124  20.5491590  69.3455267  48.4437752
  21.1851764  70.0513172  48.5602713  19.7635007  69.6541929  48.8951015
   6.1887115  65.6945324   4.8123324   5.6692821  65.7518339   5.6142938
   5.6815606  66.1819649   4.1631487  14.8135771  36.9824922   0.0911384
  14.6070351  36.0832059   0.3458076  13.9687695  37.3637330  -0.1480097
  26.2533832  59.3267679  36.0255265  25.3726721  59.4440317  36.3816595
  26.8074894  59.8889494  36.5669632  49.7149372   2.0688230  32.6090765
  49.7693729   2.3436114  33.5243678  50.5097771   2.4184921  32.2063446
  39.8995972  56.5175533  24.8565483  40.2643967  55.7520771  24.4124794
  39.2224836  56.8395519  24.2615151  30.0323963  75.3660107  10.8753586
  30.5258608  74.9941158  11.6063988  29.8268366  74.6150875  10.3184986
  21.7780089  28.7180138  25.7973886  20.9301639  28.9366078  26.1841750
  21.6778660  27.8152585  25.4953384  24.5267248  37.4898601  25.7761121
  24.7909594  38.1838918  26.3800430  25.0610971  37.6354265  24.9954152
  22.2548103  66.3809586  20.8865786  22.2503400  67.2158575  21.3547206
  21.6476679  66.5115356  20.1581836  73.0017328  68.0609274  63.5147142
  73.7896013  68.0878353  64.0576410  72.4601030  68.7786913  63.8428593
  48.9698029  65.8255386   7.7918196  49.1784525  65.4756021   6.9256550
  48.4180689  65.1549768   8.1945151  49.0090275   6.3053674   1.2363722
  49.2415476   7.1492380   0.8490112  49.4758558   6.2885672   2.0718482
   4.7403288  65.1217413  28.1942892   5.4672670  64.5584583  28.4598184
   5.1602238  65.9222984  27.8795981  19.4847214  52.8031206  18.9973354
  19.1929126  52.0933437  19.5694375  19.4032764  52.4465990  18.1127489
  70.1785421  71.0579777  21.4385080  69.5938873  70.3125381  21.3016415
  70.8818388  70.7129383  21.9885588   0.4893239  38.7769723  12.3175156
   0.1984914  38.8863969  13.2228768   1.1412747  39.4661951  12.1904159
  77.2031069  61.9538641  39.2078686  77.2817850  61.1196518  38.7451196
  76.2606716  62.1155453  39.2515922  45.8099413  64.5979214  30.9723639
  45.2005386  63.8664341  31.0712981  46.6360235  64.2713594  31.3289762
  58.7790871  34.8705435   8.7442905  57.8395414  34.9891829   8.8835967
  58.9065123  35.0426960   7.8113610  32.4646330  38.6369705  34.6770978
  33.2008529  39.2363477  34.7993970  32.8613925  37.7658916  34.6831465
  12.1298945  49.1620255  47.4519348  12.4669564  48.6333895  46.7286301
  11.2233484  49.3501139  47.2089767  78.2375145  76.0829496  36.3638139
  77.7373028  76.5795994  37.0113945  79.1488600  76.3254356  36.5277672
  11.8411374  52.6902390  58.1737041  11.4856064  52.9743195  57.3316050
  11.6988087  51.7437696  58.1867552  56.3507271  11.1176217   4.5773849
  56.3770580  10.8875358   3.6486229  55.9556675  11.9892704   4.5970941
  19.4689894  51.2287760  30.2487350  20.0115037  51.5571165  29.5317245
  18.7930572  50.7058477  29.8175859  24.3388224  68.3860254  24.2315221
  25.1625133  67.9707432  23.9759660  23.6640739  67.8743935  23.7852263
  30.1718664  65.2252769   8.3055359  30.3982425  65.6979132   7.5045359
  29.2355490  65.3863287   8.4221655  69.7134876  57.9800653  31.7244124
  68.9061356  58.2513332  32.1612453  70.4084301  58.2099962  32.3411965
  14.7106314  62.4378252  21.8196082  14.8967266  62.5126696  20.8836579
  15.4768562  62.8200102  22.2474670  28.4048319  31.8511391  19.8576093
  27.6124310  32.1802545  20.2818918  28.5390139  30.9841323  20.2403998
  20.2484655  73.9245224  -0.0447737  19.6948481  74.0520906   0.7255949
  19.7287607  73.3666229  -0.6234673  39.0665555   4.7109127  43.2013226
  38.4443355   4.0257597  43.4455299  39.1714692   5.2336073  43.9963198
  80.9543514  35.9193897  17.4022615  81.0263348  36.8374205  17.6635396
  80.2258968  35.5789733  17.9215956  40.0222778  34.1638637  17.8815973
  39.3780208  34.5739651  17.3045540  40.5981588  33.6783862  17.2909153
  27.6120043  34.1739511  32.9640222  26.6796398  34.1783762  32.7474380
  28.0528378  34.0571833  32.1224380  26.0646605  20.8289194  47.5059462
  25.2072430  20.4323530  47.6602221  26.3597083  21.1064959  48.3731985
  76.9641186  77.8353173  38.2372093  77.7150966  78.4124268  38.3758068
  77.2281553  77.0012187  38.6255360  12.3595035  49.9208975  35.7017183
  12.3492169  49.7786379  36.6482306  11.5581203  50.4135752  35.5248427
  80.6605721  66.8231058  31.2793899  81.3584805  66.2164259  31.5265560
  81.1181545  67.5705862  30.8945203   5.7951963  42.0663357   9.1238749
   5.2499896  41.7001104   8.4275556   6.6804886  42.0664644   8.7598848
  25.3372145  45.7294559  20.5166101  24.8103237  45.3694010  19.8031819
  25.3566480  46.6715193  20.3481627  59.8385000  60.0277901  23.3420801
  60.5617714  59.9967861  22.7158642  59.0912724  60.3368187  22.8298473
   9.9743438  54.6127272   9.2682654   9.5941961  54.9604559   8.4615403
  10.3122354  55.3829527   9.7252262  15.6909943   2.8695700  57.4928331
  15.8601820   1.9614662  57.2419262  14.9292684   2.8205296  58.0704165
  60.3866577  32.9670668  18.7424636  59.6978521  32.3378372  18.5283506
  60.9840870  32.4833393  19.3128347  21.4302945   2.0341866  29.1397905
  22.1174335   1.9456050  28.4793210  21.1279511   1.1389088  29.2924333
  65.0923491   7.0479786  33.1327510  64.3269396   6.8010247  33.6517835
  65.1692343   7.9942656  33.2546616  77.7888155  22.3410988  44.6140242
  78.5714912  21.7980742  44.7076988  77.4908352  22.1793818  43.7188768
  64.6041965  30.0415397  28.4352183  63.9891005  29.3923593  28.7764692
  65.2523470  30.1466894  29.1316938  73.8394976  43.8868523  15.6304526
  73.4879541  44.7498608  15.4116619  74.1034603  43.5153246  14.7887146
  79.2468023  29.0808868  42.2542906  79.3902683  30.0169849  42.1151161
  79.3430328  28.6919832  41.3849640  25.5326295  30.5638814  12.8235328
  26.3275361  30.6278634  12.2941351  24.9152064  30.0839877  12.2715163
  21.6537309  70.4037905  25.9831047  22.3619390  71.0256290  25.8158040
  20.8582163  70.9357595  25.9631944  77.5208187  70.8154440  15.5509543
  76.7799330  70.3829622  15.1263630  77.1268654  71.5321589  16.0483003
  45.0114012  59.8255539  55.2600002  44.1976166  60.2233982  55.5693579
  44.7456980  59.2833138  54.5172977  59.0115261  17.9341376  42.6592541
  58.9189672  18.6608219  42.0431423  59.5066881  18.3021963  43.3910894
  31.6597939  30.0366211  19.3341780  31.8391228  29.7741222  18.4313118
  30.9431624  29.4659495  19.6116805   0.5069928  51.7395782  26.1192298
   1.0057783  52.5326681  26.3153315   0.8337635  51.4561272  25.2653503
  19.7533429  24.8452401  45.0808477  19.4418359  25.7308793  44.8941994
  20.0237012  24.8748851  45.9985971  34.0120530  34.8813057  54.5974493
  33.0979729  34.5974565  54.5864582  34.0286422  35.6572580  54.0372229
  60.6745434  72.2766829  32.9116726  60.1156616  73.0501890  32.8370261
  61.4782429  72.5164652  32.4503660  17.8810632   2.2293516   5.9076697
  18.3575392   1.6915631   6.5401143  18.5547900   2.5432730   5.3045309
   9.6345639  47.6947832  16.7857695  10.1244402  47.3051310  17.5099409
   8.9396560  48.1980753  17.2100723  80.1678562  37.1484399  22.3085618
  80.2293682  36.3179302  22.7804708  79.2742968  37.4506879  22.4711633
  36.6765308  47.5784349  19.3392766  36.2077165  48.2081938  18.7916946
  36.5263152  47.8812361  20.2348089   5.9925747  45.0236845  38.1852508
   6.2079740  44.2759800  38.7427187   5.0357330  45.0485706  38.1770873
  19.3765020  14.3259132  32.1230578  19.7331977  15.1654506  32.4131894
  19.1716671  13.8597536  32.9335952  44.0396881  71.0478544  53.3107615
  44.7253656  70.5609226  53.7678957  44.0747118  71.9253969  53.6914539
  71.9916821  32.2611022   8.5440522  72.2817469  32.9662514   9.1227239
  72.7494574  32.0808148   7.9877180  13.8283813  74.0734816  15.9816062
  13.8083208  74.8825359  16.4927483  13.7166905  73.3779240  16.6296458
  17.6669466  57.0589733  17.3139668  18.2744503  57.4737120  16.7014587
  18.2302582  56.5882778  17.9282606  82.3633003  32.3608041  29.2188048
  83.0311012  31.9041371  29.7304010  82.0955658  33.0931997  29.7739172
  24.2516828  37.2222114  15.8536839  23.9222622  38.0576515  16.1849761
  24.8420811  37.4636126  15.1399708  73.6105061  28.8279343   7.0020646
  73.6703730  28.8110948   6.0468870  72.6906681  28.6391282   7.1877629
   0.2394848  24.1913342  64.6097898  -0.0033734  24.2729425  65.5320644
   0.6737880  23.3403707  64.5508718  31.0133433  35.6036210  13.2665408
  31.2676144  36.5255594  13.3066809  30.1074719  35.6182361  12.9576468
  43.7134647  38.9114714  10.4761600  43.4060717  39.7316456  10.0900841
  43.3873367  38.9332104  11.3758266  81.2721920  53.8912582  20.5016828
  81.5748692  53.5205555  19.6727085  80.3175926  53.8412571  20.4520535
   1.8222468  55.7199526  21.7214394   1.8257168  56.1629963  22.5699258
   0.9412434  55.8678150  21.3776350  34.0989780  21.4712358   8.2840961
  33.8113356  21.6789579   9.1731101  33.5891175  20.6981874   8.0418742
  27.9054880  41.1316061  33.2760835  28.4074736  40.3208685  33.3594704
  27.1499944  41.0056543  33.8501883  38.9737606  14.8398137   3.5100806
  38.0504990  15.0446081   3.6579934  39.4454145  15.4043198   4.1225424
  31.6426492  47.8764296  38.9770532  30.7864738  47.6487398  38.6146307
  31.5407777  48.7772036  39.2843890  31.5884233  47.0796537  33.9681721
  31.6132879  46.9873857  33.0157542  31.2711501  46.2330770  34.2826200
  26.5196061  60.3508854  12.2822773  27.4746633  60.3931952  12.3302996
  26.3414478  59.6070671  11.7067540  74.7758341  57.4622774  25.9365010
  73.8634634  57.1767569  25.8886385  74.7400379  58.4058809  25.7797790
  18.6814702  61.0453892  61.7348909  19.6109939  61.1379910  61.9437981
  18.6102223  60.1765394  61.3395977  30.8022308  14.5013881  12.1735024
  31.1412811  14.1808462  13.0092824  30.1690507  15.1773000  12.4152863
  36.4175892  75.0858021  63.6642313  37.2614598  75.0502253  64.1146183
  36.4007306  74.2955589  63.1243610  63.2992506  46.6329098  44.4133043
  62.5530100  46.9793510  44.9025154  63.9837122  47.2933102  44.5210791
  68.0985451  47.9481125  17.4496758  68.3804655  47.2969913  16.8071854
  68.5373497  47.6902771  18.2603550  78.1307459  15.9177148   9.4731665
  78.0437946  16.8542218   9.2953277  78.3672237  15.8707738  10.3995061
  37.3806691   4.9296662  21.0832620  36.8288279   5.5403101  21.5719509
  37.7582979   4.3595070  21.7529988  14.5799017  63.1601334  30.0282431
  13.7961841  62.9213572  30.5232215  14.4148946  64.0566683  29.7362947
   6.0530370  37.0783234  51.6909981   6.7226112  36.5354109  52.1071053
   5.8430618  36.6186070  50.8781004  57.1070290  28.2852626  66.0573244
  56.6114378  28.2120252  65.2416945  57.5158978  29.1495776  66.0123634
  27.5121903  54.2729807  29.2268443  27.8640890  55.1380491  29.4367456
  28.1195736  53.9184380  28.5775232  47.4234343  17.8479683  33.3148170
  46.5052462  17.6129270  33.1809640  47.8206682  17.7653039  32.4478650
  17.8755093  63.0961943  16.3028038  17.9999089  64.0255499  16.1102974
  17.4521685  62.7439976  15.5198789   9.7422528  70.2644014  24.4783401
   9.9778551  70.9080172  23.8101506   8.8002145  70.3810167  24.6016145
   9.0825021  51.8682957  31.3268232   9.5926911  52.1002817  30.5508590
   8.4175807  51.2604380  31.0033679  29.0493345  59.8052502  27.0329881
  28.3028722  60.2923298  27.3819590  29.7755408  60.4282522  27.0598412
  18.1925941  57.0294428  43.6945868  17.5325656  56.8893814  43.0156326
  17.6872027  57.1535158  44.4979668  45.3504324  56.9084787  14.6359408
  46.2278223  57.2875166  14.5834804  45.2329922  56.4596033  13.7987125
  76.1378336  23.8305879   3.2907146  75.8634520  23.5761976   4.1717553
  77.0175076  23.4645915   3.1987762  14.0167236  66.4684916   6.3195580
  13.0914962  66.2448931   6.2186116  14.4484651  66.0413265   5.5797184
  74.6413040  29.4903469  16.8655896  73.9533806  29.1936564  17.4613810
  74.1735315  29.9572849  16.1732090   0.4305563  26.2901998  36.9970751
   0.3901008  27.2351933  37.1439910   0.2110881  26.1820698  36.0716724
  81.1909962  54.3963528   4.8649952  81.8590450  54.8403883   4.3427151
  80.9424305  55.0373650   5.5309904  58.6109877  42.5135946  13.4465528
  59.3238497  42.6989889  14.0578520  57.9546785  43.1848812  13.6332750
  80.5855179  25.8532357  56.1165571  81.0228252  26.6710210  55.8794451
  79.6801472  25.9740424  55.8303118  18.4887922  45.4380083  29.5572734
  18.1950128  45.2418804  28.6676335  17.8428555  45.0134706  30.1218677
   7.0127070  24.6462774  40.9575701   7.4761546  25.1865649  40.3176165
   6.0884267  24.8559284  40.8234596  71.8309546  23.9069009   0.9828228
  70.9493780  24.2581058   0.8574927  72.1714878  24.3798757   1.7421433
  14.9313593  53.6285591  13.5655892  14.6447575  52.7154636  13.5469449
  14.3273640  54.0812397  12.9769444  78.1084204  61.3967133   9.2716134
  77.6887655  62.1450758   8.8472629  77.5181913  60.6626940   9.1010916
  26.8975830  30.0531268   9.8942739  27.4362564  29.4783449   9.3505007
  27.3288178  30.0476956  10.7488143  21.3214278  10.4184771  34.0961075
  21.0546160   9.4999552  34.0592289  21.5233970  10.6458485  33.1885052
   8.8595122  34.7124314   4.7494403   9.5998245  35.1792812   4.3618575
   8.4485960  35.3540158   5.3288764  20.1704597  70.9154606  21.2296104
  19.2219853  70.7867718  21.2376809  20.3286171  71.4840603  20.4760075
  65.0689983  14.4412160  13.1561172  64.9034739  15.2304709  13.6717820
  65.6315327  14.7364891  12.4401569  13.8373947  63.2150936  34.7744823
  14.7818553  63.3342457  34.8746300  13.4505343  63.8568687  35.3700447
   6.4083612  37.4163747  24.3225193   6.2557626  37.4256992  25.2674317
   7.2083664  36.9020963  24.2141652  14.2580402  59.7383690  34.1707253
  13.8088191  60.5746365  34.2935467  13.6075997  59.1767406  33.7491417
  72.2446394  17.5093055  57.7422142  71.3076544  17.6410246  57.8869057
  72.3097754  16.6231549  57.3862314  20.3221512  33.0176926  16.4091456
  19.6052825  33.4374070  16.8847179  20.6324792  33.6894655  15.8019817
  79.4421053  42.7517796  64.8797703  78.8440371  42.1536016  65.3278017
  78.8763237  43.4428644  64.5354939  34.6827435  24.4344211  18.3741212
  34.3163991  24.3300557  19.2522621  33.9553404  24.7686028  17.8493011
   8.1151712  76.5694618  20.1442218   9.0339428  76.5617943  20.4126072
   7.8819555  77.4973536  20.1148796  18.5766876  60.6145096  17.3603892
  19.4927537  60.3630543  17.4779809  18.6063528  61.3458729  16.7435765
  22.9165864  43.3849239  37.4000621  22.8133345  42.6530409  36.7918539
  23.7896323  43.7301350  37.2133827  12.5248778  29.3707180  59.4825459
  11.9390285  28.6139584  59.4645023  12.1206427  29.9716902  60.1083708
  46.0708237  16.7507243   4.8020303  45.3185081  16.1633289   4.7297981
  46.3721895  16.6440976   5.7042724  23.5227871  39.9358058  31.9474220
  22.6167703  39.7423482  32.1881294  23.7187123  39.3222523  31.2393260
  46.4973736  27.4374700  23.9613676  47.1101093  26.8004131  24.3287134
  46.0579872  26.9664550  23.2533288  50.3767061  47.9752398   2.6602367
  50.7119036  47.6368284   1.8299641  49.4973183  47.6041985   2.7325717
  14.3207884  45.6310272  27.5263453  14.6209323  45.0281429  28.2065439
  13.6656153  45.1332855  27.0372295  13.6216855  13.5522091  16.0680938
  13.6482430  14.3509662  15.5412984  14.5409596  13.3472025  16.2387943
   1.4029247  66.1782837  10.0411499   0.8677085  65.3952646   9.9120927
   2.2641936  65.9387684   9.6989799  82.9691159   9.8538709  19.9959052
  82.3553660   9.1337293  20.1406097  82.4214543  10.6389177  19.9956059
  61.7361736  50.3011227  52.1920729  61.1193371  50.5053997  51.4892149
  61.7853880  49.3452072  52.1972418   4.5246249  51.8958902  14.5803106
   4.9046504  52.2567272  15.3813148   3.9161491  52.5705147  14.2788684
  76.8001413  20.9731364  20.8174920  75.9514046  20.9344673  21.2583852
  76.7989588  20.2182078  20.2290082  69.0069866   7.2212791  58.5212231
  69.0304995   8.1773108  58.5622501  69.1249275   6.9396412  59.4284153
   0.8445909  29.5890903   5.8015317   0.5321352  28.7767196   5.4032111
   0.1449030  30.2211809   5.6368184  73.3126020   7.6633304  64.7731924
  73.8991117   7.0416373  64.3422270  72.7733898   8.0146009  64.0646124
  17.7934551  68.1661415  44.4958353  18.5430944  68.7276411  44.2983723
  17.0300162  68.7214470  44.3376255  33.1193161  55.5744839  12.9728878
  32.3299384  56.0749722  12.7664292  32.7981758  54.8013210  13.4369135
  60.7846117  56.0531092  36.4789271  60.7702160  55.3895235  35.7892323
  60.5562925  56.8681479  36.0319161  71.4231682  40.8703041  35.8417010
  70.8910227  40.7037783  35.0636744  70.7880068  41.0851526  36.5248156
  25.7648468  47.3112774  38.1345320  25.3178072  47.3394918  38.9804578
  25.0692010  47.1322823  37.5018620   9.6075547  21.1183882  16.2642419
  10.0732982  20.8788490  15.4630327  10.2503252  21.6076589  16.7777514
  82.0243549  36.7315435  20.2858829  81.4406776  36.5271068  21.0164666
  82.4026108  37.5812507  20.5120492  35.5373073   8.3205110  62.3144627
  35.9037328   7.9968476  63.1373882  34.7857690   7.7518868  62.1468639
  18.1157696  51.1891460   1.1790691  17.4489450  51.8725157   1.2467527
  18.8747168  51.6318464   0.7992733  74.4952488   9.3079406  66.3926029
  74.0527773   8.7615722  65.7430410  75.4044628   9.3443620  66.0955715
  18.4434056  24.1091013  14.9708509  19.3665814  24.1356134  14.7193050
  18.3466065  23.2801867  15.4396415  60.4013252   0.1220425   4.2400515
  59.9650478   0.4176600   3.4409863  61.3294125   0.0892203   4.0080988
  17.0993328  45.5104160  20.6163406  16.9736779  45.0971413  21.4705348
  17.3952544  46.3975000  20.8206606  79.6948767   4.5360646  23.0855060
  80.6018829   4.6169573  23.3805227  79.6735048   4.9980226  22.2474313
   6.3731599  61.0816431  45.5187845   6.9704443  60.3820944  45.7835817
   6.4313895  61.7260885  46.2241459  53.1892524  55.1919115  67.1630219
  53.0732237  54.9765146  68.0884263  52.3152743  55.0985611  66.7839711
  35.9533072  38.3034801  28.6333823  36.1622477  39.1531181  28.2451916
  35.0259781  38.3662343  28.8621926  10.9820724  52.7306843  15.6392908
  10.6836534  51.8820667  15.9664369  11.6888440  52.5174236  15.0300074
  80.3634834  55.7644320  15.0597465  79.8333549  56.2320471  14.4143534
  80.3531075  56.3290739  15.8325994  25.0678587  34.6270537  25.3189993
  26.0161543  34.4983602  25.3391457  24.9496531  35.4684854  24.8782563
  14.4584250  73.8570070  12.8561115  14.3478906  73.8516617  13.8068938
  13.6180484  73.5503721  12.5155616  65.6919527  16.3559771  61.4570951
  65.4674339  15.4373813  61.6054344  65.3135300  16.5599406  60.6018591
  19.0600801  46.6179895  55.9169388  18.6934471  45.9171724  56.4560795
  19.0857685  47.3784542  56.4976835  71.5242672  34.8076296  18.9149523
  71.8427086  35.3830528  18.2194567  71.6960812  35.2909303  19.7231185
  53.7040281   9.6826386  25.8118916  53.0433941   9.0297478  26.0432458
  54.3034220   9.2198241  25.2264309  12.0069265  35.8330464  34.0709066
  12.1081710  36.1870646  33.1873608  12.8978205  35.8005571  34.4194531
  61.8912697   0.2750841  23.5750628  62.4102974   1.0756147  23.4976673
  61.0693169   0.4784621  23.1286764  12.8733718  22.6956940  36.3479161
  12.0720005  23.1172085  36.6583371  13.3227861  22.4182963  37.1462321
  11.5669894  54.8940849  17.8747201  11.7646301  54.3351746  18.6262453
  11.3356221  54.2825031  17.1756721   1.7984085  36.0648704  35.8076644
   1.5922874  36.0714650  34.8729420   2.2808903  36.8788266  35.9522843
   1.2709609  73.9826870   1.7709407   0.5828684  74.0245152   1.1068542
   1.2380241  73.0821037   2.0935741   1.0354244  63.6963844  25.9780383
   1.4101958  64.4271326  26.4697528   0.0909822  63.8501024  26.0031748
  18.8224006  46.9986200  42.0960188  19.7428310  47.2609282  42.0806265
  18.5523403  47.0183563  41.1779213  18.5768509  36.2816978  20.4004645
  19.2810500  36.9154930  20.5369806  17.9406786  36.7442966  19.8550117
  24.7945070  33.2586503  29.8140025  25.2784753  32.5626469  29.3694973
  24.0553379  33.4439898  29.2347717  77.2270393  37.8092360  46.8332052
  77.0230246  36.9779038  47.2615671  77.7028608  38.3097625  47.4960041
  13.6736345  37.9793310  32.8603840  13.8626742  37.3051858  32.2076797
  12.8047693  38.3042860  32.6243567  28.5635972  70.4486370   4.0346411
  28.5718822  71.3632536   4.3168479  27.9352331  70.0235653   4.6183401
  39.3231392  63.0064821  16.8399549  39.1999459  63.6555719  16.1473227
  40.2729416  62.9176140  16.9187331  70.9297514  38.6278033  10.6642962
  70.1845360  38.1999063  11.0859442  71.1307192  39.3723345  11.2313223
  45.3287554  10.9243345  21.6191339  45.1665306  10.3195572  22.3431206
  45.7482815  10.3867459  20.9474015  78.4588194  65.2827740  45.8017921
  78.9002848  64.4519091  45.9778643  77.6596212  65.2454185  46.3272619
  43.1939650  69.0651464  27.9877496  42.8941870  68.2667255  28.4223628
  42.4343157  69.6472502  28.0056453  44.9171829  35.5608201  23.6623883
  45.7841921  35.2232766  23.4374666  45.0807810  36.1952114  24.3602538
  12.2847402  35.7375646  21.1565590  11.5393543  35.8064628  20.5599952
  13.0161726  35.4768634  20.5968499  61.4368773   0.8068480  39.7445607
  60.9390640   0.3296910  40.4084396  61.0555935   0.5271786  38.9123106
  61.2578917  56.1506939  32.2790885  61.8580627  56.2106943  31.5358329
  61.1864042  57.0488262  32.6023221  56.0367680  20.2302551  29.1267467
  55.8819485  21.1032557  28.7660122  56.1417723  19.6688592  28.3586049
  23.1337810  45.4568291  38.8334656  23.5447121  45.3749371  39.6940827
  23.1521845  44.5699215  38.4738970  21.4989352  44.1451740   5.4297900
  21.7645597  44.5882845   4.6239829  20.5556870  44.0150928   5.3318405
  31.8043375  52.1182442  32.9986739  32.6976871  51.9429731  33.2943749
  31.2495208  51.6468096  33.6200905   6.0135865  52.8064585  17.0995092
   6.7290980  53.3320999  17.4572468   6.4359903  52.2265911  16.4658213
  11.1640966  67.7476501  37.0465660  11.4111829  68.5733175  37.4630404
  10.5678618  67.3336697  37.6705503  63.3050394  70.5989933  14.7578728
  63.5153151  71.4230299  14.3185735  62.4708176  70.3289795  14.3739462
  71.8577003   2.1110991  14.1117871  72.4510431   1.7041752  13.4804487
  71.6678572   1.4175098  14.7435510   7.7765644  21.6730022  22.3812914
   7.7139026  22.0666504  21.5110350   7.3301268  20.8306122  22.2958350
  17.2381175  28.1054306  23.1185699  16.5540874  28.6806440  23.4613013
  16.9363689  27.8709364  22.2409630  19.1191745  29.3694043  21.8550253
  18.3489764  28.9249229  22.2092319  18.8775456  30.2955437  21.8445516
   9.1865128  55.9349060   6.9600987  10.0287068  56.3407230   6.7545456
   8.9943182  55.3843546   6.2010300  50.8547544  62.3860979  55.4174137
  50.8429623  63.3414364  55.3589344  50.5375481  62.1962500  56.3003445
  54.5394945  65.9324217   5.7090038  55.1925278  66.2685394   5.0951600
  55.0524473  65.5940294   6.4428985  27.4271774  34.2440796   8.6045349
  26.7389750  33.5850787   8.5132968  26.9671011  35.0325918   8.8923031
  74.8746300  44.7722626  47.0036411  75.1655102  44.4377232  46.1552906
  74.3657827  45.5545998  46.7909050  52.3801851  54.1281986  38.2864046
  52.9582167  53.7709379  37.6122546  52.2345638  53.3983707  38.8883829
   4.2973650  66.2585211  34.8369169   3.4875515  65.7482052  34.8336720
   4.9832091  65.6182146  35.0262761  66.4713240  68.3873367  58.7373400
  66.3716316  67.7403402  59.4356823  66.2528372  67.9108667  57.9364204
  82.0535469  68.5769033   7.9220694  82.9208088  68.1728125   7.9504168
  82.1330452  69.3537045   8.4756911  58.1365108  15.0286293  60.0502205
  58.0824900  15.9840488  60.0723028  58.4011221  14.8243630  59.1532898
  18.0133259  74.3164492  11.0667694  18.8000357  74.0772772  10.5767512
  18.3424747  74.6381521  11.9060528  54.3580961  52.1516609  14.3225896
  54.8248720  51.7548704  13.5871243  54.8824310  52.9185009  14.5533717
  12.8102863  48.1514454  54.2726994  12.5133693  47.4704647  54.8763037
  13.6712909  48.4064865  54.6041489   6.5207881  49.3811798  63.4942198
   7.0376855  49.9691963  64.0449333   6.1603087  48.7372351  64.1038322
  64.2816114  22.6178598  54.9800396  65.1786709  22.7566409  54.6762991
  64.2324638  23.0956841  55.8079910  -0.0481097   6.0496628  13.9969242
  -0.5275409   5.5211198  13.3589447   0.6080849   5.4531980  14.3573117
  19.9099278   2.3700026   3.9722502  20.2210402   1.9329053   4.7649592
  19.7824180   1.6608819   3.3420750  63.8440418  73.1245041  50.7484913
  63.3448458  73.9230251  50.9199524  64.4620419  73.3714724  50.0605106
  49.6675062  65.1938438  28.7881088  49.1920185  64.3944216  28.5621262
  49.0907860  65.9035683  28.5054159  70.0265121  45.8815670  34.1842055
  69.8371029  46.4966440  33.4756637  70.0113058  45.0212002  33.7649608
  42.5636005  74.7335482  45.9513283  43.4822273  74.7473907  45.6827021
  42.2271299  73.9043999  45.6114197  18.7708461  50.8339453  10.8152437
  18.2121754  51.2919712  10.1872861  18.4129143  49.9469376  10.8517992
  35.8360505  59.7258186  64.8485708  35.2569771  59.9478292  64.1194487
  35.4047108  58.9889336  65.2812052  37.0741892  45.5840969  22.4119353
  37.2065639  46.4074898  22.8817534  36.1232376  45.4921532  22.3530293
  80.9215546  21.9917703  65.9562492  80.6090355  22.5787020  65.2677155
  81.4187813  21.3194585  65.4904270  21.1500287  43.9803362  29.9215722
  20.7974267  43.0945826  30.0072885  20.3964233  44.5529842  30.0643587
  31.1308742  65.1874447  12.9906905  30.5062819  65.2417088  12.2673845
  31.3358831  64.2550802  13.0606747  80.3003502  22.8272724  61.3825750
  80.1429176  23.6416459  60.9048319  79.9990749  22.1393466  60.7890892
  79.8471737  41.6644144  62.2627640  79.8025465  42.4534893  61.7227650
  79.9572086  41.9911766  63.1557083   2.0853032  33.0464244  51.1185551
   1.8019316  33.9461827  50.9561777   2.4028586  33.0545878  52.0215082
  71.5425777  55.4345846  20.2177715  72.2625923  54.8468637  19.9888885
  70.7949495  54.8537683  20.3589582  56.3874197  52.2353554   3.2989460
  55.4933453  51.9165564   3.1755474  56.3606262  52.7075005   4.1311669
   2.0690219  45.6454515  34.3639398   1.2962985  45.7537270  34.9183822
   1.9287233  44.8101568  33.9180303  48.1521368   3.8897717  53.6131573
  48.3595753   3.7422210  52.6904297  47.6334190   3.1264269  53.8670683
  36.7493892  51.0634089  24.1873026  36.0730696  51.5221405  24.6856880
  37.2159648  51.7574453  23.7216306  27.9311085   2.2389190   2.7494505
  28.3660221   2.9665282   3.1940463  27.0215869   2.2876354   3.0437794
  50.3888083  27.1100616  10.8176327  50.1930714  26.5228438  10.0874996
  49.9682331  27.9363728  10.5798101  15.4555774  13.7306023  28.4342527
  14.6798205  14.2908823  28.4570050  16.1816907  14.3182993  28.6430693
   4.9908730  68.1251240   1.1583611   5.4609501  68.9424992   1.3231628
   4.0788031  68.3921957   1.0441963  50.7864523  30.9246564  14.9000359
  50.8103943  30.0744677  15.3391659  49.8544741  31.1303830  14.8270643
   5.9246212  40.1861906  26.6667914   5.2307564  40.0227165  26.0279942
   6.0015637  39.3648505  27.1522927  19.3996823  12.4413300  25.3940964
  20.2912235  12.1825314  25.6273532  19.3788946  12.3941100  24.4382882
  67.6712561  44.0318680  57.2814560  67.2612095  44.8361397  56.9632769
  68.3653402  44.3327045  57.8679466  72.0194674  46.7304897  15.3922784
  71.3105440  47.2736120  15.0477767  72.2160864  46.1163235  14.6849060
  32.0174813  34.2919397  25.3543377  32.0623946  34.9197125  24.6331477
  32.3724055  33.4815526  24.9889159  32.8399658  53.4123945  36.0537529
  33.5483527  53.8169813  36.5544844  33.0976701  53.5266542  35.1390028
  70.3956079  63.7023544   9.7230709  71.1432457  63.8800192   9.1523641
  69.7632217  64.3885756   9.5099664  38.4050655  55.0690651  17.5358593
  37.4721479  55.1997423  17.3660862  38.7815523  54.8845148  16.6753769
  20.7996440  39.3996453  38.4380722  20.6231308  38.7448025  37.7626061
  20.3822947  39.0501189  39.2253995  49.6667528  64.3561888  24.1619635
  49.8703623  64.2643356  23.2311916  49.1862440  63.5580921  24.3819237
  17.1731758  63.5425043  30.1315761  16.2279415  63.4023094  30.1873422
  17.5119221  63.2271671  30.9694576  22.3342896  59.9752045  42.1328020
  21.7240310  59.5345402  42.7240992  22.3909211  59.3966389  41.3723516
  70.0126839  15.3424263  41.3535309  69.9721146  14.6186852  41.9786549
  69.1918707  15.8174253  41.4834499  64.3493366  28.8444400  66.0069942
  64.5936060  29.5823097  66.5656614  63.5245991  28.5277843  66.3754654
   1.1752900  69.6554852  19.2517436   1.8212079  69.1167068  19.7086227
   1.6377673  69.9803448  18.4792066  68.3692980  40.5907631  54.8937511
  68.1286716  41.4659739  54.5898867  68.4105062  40.6709909  55.8466911
  48.1404829  32.6533866   6.1631346  49.0938711  32.6711655   6.2466061
  47.9688787  33.0243278   5.2975786  23.5032845  52.5327015  62.4160194
  24.3729186  52.4193573  62.0324516  22.9165506  52.6021910  61.6629267
  23.4760475   8.0685151  29.3040156  24.2621732   7.5617510  29.1004753
  22.7510095   7.5031281  29.0377641  39.4116306  49.2594528  19.3631136
  39.8614383  48.5481977  18.9070201  38.5185122  49.2373180  19.0194821
  22.5599003  71.4899015   5.9894127  22.7205491  71.3066006   5.0637645
  21.6684365  71.1775589   6.1442244  78.2577896   7.6629376  57.8045321
  78.3091593   7.9168665  58.7260056  77.7145481   6.8748277  57.8031969
  12.2154605  71.3963223  54.1868925  12.4510205  71.3803530  53.2592678
  11.8030155  72.2506142  54.3145990  12.5260937  71.8753433  10.4285049
  12.7324557  70.9410191  10.4023826  12.9938602  72.2449732   9.6796393
  15.2040195  68.2528973   7.9027927  16.1328506  68.0218029   7.9126930
  14.8016596  67.6030922   7.3265183  27.4419427  68.7770176  15.8643854
  27.9093933  68.8875675  15.0364363  28.1319189  68.7505531  16.5273070
  20.9450269  68.9839792  15.1874363  20.0203061  68.7400103  15.2275074
  21.0840297  69.2474079  14.2777574  66.5504742  32.1795392  66.4138269
  66.1401081  32.8618670  66.9451046  66.3042831  32.3957539  65.5144501
   0.4053840  46.4325094  40.9360218   0.8052669  46.9537401  41.6321898
  -0.3327887  45.9939337  41.3590860  67.0797920  22.2714019  66.9337320
  67.6356125  22.4895835  67.6818562  67.4731588  22.7408385  66.1981201
  68.6036348  54.1559982   5.0439715  68.0773258  54.5468855   5.7414198
  69.1346645  54.8792696   4.7106209  30.4126167  66.2105036  19.2558229
  30.4002094  65.3651142  19.7045910  30.1449394  66.8407011  19.9247241
  29.9740219  14.4595873  46.8248796  29.9978614  14.6870923  47.7543449
  30.1956916  15.2738953  46.3732195  32.1551132  40.3361559  20.5492568
  31.9644642  40.8216858  21.3518405  31.3297057  39.9045873  20.3286123
  78.7929344  53.8746309  12.4011672  79.0612078  54.7870207  12.5098252
  79.4466352  53.3731222  12.8884029  18.6880064  76.6351223  33.6226511
  19.5013213  77.1190929  33.4794021  18.7782276  76.2703800  34.5030260
  72.7253962  23.1010985  21.3619781  72.6086426  22.8416705  22.2759247
  72.9850531  22.2951841  20.9155369  58.8271523  14.9192083  57.4784040
  59.0161085  14.8193038  56.5453720  59.6818733  14.8534334  57.9042578
  22.1662831  39.8000479  63.3308125  21.4932632  40.0817204  62.7111864
  22.9936695  39.9946260  62.8905821  26.6863632   5.7543385  57.0961714
  26.7446566   5.0764573  56.4228868  26.3344026   6.5174472  56.6378880
  20.5922031  71.3406706   9.8385537  20.1070333  71.6796207  10.5908525
  20.4627490  71.9974756   9.1543919  63.5606241   9.4254547   0.5089289
  63.5917044   8.9475536  -0.3198511  62.7508163   9.1304022   0.9253234
  36.8360996  41.5728855  17.8042972  35.8818579  41.5323734  17.8676331
  37.0047498  41.8530130  16.9046748  55.9966373  59.6503401  59.4447756
  56.6566181  59.2700768  60.0244761  56.4338446  60.4019403  59.0445614
  55.9440327   6.8119353  45.3313875  55.5676365   6.1264086  45.8833027
  55.8276033   7.6167750  45.8362722  73.8472128  45.2197123  11.5185428
  74.4032621  45.6857634  12.1429121  74.3980122  44.5082903  11.1918485
  81.0897923  64.0924549   6.7323804  81.5857792  64.0780497   7.5509316
  81.7518902  63.9865971   6.0492563   6.2303716  56.8802404  21.3551903
   5.3243959  56.6540956  21.5656614   6.3045669  56.7210436  20.4142427
  66.7771626  47.4621105  64.8127699  66.1834383  47.0790386  64.1670275
  66.3852215  47.2430420  65.6581259  81.3607788  63.2798195  22.5836968
  81.9538212  62.7452660  22.0556974  80.8791161  63.8053131  21.9448805
  80.3800011  11.9815779  57.7150774  79.8190355  11.5318513  57.0831776
  80.6990147  11.2858152  58.2898569   2.0945786  52.3514748  52.1438885
   2.5948000  52.8848886  51.5262461   1.6846156  52.9863453  52.7313423
  77.6424551  52.5202560  46.8097115  78.5129690  52.1234274  46.8408298
  77.6385498  53.1461954  47.5338793  75.6716156  70.6663609   2.6224774
  75.2315998  69.8230553   2.7295157  74.9587154  71.3010216   2.5502521
   6.5504360  74.4980240  50.5001354   5.7654828  74.4971132  49.9523401
   6.6350198  75.4044294  50.7959461  23.1240177  61.3748360  29.1131377
  22.7611399  60.5799007  28.7224579  22.3683977  61.8192530  29.4975376
  27.6143336  58.6018276  33.6581445  27.9177523  59.4787502  33.4232402
  26.8441963  58.7536001  34.2059469  64.7576618  27.6675296  49.2605352
  64.0362263  27.1571541  48.8927317  65.4611778  27.0309496  49.3872786
  29.9955344   3.3545488  50.9436703  29.7229099   3.3528408  50.0261164
  29.4329810   4.0079117  51.3594580  76.6039181  38.7971425  52.6577282
  76.5599298  39.5185447  52.0301342  77.2950888  38.2275939  52.3199034
  79.9474621  20.6787133   4.1343930  80.4796696  20.1951885   3.5025802
  79.6577311  20.0154519   4.7607899  51.9057512  39.1226196  54.7544384
  52.1243000  39.2334819  53.8291407  52.1926260  38.2336617  54.9634552
  41.4310360  22.1208382  23.8963199  40.4750538  22.1329260  23.8495708
  41.6436386  22.7237964  24.6086907  78.9363003  48.1619978  55.5826712
  78.1545639  47.6313114  55.4293823  79.1492319  48.0141830  56.5041065
  42.6178885  62.7029324  11.9432724  42.9528475  63.4725142  12.4034643
  41.6854811  62.6820326  12.1587121  34.4345093  48.8024616   9.5537531
  34.4147754  48.2815933   8.7509239  34.9584460  49.5710135   9.3278086
  39.9471235   1.9831850  30.5147624  39.3260717   1.3582306  30.1406503
  40.3340960   1.5205371  31.2580252   5.5135906  77.3942232  22.5415516
   4.9791592  78.1863070  22.5982785   6.0406625  77.5169468  21.7520165
  56.4970636  38.0679369  59.4100666  55.9533644  37.9049087  58.6393213
  56.0593176  38.7880468  59.8639965  71.1807775  57.6560402  66.2328196
  71.6983795  58.1511545  65.5978537  70.2719498  57.8589678  66.0112715
  68.8828611  15.6928182  23.8261056  68.0695486  15.2890825  24.1290116
  69.5745039  15.1907420  24.2571235  81.2685299  63.7124777  16.5084863
  81.1328316  64.6182060  16.7868316  82.0192623  63.4140539  17.0218837
   8.8495785  29.5490384  62.3160028   8.4627926  28.8448930  61.7956114
   8.1182611  29.9016023  62.8230572  18.7006259  65.0457335  12.6364374
  19.3729722  65.5238485  12.1510649  18.6020696  64.2213106  12.1601570
  18.0973148  36.2557697  38.5591483  17.7374625  36.9153833  37.9661489
  17.3367739  35.7487702  38.8433313  45.8366823  73.8900661  24.1053200
  45.3790712  73.1058598  23.8022542  46.7126608  73.5816383  24.3371964
  41.8176794  27.7380323  51.8497849  41.9350195  27.6926565  52.7986813
  41.0021925  28.2252860  51.7323208  15.8994055  50.8259201   8.9764315
  15.7501781  51.7068577   9.3198180  15.7484806  50.2484226   9.7247303
  32.7242899  51.3626385  61.1749744  33.2057571  50.5913353  60.8757877
  33.1729841  52.1002769  60.7616997  59.5336962  66.9704103  63.3742619
  59.1976738  67.3046112  64.2059040  59.3802118  67.6806402  62.7511692
  63.4485340  66.5838909  44.0661955  62.6419640  66.8751860  44.4914246
  64.1137505  66.6370440  44.7524118  71.8477631  54.4164801  23.9225101
  71.8974400  55.2351809  24.4159603  71.6648674  54.6894217  23.0234647
   7.0197213   1.2449636  62.3627901   6.8168402   0.3402832  62.6007509
   7.9747164   1.2950766  62.4040842  64.0562057  54.7445488  48.0404091
  63.9159775  55.1485300  47.1840382  64.9980879  54.5775700  48.0751228
  62.9413366  52.3201418  43.9533234  63.3312225  52.2937441  43.0795240
  62.0150089  52.5035954  43.7968302   6.2967652  43.1734800  43.7370825
   6.5660560  43.6048126  44.5480490   5.3402299  43.1721306  43.7727261
  33.3507204  12.9260087  16.8716824  33.1658578  12.0642638  17.2451174
  34.1742229  12.8100133  16.3977444  50.2029991  41.2242270  66.8974781
  51.1109877  41.2008524  67.1995449  50.2473974  41.6419172  66.0373640
  62.9778719  15.9146810  31.2827778  62.9811239  14.9663675  31.4128637
  62.4285030  16.2516403  31.9905090  42.8817129  25.1310658  49.4357252
  41.9553804  25.3595829  49.5126581  42.8925705  24.1739464  49.4294357
  56.6626406  74.9334002  50.5053091  57.3414707  74.2689610  50.3872252
  56.5901184  75.0357008  51.4542580   5.8629507  63.5007095  54.6458912
   6.6853464  63.9815903  54.7388887   5.2253413  64.1649771  54.3842936
   1.0447117  47.0739508  44.0124559   0.2082588  46.9833517  44.4689322
   1.5228403  47.7320528  44.5169640  25.7758307   9.7646803  10.1514459
  25.1408386  10.3870082  10.5060220  25.7234502   9.0092474  10.7369447
  65.6180048   9.7601563  64.6394730  65.8199167   8.8579494  64.8874378
  64.6637058   9.8146445  64.6902084  56.9989300  18.2414019  19.0796626
  56.7551088  17.4362934  18.6229539  57.3732328  17.9426646  19.9084473
   7.4280548  33.0501461  15.2589881   7.7400482  32.8662658  14.3729401
   7.8732115  32.4049735  15.8083713  43.4940338  61.2974262  57.1568871
  44.3990326  61.4299488  57.4391174  43.0783796  62.1513414  57.2764301
  77.2898960  12.5111079  35.4124284  76.3355446  12.5418806  35.4795218
  77.4980164  13.0988646  34.6861649  40.0653458  36.6586137  53.1184959
  39.3877792  36.1448789  52.6789331  39.8061633  37.5689197  52.9756689
  62.0190620  56.5854025  18.5729599  62.4012566  56.0635614  19.2785394
  61.0751915  56.4531136  18.6614704   3.7395161  11.5511000  32.9492402
   4.3347648  11.3433075  33.6694717   4.0786785  11.0515654  32.2064972
  74.8125410  63.7899351   3.0549935  75.7242727  64.0595007   3.1659704
  74.3423605  64.6039629   2.8746551  49.6512842  69.8757315   4.3850598
  49.9139547  70.4519272   3.6672631  49.5762444  70.4558849   5.1427031
  57.0661783  24.1972637  66.4855909  57.8326797  23.9900947  67.0201826
  56.4969969  23.4330845  66.5766954  74.5141125  26.7126393  63.6739063
  74.0500307  26.4848399  62.8683233  75.2923203  27.1842027  63.3768368
   1.5875192  71.4917517  13.6408806   2.5261757  71.5919304  13.7993753
   1.5040976  71.4935207  12.6873243  60.1688099  37.5921059   6.7733932
  60.2964497  38.5041332   6.5123433  60.9663725  37.3660922   7.2519743
   9.9355054  32.4780536  19.5438850   8.9790523  32.4576592  19.5757186
  10.1537538  32.1327615  18.6782217  80.0896645  75.4995823  18.7339437
  79.3890524  75.6309652  19.3727839  80.4144192  74.6170855  18.9127231
  38.8659859   7.4402589  20.0832081  38.7818694   6.9553119  19.2622435
  38.1257486   7.1444094  20.6130695  11.2724066  29.7079396   5.1113141
  10.8107460  30.4132605   4.6578559  12.1951091  29.9588513   5.0677764
  41.5762901  16.4686584  13.0933011  41.1162663  16.4093900  13.9306164
  41.2707424  17.2907388  12.7098191  17.6862860   5.3058225  59.2064810
  18.3406532   4.6072626  59.1994190  17.1298778   5.1204509  58.4499884
  59.1441870  24.1926360  24.6046448  60.0806236  24.1224241  24.4192123
  59.0157175  25.1102734  24.8447824  69.2170429  37.3711324  60.7096529
  69.9115324  37.9120779  61.0855341  69.1779041  37.6361108  59.7906923
   8.6923844  40.1136827   6.1030120   7.7353901  40.1034594   6.1200231
   8.9145815  40.8939219   5.5949867  52.4104118  71.1656094  60.1658964
  52.8867674  70.4780817  59.7004747  52.4086857  70.8795166  61.0793400
  33.5853601  56.9929123  26.7023945  33.3435607  56.0672855  26.7337012
  34.5074368  56.9910288  26.4454818  52.2178173  27.4896669  30.7900381
  51.4023447  27.8104615  31.1751723  52.0210457  27.3935032  29.8582292
  20.1701665  35.2325535   4.6518573  20.7087731  35.7670808   5.2353096
  19.2695963  35.4312801   4.9082047   1.5029643  35.1732445  49.8509836
   1.9417275  34.9278164  49.0364361   1.1306487  36.0366583  49.6717358
  21.1046839  66.8248749  62.6674843  20.6141901  66.0219383  62.4915791
  21.1469817  67.2699785  61.8211222  79.2221832  20.6456017  59.9071980
  78.5248041  20.7289004  59.2568445  79.0180206  19.8357987  60.3749228
  72.4807835   0.4293362  55.1792288  72.2627211   1.2505996  54.7385406
  72.7987623   0.6972512  56.0414028  27.4918127  54.0520716  24.5935392
  27.7363300  53.5549164  25.3741050  28.1355929  53.7940645  23.9338350
  22.8016472  29.5009637  55.5298662  22.9819393  30.3000879  55.0347662
  23.0103636  28.7908983  54.9228430  43.9206982  67.0185232  44.5135117
  43.2976770  67.6246357  44.1126251  44.0811539  67.3813677  45.3846169
  47.0161152   9.0771031  57.6070356  46.2904835   9.5552641  58.0083513
  46.8489122   9.1334969  56.6662407  20.1767396  43.4352122   0.5356222
  20.7558058  43.9124836  -0.0586218  19.4024132  43.9923943   0.6143862
  67.0429039  43.9632893   1.5632737  66.9907475  43.9034414   0.6093712
  67.8435373  44.4611645   1.7286019  40.7711697  16.5910494  28.0387902
  40.8594084  17.3044205  28.6708879  40.9343624  15.7976186  28.5487556
  24.7384667  33.2137728   6.2864751  24.9544501  32.6321554   7.0153791
  24.4204688  32.6284266   5.5991048  71.8667555  15.0308979  64.5481157
  71.6755772  15.8602047  64.1100168  71.4561129  15.1144147  65.4087162
  16.2876821  53.4645367  23.1982279  15.4096889  53.5769939  22.8339314
  16.1629915  53.5212564  24.1455770  10.1778817  60.2207088  33.0354667
  10.2658832  60.9697962  32.4460936  10.1137960  59.4638681  32.4529552
  67.4600554  19.2793107   6.1311197  66.6718721  19.1389060   5.6064391
  67.6337385  20.2176237   6.0560632  72.8258419  29.9538541  35.6736708
  72.4940872  29.0911269  35.9224105  72.2099209  30.5705309  36.0693741
  51.9899130   8.1610882  40.0747871  51.9035721   8.2079422  39.1226435
  51.3570118   8.7990975  40.4043579  67.5062132  61.8338680  62.3812771
  68.3198357  62.3380423  62.3888397  67.6721859  61.1205482  61.7649460
   4.8430228  63.7607813  49.3446255   4.2197996  64.4069099  49.6767950
   5.3217721  63.4689093  50.1204109  30.7691193  67.9092693  45.8806801
  30.7593584  67.8102016  44.9286699  30.3347874  68.7474918  46.0387230
  23.0533719  47.1787500  28.2082963  22.9527664  48.0984354  28.4538364
  22.9665089  46.6999006  29.0325475  10.8309245  64.6291542   1.9554110
  10.3239357  64.3406296   1.1964986  10.3760076  65.4130077   2.2634020
  29.3107748  19.5847130   8.7921876  28.4756517  19.2851853   9.1514742
  29.3957949  19.1167080   7.9615408  40.4335785  75.0068998  21.0097027
  41.2296677  75.5360317  20.9597230  40.6099796  74.3739700  21.7057729
   2.9079700  21.0568500   6.9489563   2.7084026  21.9847178   6.8245894
   3.8229319  21.0442114   7.2298771  82.2498861  44.7919388  -0.2386231
  82.3625723  45.2669264   0.5847364  81.3124195  44.6030153  -0.2797741
   7.7352422  55.0790977  22.8347182   8.2757747  55.6458712  23.3850145
   7.1319139  55.6776285  22.3942780  55.6933928  28.9582109  15.9271932
  56.2495661  28.7280703  16.6714633  56.2566137  29.4865918  15.3616631
  27.3130894  43.1139135  38.9851665  27.3161483  42.2080851  39.2945218
  28.1595421  43.4645224  39.2623281  65.9349108  74.5511580  49.5016289
  66.8297577  74.4227886  49.1869831  65.5659342  75.2091551  48.9124489
  70.2369928   0.9494026  65.4954672  70.2163553   1.5974566  64.7913122
  69.4023991   0.4868411  65.4197979  43.0720234  56.5507507  39.0605569
  43.1422806  55.6275129  39.3033195  42.1305561  56.7093611  38.9918566
  21.4508581  27.8255725   4.2584234  21.4125967  28.7811732   4.2184731
  21.9250751  27.6385188   5.0685841  18.9180577  59.3868017  23.6899686
  19.3347096  58.7436867  23.1163549  18.0196202  59.4502592  23.3659101
   5.4200202  34.5288301  23.2147670   5.3686696  35.4563975  22.9840922
   6.0327643  34.4983101  23.9495087  19.7556114  24.9842143  23.1159711
  20.1668167  24.9439287  23.9794064  18.8902545  24.5957756  23.2444453
  81.1227894  11.9314826  31.1220074  82.0157528  11.6215575  30.9710097
  80.6972218  11.8613744  30.2674866  76.6589308   2.5812888  59.6864748
  76.3497829   2.2885007  58.8291931  75.9090185   3.0371562  60.0686359
  61.4836884  18.4144342  14.0852857  61.8832684  18.8504434  14.8379219
  62.0913363  18.5771358  13.3638132  51.5334272  67.4143744  12.6300406
  51.8937063  68.0292177  11.9909811  52.2979355  67.0837116  13.1016552
   8.8515824  67.5080156  53.6139870   9.5882344  67.5968552  53.0092716
   8.6336374  68.4071064  53.8596964  39.3977308  39.6865296  36.8509459
  40.0214052  40.3259945  37.1949577  39.9445868  39.0027356  36.4641595
  33.6887407  14.0109301  58.3031845  33.4361959  13.1305695  58.5814285
  33.3270979  14.5877492  58.9760351  19.6251822  41.6727734  24.4385147
  18.7193334  41.3889170  24.3156481  19.9913466  41.0431147  25.0595498
  18.5182714  13.0095375   8.7904215  18.0523539  13.3153605   9.5686406
  18.8920188  13.8032866   8.4076595   9.4303674  40.2639580  16.7738843
   9.0934384  39.9871922  15.9217632   9.0232712  39.6639442  17.3987782
  35.1097798  65.9073496  36.6149259  34.5057750  65.8053493  35.8793950
  35.7861805  66.5009737  36.2888503  57.0442581   1.9252649  60.1496887
  57.9423714   1.6248491  60.2888775  56.7394543   2.1805830  61.0203981
  68.4835434  47.8492212  38.0185795  68.6663866  47.6730204  38.9414859
  69.0981436  48.5435057  37.7809596  10.5539024  15.3998768  32.3190808
  10.9200132  16.1858571  32.7245808  11.3185060  14.8827040  32.0658064
  23.4579396  48.8276720   5.6627154  22.7129269  49.3776941   5.4205054
  24.0204310  48.8316965   4.8882353  81.0070182  35.8682537  25.7855940
  80.7936917  35.5119348  24.9231791  81.4964990  35.1692176  26.2191701
  71.9955492  50.0459337  12.8916335  72.1521139  50.9683990  12.6897013
  71.5634489  49.6998119  12.1107852  12.6624143  41.5698004   9.3080324
  12.0102859  41.1869335   8.7211978  13.2947874  40.8663988   9.4548851
  14.6364689  58.0415821  15.4982853  14.6882403  58.0433798  16.4540827
  14.5625103  57.1164083  15.2641642  22.0786262  30.1795697  14.5245719
  22.5823116  29.4191003  14.8147786  22.5163531  30.9266663  14.9325860
  45.8072996  10.5322361  60.7835102  45.6568861  11.1742198  60.0896311
  44.9347448  10.2019215  60.9974527  54.5409012  76.0546541  65.2383947
  53.9923286  76.8384218  65.2701616  54.9699306  76.0970688  64.3837786
  23.9637351  44.8065805   9.7853464  23.3819628  45.4061127   9.3180799
  24.8107386  45.2523947   9.7934318  50.2805662   2.1880692  35.3419209
  50.8083105   2.8673965  35.7617188  49.9207306   1.6805828  36.0693860
   4.7830197   2.5232673  30.7559276   4.6630177   3.0344307  31.5562654
   4.4523764   3.0892718  30.0583982  64.1209602  48.7667704  13.3953404
  64.3194246  49.6811962  13.5969913  64.9029112  48.4453154  12.9465067
  75.8574438   4.2477602  54.1480350  75.7469702   4.5760322  53.2556963
  75.5600548   3.3388376  54.1073990  44.6966791  16.1246204  60.1212120
  45.0994873  16.9100833  60.4913855  43.8113689  16.3992834  59.8824358
  11.4845848  59.1691303  21.9275451  10.5784500  59.2393255  22.2279191
  11.9274259  59.9189043  22.3249888  81.7162418  30.3092694  58.8675117
  82.0529842  30.4298615  59.7553730  82.4988365  30.1993585  58.3274174
  37.2224760  71.2561083  45.6159782  37.3213768  71.4794302  44.6904659
  38.0784559  71.4446592  46.0006571  43.4430218  33.9855886  11.5097594
  44.0397215  33.6434126  10.8441031  43.2515192  33.2329965  12.0693696
  13.9258218  20.9745002  33.0097961  13.0230629  20.6715107  33.1070471
  13.8533831  21.9268990  32.9471874  23.5492182  45.1917934  34.4004893
  23.7358236  45.5545378  33.5345650  22.5967336  45.2419806  34.4810128
  46.6707945  20.2500010  24.4338393  46.7111492  21.2006354  24.5382237
  47.1809864  20.0739813  23.6433005  18.0750394  34.2121863  18.6492062
  17.1306551  34.3640685  18.6852860  18.4309840  34.7474599  19.3584418
  16.3169765  30.3980422  24.2321968  16.4576352  30.2880597  25.1725960
  16.4436638  31.3343668  24.0789652  66.9688177  50.7666063  49.5394897
  67.2632217  51.5341473  49.0491486  67.5668669  50.7148314  50.2850723
  33.9794803  24.2589259   7.6176775  33.2318878  24.8258805   7.8071493
  33.6854053  23.3831072   7.8680694  26.6465878   5.8305383  65.2444506
  26.0325813   6.5015513  65.5427217  27.1254945   5.5764335  66.0333157
  65.3232718  59.9529123  36.0581827  64.5318365  60.1860762  36.5434623
  65.6702995  59.1889429  36.5187836   4.3700331  67.6568556   3.9453301
   3.8861641  68.4658241   4.1116771   4.4146457  67.5963593   2.9910859
  30.4436088  43.7726641  19.7584867  29.4893265  43.8347912  19.7999239
  30.7455111  44.1773748  20.5716872  42.1677780   3.0359539  24.1206574
  42.5115490   3.2329383  24.9920082  41.2408972   2.8462893  24.2661071
  15.9432817  41.1677313  32.0126915  16.8370938  41.2978601  31.6958356
  15.4278743  41.8319893  31.5551448  57.1272612  77.7722406  15.0708365
  57.6422787  77.6938057  14.2678189  56.9935989  76.8692255  15.3588116
   8.8273561  42.6358461  23.7571740   8.9495760  43.5006571  23.3655167
   8.4979433  42.0929337  23.0409551  82.3245049  38.5061288  25.7224965
  81.7057133  37.7879310  25.5901361  82.2323990  39.0490007  24.9395275
  74.6860695  10.3741121  40.6232214  75.1462221  10.1561189  39.8126793
  73.8631058  10.7675171  40.3330612  80.1357937  74.5706511  38.5922384
  79.7760630  73.8140821  38.1291747  80.0143147  75.3020144  37.9867792
  81.7971992   9.0751058  43.5159731  81.4847946   9.3625963  42.6580763
  81.5588951   8.1490743  43.5596657   2.4106123  50.2549458   8.2370418
   2.9242408  50.5073023   7.4697530   1.5623316  50.6790495   8.1074774
  18.9585316  66.6555023  21.5892911  18.6694896  67.4634695  22.0134091
  19.7097301  66.3680744  22.1082497  75.6328154  60.7208204  12.0982921
  75.3125048  59.8449564  11.8826663  74.8794985  61.1612034  12.4917459
  44.0305138   4.1429240  41.9902754  43.1293488   4.0294883  41.6881752
  44.5580482   4.0966815  41.1929035  72.4854326  30.9628773  15.5365121
  71.9006205  30.2112198  15.4404068  71.9382381  31.6435146  15.9283555
  59.6433496   0.8198870  61.3197184  60.1270533   0.8156017  62.1457005
  59.7590542  -0.0635213  60.9698153  41.0304785  11.9611406  18.7825906
  40.4571390  11.2157297  18.6040425  41.9159985  11.6104209  18.6873162
  30.8051872  41.3689232  34.8257065  30.1600623  41.9870806  34.4822979
  30.6397629  40.5581284  34.3445897  35.6357741  53.9882278  12.5749111
  36.4364529  54.2991400  12.9973781  35.1638174  54.7868633  12.3389602
   7.0160908  69.5911217   9.4868040   6.2850893  69.1644621   9.0397811
   7.2189206  69.0115833  10.2211249  80.1897717  72.9546499   7.3437881
  80.6981277  73.0136061   8.1526977  79.4960451  72.3256731   7.5421751
  12.4483347  44.2324257  13.8054681  11.9556403  44.1419792  14.6211290
  12.4005163  43.3668852  13.3995306  73.5934973  73.9936638  66.1602736
  72.6802492  73.7452173  66.3033819  73.6916494  74.8240328  66.6262007
  57.0807076  68.1042004  65.1971006  56.4931679  68.4631443  64.5321274
  56.9609737  68.6752558  65.9559107  49.7415686   7.2700924   8.2188302
  50.4209757   7.9290378   8.0759132  49.6512318   7.2217232   9.1705298
   4.7288889  49.0715885  28.9604449   4.1462034  49.2206049  28.2157946
   4.8930013  49.9455118  29.3147898  42.7148056  14.3948936  11.6491175
  43.0594540  14.1933501  12.5190771  42.6490021  15.3496909  11.6328537
   7.1732002  57.9026937   3.6417678   6.9926018  57.4433708   4.4619143
   7.5670260  58.7317944   3.9132887  48.8463926  60.7479763  15.4026568
  49.2212391  60.5693913  16.2651110  49.3754435  60.2265835  14.7989297
  16.4547157  48.0083418   7.0517832  15.6611645  47.7043009   7.4923140
  16.3553941  48.9594030   7.0088428  42.6125383   8.7962329  66.6683054
  42.0077848   8.1017083  66.4072657  42.0463276   9.5018464  66.9809532
  16.0960948  54.7045612  47.4963951  15.5416596  54.0043497  47.8406858
  15.7059908  55.5089998  47.8383493  41.3966894  52.1273184  27.6416993
  42.1174049  52.5633717  27.1871042  41.1533689  51.4028549  27.0653462
  46.0348129  67.8132677  11.4109051  46.1474800  68.7484312  11.5812206
  45.3991079  67.7748442  10.6963158  15.0143087  39.6239734   9.7882801
  15.9528351  39.7984338   9.7178274  14.9586511  38.6890197   9.9857533
  60.9835672  16.7417419  54.8064280  61.6552162  16.3118196  54.2770052
  60.2615070  16.8968379  54.1974831  76.3265562   9.4184029  57.0877790
  76.6290283  10.2178121  57.5186968  76.8581629   8.7223262  57.4739170
  67.2227192   3.7073457  16.4583135  66.4735699   4.3029568  16.4424145
  67.0180035   3.0472600  15.7960367  61.6197109  19.4976962  28.8410735
  61.8261194  20.3516984  29.2209482  62.4715853  19.1228187  28.6174488
  63.9344692  14.6120429  24.1445017  63.0612707  14.2612708  23.9692664
  63.8920164  14.9188566  25.0502014  67.4572086  70.2675295   7.6296318
  66.7104149  70.5968714   8.1296921  68.1662273  70.8795786   7.8269178
  54.1064677  77.8951433  30.2991652  53.6344179  77.7229187  29.4844651
  53.4282717  78.1732124  30.9147549  72.5226212  41.4508629  62.5281620
  71.9599724  40.7241631  62.7956867  72.7459240  41.8946552  63.3463430
  19.1675007  76.6495132  20.4091859  19.6892583  75.8472729  20.4293203
  19.7616923  77.3296928  20.7262421  21.5546751   7.1683621   9.9615139
  21.7324758   6.2280011   9.9799395  21.4378262   7.3718864   9.0335292
  77.7626705  16.8023980  42.3205233  77.3632336  17.3087752  41.6132307
  77.0623779  16.6966701  42.9644537  71.7880440  20.7648849  14.2726147
  71.8410349  19.8091948  14.2636979  70.8545256  20.9539032  14.1775167
  26.5354776  30.2777076  52.0613432  26.0917211  30.1026249  52.8911972
  27.2279978  29.6184516  52.0163059  77.5918770  73.2385921  43.1353712
  78.5245657  73.4272861  43.2389307  77.3710251  72.6987076  43.8943052
  12.7874124  37.3532724  57.0543051  12.1549845  37.4764252  56.3464212
  12.3148155  37.6121354  57.8454256   6.5161031  71.2155342  14.1589046
   7.2612458  70.7942009  14.5872438   6.0957646  70.5126095  13.6634779
  41.9150925  45.5678272  13.3512735  41.7173243  45.9302664  12.4877000
  42.2432566  46.3130951  13.8543832  32.8889823  29.6798277  22.4952078
  32.7923036  30.2627826  21.7421818  33.4489107  30.1636696  23.1023383
  17.0087397   3.9750990  26.7330623  17.2349584   3.1579626  27.1772981
  16.4392233   3.7061399  26.0122681  70.1688528   2.8844169  47.1766710
  69.3417215   3.3661288  47.1704817  70.7409573   3.3833352  46.5935659
  51.4541340  19.9651432  64.1455841  51.8423367  19.2366850  64.6302271
  51.3846493  19.6445692  63.2463408   7.6728481   4.8556495   4.2408013
   8.2337987   5.2614856   3.5798448   8.1953955   4.1322145   4.5869482
  28.7951946  58.2911730  14.1677487  28.5769248  58.9975500  13.5597861
  29.5406103  58.6259794  14.6662378  40.4604483  76.2593651  17.4359274
  40.0010967  75.6005287  17.9566634  39.8470974  76.9922447  17.3818588
  73.6914062  38.3307576  58.2907963  74.5996809  38.5063648  58.5366201
  73.3575869  39.1753101  57.9882622  43.6293364   2.3506348  51.0879517
  43.1029749   1.6868603  50.6423330  43.6158562   3.1034774  50.4969549
  14.5732939  55.1733732   4.4572043  14.5998573  56.0561085   4.0880027
  14.9514651  54.6173573   3.7759829  44.9494839  76.2665510  18.7388742
  44.0775824  76.6016006  18.5296869  45.0259304  76.3732147  19.6870363
  54.7433281  49.5807123  23.0872488  54.1539288  50.1528835  23.5786343
  54.2170954  48.8052273  22.8924656  79.5902395  14.1778791  16.2052453
  80.4215527  13.7148726  16.1014390  78.9240170  13.4957826  16.1208332
  49.6284723  55.1940870  15.5955076  48.9740515  54.6049261  15.9708095
  49.5520067  55.9967566  16.1113632  42.2805119  12.7509236  40.6334066
  42.6827192  12.0579767  41.1571312  42.8035164  12.7798259  39.8322439
  38.0901217  17.4080181  48.1089830  37.2180200  17.0302510  47.9951334
  38.3861041  17.5997961  47.2191238  32.4081731  64.7337151   5.8481669
  33.3011794  65.0776720   5.8264971  31.8712616  65.4383087   5.4855299
  64.1655970  25.1931119  37.9539990  63.9421129  26.0727096  37.6497006
  63.6778259  25.0912809  38.7712765  79.3538666  66.0168886  36.7216301
  79.0123463  66.1337996  37.6081562  78.5883284  65.7761955  36.1998558
  18.3407354  41.5654135  30.8518171  18.5942078  41.7040730  29.9392605
  19.1564047  41.3296604  31.2937856  69.3574381   2.0552500  36.2019110
  70.3141832   2.0674448  36.1751556  69.1071367   2.9783228  36.2408757
  18.0641699  32.9058123  48.7767792  18.9078140  33.3316016  48.6244631
  17.7564979  33.2733774  49.6053123   1.6291647  41.5951490  24.2283487
   1.4191914  42.1248293  24.9974942   1.1137516  41.9840860  23.5217285
  13.3423948  56.9872570  12.4294710  13.5449135  56.2907410  11.8049073
  13.5508406  57.7961493  11.9620538   6.1328477  67.0443678  18.6672783
   6.1456752  67.7874708  18.0640638   5.5970383  66.3860035  18.2249069
  20.8279324  29.9240017  62.2107697  20.1617408  29.2403865  62.1394300
  20.5295396  30.6122065  61.6161537  34.7828650  53.9818907   8.6295414
  34.2541671  54.7635126   8.4689987  35.6496215  54.2051744   8.2902646
  45.1907444  77.4027300  51.4360380  44.5125771  77.0289516  50.8733559
  45.9205055  77.5837946  50.8436728  19.4187999  23.1344509  52.8535557
  19.3940067  23.6179686  52.0278263  19.6275747  22.2357392  52.5986767
  19.0653992  53.9467525  22.5486064  19.3428934  53.9906979  23.4636474
  18.1148207  53.8427973  22.5913239  50.9708357  37.6907825  20.2710390
  51.1295938  36.8246770  19.8956859  50.1942921  38.0118132  19.8126173
  28.4518623  67.0924282  10.0242412  29.2290258  67.2809029  10.5502927
  28.2903647  67.9006338   9.5374572  35.1422524  54.3976355  31.4699483
  35.8532000  53.7885332  31.2705112  35.3505707  55.1829052  30.9637952
  29.2585063  63.1316280   4.2595494  29.9077702  62.7546978   4.8533607
  29.7707176  63.4535503   3.5177681   1.6961996  58.5571384  12.3153353
   1.2705763  59.0717030  11.6295505   2.4987853  58.2319260  11.9075084
  62.6995993   0.3327322  28.5179281  62.4641705   1.2384377  28.3166718
  63.5744429   0.3922980  28.9017606  23.2587609  78.0076262  10.5996668
  22.6673636  78.5143334  11.1561954  23.0893358  77.0960848  10.8376110
  29.5601177  36.7012024  22.3151684  29.0906310  35.8918691  22.5171471
  30.3081989  36.4191580  21.7888069   1.0425434  21.1546445  65.2444267
   1.7680721  21.5931463  65.6889009   1.4403453  20.3837538  64.8398161
  62.9007292  62.5661945  19.3143022  62.5182581  62.5908232  20.1914239
  63.1595087  61.6528702  19.1914093  34.8392987  39.4326067  10.3410602
  35.3223062  38.9446163   9.6741283  35.4191995  40.1575279  10.5743706
  46.8987656  49.4210482  12.9093456  47.6218081  50.0481272  12.9241240
  46.9443989  49.0233231  12.0398843  36.7966366  16.7603207  24.0356827
  37.0803189  15.8806491  23.7868166  37.3216081  16.9718480  24.8076248
   6.9013357   9.5172322  58.8946772   6.1387658   9.5292807  59.4730997
   6.5497816   9.7309178  58.0303955  31.5349722  51.4890385   3.3798873
  31.6076899  52.3794222   3.0361345  31.1443496  50.9872484   2.6644522
  32.2407556  65.9059143  47.6178360  32.8433251  65.7624292  48.3475971
  32.2431016  66.8542910  47.4882078  11.1681283  73.5886955   7.6716983
  10.2960968  73.4127522   7.3183763  11.3010502  74.5253706   7.5260699
  54.3490553  44.1712046   0.5088772  53.6661673  43.5150671   0.3696754
  54.8801899  43.8165617   1.2218709  79.1816664  15.3633332  40.5223322
  80.1154900  15.3160810  40.7272291  78.7713814  15.6479764  41.3389540
   4.3927032  46.5077829  14.3437386   5.1785648  46.3816071  14.8754656
   4.7231370  46.6353464  13.4544849  25.7426119  67.4011374  13.3199894
  24.8572707  67.5359678  13.6579609  26.1094093  68.2825661  13.2508647
  26.9771791  39.7601581  61.4703941  27.5106478  39.0860033  61.8912983
  27.2357297  40.5743885  61.9021463  51.1358690  59.1167068  10.9701908
  51.0510063  60.0632095  11.0849333  52.0606756  58.9825392  10.7628977
  13.5511971  29.4461179   9.8386812  13.7648940  30.3091168  10.1933622
  13.1929493  28.9631081  10.5833900  18.6927199  20.0681663  46.6195154
  18.2482636  20.4380250  45.8566952  18.7232327  20.7870197  47.2508240
  28.0920410  49.0144539   1.7817080  29.0170193  49.2463064   1.6986753
  28.0128670  48.1775570   1.3239287  80.3974724  14.4499278  19.3208063
  80.3800106  14.7570837  20.2272177  79.6406412  13.8681388  19.2504442
  40.6920528  36.8542576  16.8151593  41.1248446  37.2659779  16.0672247
  39.7966099  36.6958094  16.5163124   1.0314517  18.0349505  66.2758398
   1.6429791  18.3962536  65.6341791   0.1795495  18.3889818  66.0205793
  68.6537218  29.8143744  50.5469084  69.3503094  29.6958685  51.1926317
  67.8496408  29.6000957  51.0199547  32.2441840  57.5022697   6.2753242
  33.0491447  57.8417730   5.8841628  31.7850590  58.2802486   6.5918422
  33.9018536  29.8190308  38.9863634  33.4934258  29.9412513  38.1293440
  33.5810924  30.5523586  39.5113182  59.9755907  65.7574081   3.3594379
  59.6081352  66.4748049   2.8431499  59.6051359  65.8773756   4.2338538
  58.0346489  15.5720270  41.5283966  57.9384804  15.7660496  40.5960178
  58.4607315  16.3482809  41.8918705   4.6749300  55.4892015   9.2352754
   5.3938305  56.1106968   9.1205573   3.9643830  55.8435488   8.7006778
  69.5275497  17.6926064  18.8523233  68.7487125  17.6149082  18.3013213
  69.2176056  17.4902189  19.7350490  24.6118522  60.1298332   5.7604128
  25.1493454  59.6149540   5.1585531  24.1137362  60.7182741   5.1930940
  50.3999853  68.2006502   8.1786650  50.9642649  67.8644228   7.4824095
  49.6161652  67.6527977   8.1372553  45.0695324   1.4719921  21.7841983
  44.2638969   1.6897798  21.3154244  44.8788166   0.6380358  22.2135878
  14.3126726  60.7556105   6.7747486  14.6766436  60.7890749   7.6594162
  14.3780839  61.6553259   6.4546549  61.6778040  72.8047228  61.3464975
  62.3516798  73.4845209  61.3461494  61.3840771  72.7581739  60.4366684
  28.5735393  40.7757998   2.6640800  27.8665924  40.7930803   3.3091849
  29.0962005  41.5532446   2.8606296  67.3849154  37.0147562  19.3129385
  68.0396748  36.6952705  18.6920941  67.8864670  37.5257564  19.9482012
  57.6424837  69.0172243  55.8009577  57.8615189  69.3396235  56.6752100
  58.2169867  68.2623434  55.6731653  61.6195488  41.7989540   8.2610446
  61.4029551  41.4626360   9.1306496  62.4566936  42.2477198   8.3794725
   7.4686241  72.4017763   9.4010663   7.4411613  72.4972343  10.3530979
   7.4632925  71.4558125   9.2549497  26.4784527  10.4038239  60.5820704
  25.6858397  10.6575406  61.0549593  26.2505722  10.5097890  59.6584511
  39.7521377  55.7951641  30.7891178  39.9917054  56.4286757  31.4655042
  40.4993057  55.7894945  30.1908398  38.4052634  16.6306961  21.0587049
  38.9601731  16.0337961  21.5607214  37.7292871  16.9068646  21.6775894
  42.4154091  57.1763515   9.2953020  42.6769686  58.0826330   9.4580191
  43.1330967  56.8088770   8.7794352  32.0217705  32.6926732  16.5349400
  32.8646231  32.2597528  16.6706300  32.2487569  33.5991168  16.3274062
  50.8727169  19.8798668  15.8779252  50.9829569  20.7536006  15.5028677
  51.7103195  19.4441712  15.7203925  56.5055227   8.8994497   9.9513984
  56.2063217   9.7622287  10.2383161  57.0985699   8.6089563  10.6443202
  62.7641630  14.4444489   7.2433525  62.6445675  14.3332672   6.3001835
  63.5253620  13.9035463   7.4536711  36.7215705  14.3989980  60.2677870
  36.8875599  13.4595549  60.1895142  37.5295353  14.7549915  60.6375074
  46.1560774   3.9973143  28.4481144  46.3349676   4.8399311  28.0307078
  46.6718626   3.3667615  27.9455185  40.7471132  49.8802423   3.2593468
  41.0924387  49.0622568   3.6169624  40.4053926  50.3491020   4.0206787
  39.3416858  57.6458979  18.5710680  39.0662384  56.7307472  18.5175753
  39.9987864  57.7389574  17.8812909  40.1594019   6.8227404  11.8058538
  39.6069884   6.9356763  12.5793636  40.9329462   6.3609761  12.1293211
  64.4191790  68.9841461  32.2531533  64.7550154  68.4363890  32.9626656
  63.8950348  69.6526814  32.6942468  68.4417772  51.9392967  52.1343327
  68.0216217  52.7442598  52.4372101  69.2489767  52.2343731  51.7129183
  82.2620201  19.4477439  19.7913623  82.4997902  18.9019585  19.0418160
  81.3197136  19.3151546  19.8948658  59.4933653  73.8351679  63.4097910
  59.9965763  74.0562534  64.1934586  60.1540041  73.5876799  62.7628469
  25.4711103  50.1324463  63.5572386  25.4778194  50.3106499  62.6167965
  25.2554083  49.2022038  63.6232138  18.2405078  59.0088129   8.9078730
  18.3493423  59.9552107   8.8145280  18.6972392  58.6394978   8.1520712
  56.0174942  28.1038642   2.8151381  56.8012285  28.3475375   2.3225775
  55.7565308  27.2594380   2.4476126  24.5540643  57.4404526  37.7020931
  24.8085189  57.4140596  36.7797112  24.2599750  56.5502119  37.8949928
  22.3118329  57.5764942   4.8262304  22.6662517  58.0905104   4.1006923
  23.0814934  57.1920681   5.2458411  50.4052114  72.5751305  14.9467504
  50.8250380  73.3533525  14.5802045  49.6601248  72.9156733  15.4418337
  54.7690582   2.1076547  18.5025501  55.5371618   2.5978422  18.2093573
  54.9678612   1.1973415  18.2833719  64.6500540  52.7885389  60.2552271
  64.3094397  53.1343508  59.4302273  64.8644972  53.5661602  60.7705402
  42.3653030  42.8161955  17.1591353  42.5329113  41.8738508  17.1707737
  42.7928877  43.1256676  16.3606179  51.4867496  40.2692413  57.2062016
  51.3303185  39.4559216  57.6860619  51.8024349  39.9844265  56.3486099
  31.7947674  75.6343985  34.8069382  32.1052241  75.3880310  33.9356446
  32.2171187  76.4751816  34.9828172   0.8788370  29.0620470  45.9596252
   0.4268593  29.7999454  45.5504131   0.1835068  28.5633826  46.3886690
  58.7117195  28.7653518  60.8155775  59.2730618  29.5268989  60.6700754
  58.7639427  28.6058593  61.7579508  29.1608596   3.8755152  12.2910845
  29.8082566   4.3258569  12.8335810  29.6602106   3.5516438  11.5414262
  60.4185486   6.3322639  57.9018593  61.0121346   5.7686752  58.3981037
  60.1396704   5.7934403  57.1615028  32.5024557  45.6836414  18.9514697
  32.0845079  46.4484453  19.3472302  31.7809796  45.0785065  18.7796795
  79.7564936  14.0755594  60.6340361  79.3358755  13.6337614  61.3716841
  79.2114210  14.8459220  60.4738188  62.7387486  63.1967008  67.2619418
  63.0256997  62.4048197  67.7167116  63.4983955  63.4644807  66.7447733
  79.6898746  16.9920611  59.4371653  80.2465820  17.6008844  59.9225950
  78.9905596  17.5395679  59.0802002  55.0415850  31.4463305  51.2147331
  54.8665047  30.5268955  51.0141802  55.3815317  31.8093419  50.3968716
  44.7533703  52.7768993   4.9822950  44.9296951  53.1022453   5.8650708
  45.3356838  53.2861853   4.4185847  11.2600029  68.3043718  47.6845884
  12.1656823  68.4546566  47.4136829  10.8036387  68.0715752  46.8760300
  55.5003834   2.4189432   4.8407692  55.4992819   3.3723426   4.9259743
  55.7324219   2.1007751   5.7132137  62.8216362  15.0653124  53.7063026
  63.7574148  15.2616298  53.7510777  62.7036905  14.3241894  54.3004894
  65.8788204  34.5628166  12.0013523  64.9256468  34.6502352  11.9942033
  66.1563492  35.0307512  12.7889097  81.5847492  62.2814465  47.6882505
  82.3299313  62.8820753  47.7020454  81.6866302  61.7551327  48.4812498
  20.6961393  60.5751371  56.6514111  20.4003644  61.3721085  57.0913935
  21.0252333  60.8770132  55.8047676  11.6579640  42.4282885  44.4035244
  12.0952094  42.2418880  43.5726786  10.7271338  42.4595213  44.1825914
  21.2957454   3.5693434  54.9505997  21.5510440   4.4893184  54.8820448
  20.4052687   3.5411733  54.6006155  18.1876791  14.1402411  29.7430754
  18.6754918  14.8179030  29.2750549  18.5543513  14.1486108  30.6272221
   7.0078534  15.6989956  35.3078294   7.4256343  14.8482645  35.4418015
   7.5281674  16.3067532  35.8333182  75.8431387  32.9471159  56.8841696
  76.1665106  32.2910333  56.2667370  75.9146881  32.5257778  57.7406645
  70.7092237  16.9236982   4.4389948  70.2170992  16.1127436   4.3109256
  70.0547457  17.6169956   4.3539599  72.5928402   4.0587795  51.5853262
  72.8196907   3.5158163  50.8303690  71.8626499   4.5981061  51.2817049
  62.4289465  69.5139694  64.9194384  61.7586327  70.0908470  65.2856684
  62.6113224  69.8783350  64.0532923  17.6897824  64.6789837   8.7593323
  18.6259222  64.4936323   8.8336182  17.2709608  64.0247107   9.3185657
  25.2124047  39.5332408  65.2950716  24.4991398  40.1537514  65.4449129
  25.9858036  40.0830889  65.1695585  35.2698922  55.5608606  23.6458302
  36.0761642  55.8563757  24.0687108  35.5436993  55.2935600  22.7684402
  28.8537931  69.0295267  13.5510957  29.5121169  68.7875462  14.2024684
  29.0655231  68.4942818  12.7863002   5.3509283  13.2857239  61.7090321
   5.3838438  13.3360970  60.7537270   4.8719597  12.4769473  61.8898678
  10.6842029  29.1962981  26.4429331  11.0023415  28.7580538  27.2322130
  10.6912279  30.1270175  26.6664124  38.8038397  22.4873185  23.2299614
  38.3189368  23.0136085  22.5942588  39.1639042  21.7638278  22.7169800
   3.6328745  25.9652376  59.4476414   4.0918070  25.3438187  60.0128365
   4.0940237  25.9132981  58.6104584  65.2412081  30.0315928  47.7429342
  66.0782862  30.0667500  47.2800207  65.0638819  29.0966821  47.8465271
  80.5757523  35.7320380   9.8283774  80.2394581  34.9534392  10.2721310
  80.1222515  35.7419753   8.9854848  75.6106234   1.6274765  57.2520828
  75.6181002   0.6985962  57.4830770  74.7433901   1.9333716  57.5177383
  21.3194966  66.1332989   2.9678938  21.3634109  66.8449259   2.3292300
  21.7721939  66.4751482   3.7388915  76.8563128  31.3867736  38.0494499
  77.7478218  31.4000726  37.7012157  76.4622307  32.1984577  37.7299166
  15.0452983   7.0139796  57.5589514  14.6567142   6.4616299  58.2372904
  15.2821314   7.8218460  58.0144691  23.6183262   1.3275446  41.4045000
  24.1697454   0.8781927  40.7639885  23.2099247   0.6218448  41.9059229
  66.7807484  69.7090006  30.9679151  66.5671682  70.3386545  30.2793288
  65.9308863  69.4028330  31.2844992  11.7301810  65.0574112   5.4809642
  11.7232716  64.3521881   6.1281461  10.8258533  65.3702927   5.4580051
  12.3193753  49.4069958  11.0217679  12.4102330  49.7208786  10.1220727
  13.1810236  49.5498085  11.4134288  65.6216764   3.3485687  34.5647693
  65.8723116   3.8292509  35.3536654  64.8347902   2.8660411  34.8181605
  11.9771779  52.8158236   3.1275660  11.5140676  52.0259523   3.4066039
  12.8763020  52.5250387   2.9750761   7.1414828  19.6114516  55.6079149
   7.1943945  19.5523596  56.5618229   6.2872785  19.2374766  55.3917933
  32.7508521  44.2721272  36.7151237  32.4395013  44.6377087  37.5431609
  32.0432496  44.4474125  36.0947967  12.4070382  47.7128696  39.9763179
  12.7520931  47.3069859  39.1810656  12.0524907  46.9825888  40.4834890
  33.8065338  51.9374037   1.1399541  34.4888496  51.6785145   0.5205569
  32.9963207  51.9045067   0.6313239   4.3485931  57.8432560   2.6921183
   4.2087603  57.3455811   3.4977213   5.2695686  58.1017399   2.7270773
  82.7033870  82.7033870  82.7033870 109.4712190 109.4712190 109.4712190
