
41435  0.0000000e+00
  50.9599352  34.5684600  17.3999596  50.3107309  34.2909741  18.1222034
  51.1895227  33.6498976  17.0483398  50.4694939  35.0505614  16.6602671
  52.1546459  35.3519511  17.7623749  52.8875399  35.4581308  16.9625688
  51.7080641  36.8095207  18.1012118  50.9673452  37.2147465  17.4118412
  51.1829996  36.9507480  19.0459144  52.8592587  37.7640462  18.1526887
  53.2362366  38.5059881  17.0106244  52.6922607  38.3516264  16.0904777
  54.4073772  39.3442464  16.9716120  54.7074223  39.8366475  16.0584235
  55.0843954  39.5095301  18.2058740  55.9382534  40.1689911  18.1564510
  54.7116947  38.8629532  19.3621027  55.3312683  38.9135933  20.2452660
  53.5957670  38.0031848  19.3628728  53.3218575  37.4041533  20.2187562
  52.9041195  34.6441460  18.9349067  52.2920704  34.2573905  19.9677408
  54.2035198  34.5146513  18.7198949  54.5886850  34.7691894  17.8215861
  55.1106310  33.9199805  19.7481334  54.4765854  33.2655311  20.3462791
  56.1967087  33.0060267  19.1253793  56.8774557  33.5440254  18.4656477
  57.1199751  32.3967719  20.2554440  56.5528584  31.7249203  20.8997250
  57.9148626  31.8755984  19.7219360  57.5535774  33.1962085  20.8562684
  55.3740931  31.8177819  18.5086131  54.7284412  31.3443351  19.2482626
  54.7530317  32.0703983  17.6492131  56.2627935  30.7485342  17.9554129
  57.0597315  31.0929751  17.2963583  56.6508675  30.0354147  18.6827087
  55.6318665  30.0896907  17.3587871  55.8412695  35.0043082  20.5697465
  56.7181253  35.6877065  20.0659132  55.5280113  35.2478671  21.8133020
  54.8374128  34.6183228  22.1965098  56.2256241  36.1765027  22.6290035
  56.4674711  37.1080112  22.1172452  55.2217102  36.6522098  23.7333870
  54.6162081  35.8567357  24.1677713  55.9758997  37.3306513  24.8389912
  56.4591742  38.2543612  24.5207047  55.2676249  37.6624346  25.5981803
  56.6772842  36.7082143  25.3946233  54.1677380  37.7365732  23.2717395
  53.5704613  38.1950974  24.0598512  54.7203302  38.5524726  22.8058505
  53.5069513  37.3433685  22.4991775  57.5263071  35.5179119  23.1658578
  57.5416803  34.3295550  23.5838675  58.6072206  36.3072777  23.2353377
  58.5072374  37.1866250  22.7486682  59.8082876  35.9662938  23.9464021
  60.5125141  36.7776275  23.7622547  59.6070766  35.8232737  25.0080800
  60.4666567  34.6912766  23.3913374  61.2883902  34.0872931  24.0881324
  60.1715040  34.1935182  22.1356654  59.6098232  34.7563410  21.5128922
  60.6104708  32.8855896  21.6407156  60.0552273  32.7694869  20.7099485
  61.6981506  32.8572583  21.5754747  60.2169847  31.7238069  22.6045442
  60.8121061  30.6184959  22.4564528  59.1083622  31.8083549  23.3556437
  58.6715984  32.7180576  23.3134866  58.6246538  30.7233071  24.2094684
  58.9312124  29.7551990  23.8133788  59.3922520  30.9434533  25.5422401
  60.4584408  30.9479022  25.3156829  59.1319799  31.8579388  26.0752273
  59.2001200  29.8641634  26.6413331  58.2018709  29.9109459  27.0765519
  59.3037033  28.8565230  26.2387896  60.1886272  30.1435304  27.7695465
  60.0829744  31.1928916  28.0448318  59.9158049  29.5028591  28.6081219
  61.6507721  29.9074697  27.4997973  61.9495106  30.6443286  26.7542148
  62.1927738  30.2193785  28.3925748  61.8840647  28.4906769  26.9246864
  61.5782118  27.7605343  27.5519395  61.4396954  28.2821846  26.0419822
  62.8679609  28.3260131  26.7667627  57.1149588  30.6574130  24.5664620
  56.7653322  29.5650005  25.0161481  56.2772989  31.6741014  24.3927646
  56.5562725  32.5218439  23.9198947  54.8907900  31.7523193  24.8853469
  54.6121836  30.7821226  25.2966905  54.8149776  32.8016186  25.9645915
  55.0598860  33.7715006  25.5316401  53.8033390  32.7920270  26.3703156
  55.8280563  32.5601387  27.1313024  55.5159330  31.5919995  28.1030202
  54.5838881  31.0477972  28.0638409  56.4601660  31.2566066  29.1276407
  56.1744261  30.5025291  29.8460555  57.6747561  31.8966675  29.1589928
  58.5992050  31.5299845  30.0711060  58.5388899  30.6127191  30.3478479
  57.9476023  33.0205584  28.2928395  58.8194609  33.6337399  28.4668183
  57.0277834  33.3511186  27.2388792  57.2772455  34.1810369  26.5943575
  53.9913702  32.0437431  23.6634302  54.1755438  33.1493688  23.0921888
  53.2147312  31.0021353  23.1849122  53.0966568  30.0984502  23.6202407
  52.3405838  31.1930108  22.0364451  52.9254484  31.8100929  21.3543487
  52.1048832  29.8295379  21.4126182  53.0156612  29.4315577  20.9651780
  51.7900229  29.1846943  22.2330666  51.0171700  29.7941542  20.3365278
  50.1009417  30.2020192  20.7634687  51.2131453  30.5040145  19.5329189
  50.5948687  28.3951283  19.8033607  51.4662504  27.7934647  19.5449138
  50.1565742  27.8343368  20.6288981  49.6019602  28.5029101  18.5493481
  48.6888027  29.0087986  18.8629055  50.1411343  29.0878677  17.8042185
  49.1675854  27.1994662  18.0297303  48.7559128  27.3264265  17.1162128
  49.9607658  26.5999198  17.8522301  48.5667419  26.7703080  18.7188661
  51.1021709  31.7898917  22.5661230  50.4571295  31.1920452  23.4450555
  50.8218718  33.0561352  22.1279883  51.4790821  33.4688306  21.4815640
  49.5637178  33.7248755  22.3963571  49.4966555  33.5546112  23.4708881
  49.5226336  35.2899837  22.1941233  49.4217491  35.4681659  21.1235285
  48.6030340  35.7544351  22.5500941  50.6412363  36.2265229  22.6501703
  51.5885115  35.9444761  22.1905851  50.4582453  37.6744890  22.2831225
  49.5215178  38.0944657  22.6495481  51.2396193  38.3753800  22.5768995
  50.2555323  37.8051400  21.2201357  50.9276295  36.0641241  24.1458631
  49.9518251  36.1468744  24.6244717  51.3303471  35.0656557  24.3160653
  51.5864611  36.7820764  24.6343184  48.3492184  33.0431342  21.7560482
  48.3202028  32.7824521  20.5619049  47.3041344  32.7628398  22.5163293
  47.3823118  32.9359221  23.5083127  46.0851383  32.1101499  21.9823647
  46.1730480  31.6953325  20.9782219  45.6091738  30.9423208  22.8633952
  45.3113937  31.3357019  23.8353419  44.4169426  30.1533532  22.2969580
  43.6141157  30.8630896  22.0973253  44.6730947  29.7549272  21.3152504
  44.0204287  29.2820740  22.8182530  46.8218517  30.0351548  23.0943108
  47.1441126  29.7451472  22.0942354  47.6519108  30.5760479  23.5487747
  46.6422701  29.1953731  23.7655926  44.9640989  33.0606699  21.6456008
  44.6713877  33.2956290  20.4826403  44.3668938  33.7280726  22.6962376
  44.8108673  33.6181831  23.5967445  43.1845522  34.6318245  22.6152492
  43.1572580  35.1808047  21.6739845  41.8084574  33.9374590  22.6089668
  41.0246468  34.6870756  22.5002456  41.5969753  33.2619548  21.7800689
  41.5837526  33.1419539  23.9236617  42.3638678  32.3910546  24.0488458
  41.6368484  33.7276673  24.8413897  40.1844215  32.5226831  23.8346124
  39.3306589  33.1962538  23.9087272  40.1057529  32.1275377  22.8218079
  40.1039457  31.3922572  24.6714282  40.6698513  30.6350923  24.3156791
  39.9889588  31.3776016  25.9782958  39.5356154  32.3283005  26.7216754
  39.0353847  33.0953932  26.2957168  39.3189716  32.1895170  27.6983523
  40.2616358  30.3523397  26.6408920  40.5008554  29.5378876  26.0935855
  40.0257349  30.2527189  27.6178861  43.3072948  35.6332684  23.7853980
  43.9591026  35.3472471  24.7839904  42.7300310  36.7767835  23.5609078
  42.1543407  36.7633319  22.7311492  42.5176907  37.8595424  24.5199156
  43.4859896  38.1165576  24.9493837  42.0535040  39.1759109  23.8204145
  42.4395895  39.1449404  22.8015542  40.9699821  39.1296840  23.7110949
  42.5786495  40.4638720  24.4518733  42.1586227  40.6991625  25.4297876
  43.6520576  40.3334904  24.5893431  42.2369242  41.6099167  23.5134888
  41.1708021  41.4611816  23.3421230  42.3947954  42.6072025  23.9241004
  43.0814123  41.5395403  22.2442412  44.0376806  41.0969543  22.5231242
  42.7005434  40.9176254  21.4341378  43.2535410  42.8216028  21.5622282
  43.7929583  42.9028320  20.7122111  42.3941755  43.3349943  21.4279842
  43.6659813  43.5143995  22.1705317  41.6410303  37.4452114  25.6448841
  40.7688141  36.6004705  25.5654860  41.9296694  38.0427551  26.7281127
  42.8622818  38.4302497  26.7145157  41.0888624  38.0535412  27.9807997
  40.0955200  37.6381040  27.8111577  41.7588234  37.1998930  29.1343474
  42.5461149  37.8131914  29.5726752  40.7045555  36.8444109  30.2241898
  39.9764705  37.6427031  30.3681684  40.0724888  35.9939122  29.9687624
  41.2117958  36.6854310  31.1757827  42.5411797  35.9064007  28.7470484
  41.7912817  35.1207256  28.6550331  42.9974318  35.9497213  27.7580810
  43.5860443  35.5047536  29.8103738  44.0097332  34.5252037  29.5888495
  44.4722509  36.1327505  29.9017906  43.0754662  35.5386901  30.7728004
  40.8132172  39.4776011  28.4764624  39.6862435  39.8985624  28.8980246
  41.8571806  40.2342701  28.5560656  42.7812290  39.8548627  28.4068012
  41.8309355  41.6641951  28.9927793  40.8972359  42.0503187  29.4017029
  42.6685429  41.8511677  29.6647549  42.1693945  42.6682425  27.8385782
  43.1123686  42.4734545  27.0662212  41.6036558  43.8427877  27.9353642
  40.8261824  43.9295006  28.5742021  42.0749092  45.1356697  27.3159146
  43.1494761  45.1758671  27.1376228  41.4967537  45.2148819  25.8968592
  41.7501068  44.3282747  25.3156185  40.4106092  45.3002310  25.9301400
  42.0568371  46.3103247  25.2628088  42.9821348  46.1061144  25.1087737
  41.7592812  46.3414240  28.1041002  40.6766033  46.4888191  28.6928129
  42.8326368  47.1595192  28.2365489  43.7051630  46.8721914  27.8167486
  42.7635574  48.4582615  28.9701271  41.7227602  48.7806177  28.9396954
  43.1074476  48.3042526  29.9929285  43.6494923  49.6170807  28.4190845
  44.1252804  49.4164276  27.2688675  43.8477325  50.7465839  29.1070199
  43.4286499  50.7779694  30.0254345  44.4537020  52.0060253  28.5232759
  44.1043711  52.0346498  27.4911618  43.9801168  53.2933950  29.1955447
  44.2551470  54.1646051  28.6010194  42.9126072  53.3101940  29.4151759
  44.6834040  53.3302736  30.4026151  45.2176857  54.1268253  30.4432178
  45.9545469  52.0175362  28.2963657  46.4433861  53.0602741  27.7687716
  46.6336489  50.9150743  28.6448312  46.1142731  50.1598310  29.0690517
  48.0451536  50.8132792  28.3762169  48.2549620  51.5748024  27.6251101
  48.8917637  51.0930347  29.6348429  49.9557972  51.2681818  29.4759607
  48.6819553  52.1209955  29.9304461  48.5603046  50.1079559  30.7175064
  47.6205492  50.3679895  31.7135787  47.1726942  51.3495588  31.6650939
  47.2347832  49.4443512  32.7170897  46.4036846  49.6782827  33.3658981
  47.7532005  48.1216669  32.6076961  47.3572111  47.3643017  33.2679915
  48.7054729  47.8309870  31.5967441  49.1155624  46.8364620  31.5010834
  49.1053724  48.7916136  30.6118155  49.7946167  48.5289574  29.8229218
  48.5440683  49.5404720  27.6781464  49.5448542  49.4734383  26.9347954
  47.6447105  48.5231495  27.6419163  46.8724060  48.5436058  28.2924771
  47.8127623  47.2787285  26.8646669  48.0147266  47.4353838  25.8050609
  48.7927675  46.9110537  27.1688390  46.7027617  46.2685347  27.0378470
  45.6367922  46.5697718  27.5036931  46.7845392  45.0798321  26.4056706
  47.5857353  44.8873901  25.8215904  45.8666420  43.8563728  26.5664339
  44.9165106  44.1948366  26.9797015  45.6842518  43.2728243  25.1500678
  46.5978479  42.8205109  24.7642446  44.9086809  42.5247908  25.3145003
  45.0514650  44.3299198  24.2144680  44.6084642  45.4372597  24.6028447
  45.1325083  44.0951204  23.0105758  46.4280128  42.7883768  27.4856496
  47.4750805  42.9231977  28.1025314  45.5869627  41.7525387  27.6678085
  44.7363520  41.7790747  27.1238780  45.9997749  40.5200624  28.4076118
  47.0884418  40.4778194  28.4410524  45.4327011  40.5033112  29.8585629
  44.3486500  40.5667591  29.7642136  45.8299398  39.2258811  30.6731248
  45.3664827  39.1514373  31.6568732  45.4498434  38.3094120  30.2217746
  46.9096327  39.1139841  30.7723522  45.9289026  41.7183018  30.6172061
  47.0109987  41.6727448  30.7400441  45.7227564  42.5991917  30.0092292
  45.3800488  41.8227339  31.9839191  44.3115377  41.6436338  31.8643141
  45.7494926  41.1104441  32.7216554  45.6049871  42.8323507  32.3276758
  45.4350138  39.3263054  27.5968218  44.3209982  39.3825412  27.1565914
  46.1867094  38.2448077  27.4474549  47.1584988  38.3791423  27.6876140
  45.9253168  37.0971608  26.6266489  44.8990774  37.1457696  26.2625456
  46.7818213  37.0505452  25.3535724  47.8337717  37.0130610  25.6365919
  46.4889145  36.0994434  24.9089289  46.6100597  38.0460644  24.2429090
  46.8844414  39.4513392  24.4809127  47.2094727  39.8338628  25.4371738
  46.7588043  40.3347588  23.3114743  46.9596958  41.3904905  23.4186053
  46.4070368  39.8675871  22.0198441  46.2832546  40.7246256  20.9590459
  46.0656309  40.1900005  20.1919603  46.2740946  38.4968114  21.8626833
  46.1247730  38.0757403  20.8794188  46.4230299  37.6086545  22.9210162
  46.4069700  36.5543318  22.6874518  46.2147093  35.8347130  27.5197721
  47.0333576  35.8271337  28.3822846  45.5695868  34.7553396  27.1753836
  44.8610735  34.9943328  26.4964247  45.9223938  33.3606076  27.3425889
  46.2638950  33.2560682  28.3724165  44.7063208  32.3827004  27.1649408
  44.1012144  32.6713586  28.0243731  44.2273998  32.7113533  26.2425947
  44.9932051  30.9124517  27.0699906  45.7254791  30.7918000  26.2716699
  45.4695177  30.2615070  28.3566165  46.2755585  30.8134985  28.8400435
  44.6446037  30.1659942  29.0626597  45.8997965  29.2646909  28.2601023
  43.7303495  30.2632427  26.5150023  42.8721619  30.3805065  27.1767187
  43.4146738  30.6447530  25.5439687  43.8500023  29.1927981  26.3478827
  47.0996475  33.0174661  26.4548588  47.0517683  33.4047270  25.2790451
  48.0749035  32.2119141  26.9010329  48.0244112  31.9641471  27.8788733
  49.1732979  31.6659403  26.1255550  48.9153147  31.5431905  25.0736642
  50.3110409  32.6592517  26.3104534  50.8070087  32.6905680  27.2805786
  51.0410166  32.3063278  25.5819750  49.9426937  33.6382627  26.0039234
  49.5815802  30.2810001  26.6832137  49.0611506  29.9412727  27.7592516
  50.5134344  29.5206141  26.0510659  50.8429241  29.8804712  25.1667380
  51.1117268  28.3064055  26.5713143  50.9728241  28.2422280  27.6505208
  50.4086304  27.0544147  25.9187484  50.0688314  27.2688937  24.9055171
  51.4028740  25.8853006  25.7695389  51.8591166  25.7243133  26.7462826
  51.0148430  24.9439883  25.3803515  52.1582222  26.2087560  25.0533509
  49.1728783  26.6147375  26.7337441  49.4438648  26.2264729  27.7155375
  48.4911919  27.4358749  26.9554400  48.3604574  25.6018662  25.9702253
  47.5208235  25.3285742  26.6093135  48.1167793  26.0222816  24.9945331
  48.9498997  24.6894884  25.8795357  52.5989389  28.4396553  26.2443376
  52.9977369  28.8502860  25.1392078  53.4264851  27.9269505  27.1683931
  53.0387163  27.4782681  27.9859662  54.8835087  27.7908087  27.1049738
  55.2026033  28.7842870  26.7898917  55.4764938  27.1747375  28.4277678
  55.3539085  27.8316450  29.2888975  55.0381947  26.1867738  28.5689116
  56.9701242  27.1089339  28.2883596  57.5940990  26.6774774  27.3282433
  57.6375914  27.2641611  29.3566012  58.6157131  27.0182514  29.4104934
  57.1110821  27.5916576  30.1538706  55.0565910  26.6953778  25.9838414
  54.6997976  25.5236840  26.1752486  55.7127666  26.9889712  24.8248172
  56.1813164  27.8835917  24.8394823  55.8612013  26.1086464  23.7288260
  54.8924303  25.6417751  23.5509992  56.1704493  26.9493961  22.4298072
  56.2184048  26.3754654  21.5043831  55.0464535  27.9783630  22.1968055
  55.0720930  28.3648562  21.1779499  54.0776825  27.5302863  22.4177456
  55.2786350  28.8374305  22.8262472  57.5970078  27.6053810  22.4420309
  57.7560902  27.9557920  23.4618378  58.4095860  26.9100761  22.2314000
  57.7265882  28.7462449  21.4521050  57.0301962  29.5053005  21.8084407
  58.7037897  29.2284203  21.4781260  57.4977636  28.3763409  20.4526472
  56.9448709  24.9690485  24.0160084  56.9052315  23.9500189  23.3319283
  57.8650331  25.2147388  24.9943876  57.8777409  26.0332966  25.5859113
  58.9478540  24.2739749  25.2565551  59.3401432  23.9305544  24.2993355
  60.1687956  24.9307346  26.0324335  59.9046326  24.8884153  27.0890927
  61.4051199  24.0180659  25.8537960  61.3637972  23.1643414  26.5302277
  61.4763546  23.6548734  24.8285556  62.3477840  24.5529771  25.9693742
  60.5183840  26.2341428  25.6582737  60.7020330  26.1624074  24.7187376
  58.4141493  23.0300522  26.1290503  58.9521027  21.9308257  25.9451103
  57.5236225  23.3594298  27.1453571  57.1350193  24.2910671  27.1791673
  57.1233654  22.3763633  28.1936884  57.6366615  21.4505982  27.9337144
  57.6395798  22.9378200  29.4926548  57.3779249  23.9860106  29.6373415
  57.1035385  22.4713826  30.3192139  59.1381216  22.6756215  29.7772145
  59.6249533  21.5759087  29.6789455  59.9552202  23.7167668  29.9663329
  60.8511066  23.6372352  30.4258585  59.5229626  24.6194816  30.1018596
  55.5939531  22.1292019  28.3314395  55.1799726  21.1670518  28.9446640
  54.7950077  23.0130267  27.7625179  55.1904488  23.7644219  27.2155881
  53.3172989  22.8460503  27.7521038  52.9303837  23.2030296  26.7976594
  53.1612492  21.7682338  27.7974868  52.4734163  23.4844494  28.8419175
  51.3177967  23.0749726  28.9956760  53.0320740  24.3837905  29.6269035
  53.9187193  24.7962260  29.3742085  52.3208857  25.0359368  30.7667947
  51.6546154  24.2892933  31.1988997  53.2491732  25.4925680  31.8974972
  54.0336609  24.7398996  31.9760990  53.7107801  26.4224672  31.5653682
  52.5643349  25.8333707  33.2446361  51.7069292  26.5003562  33.1547284
  52.0980453  24.9121499  33.5939646  53.4299421  26.5858316  34.2894983
  52.8639317  26.7374682  35.3907394  54.2961264  27.3965836  33.9549184
  51.4353418  26.2091541  30.2656412  51.9939327  27.1540761  29.6631360
  50.1391554  26.2188387  30.5527949  49.7373009  25.4896355  31.1245275
  49.2061043  27.2580647  30.2300239  49.2893457  27.6322651  29.2096591
  47.8000689  26.6399384  30.2820873  47.0821857  27.3813868  29.9313807
  47.7849913  25.8773351  29.5034289  47.3654366  26.1549067  31.7290378
  48.1390524  25.6163049  32.2763252  47.2693491  27.0806909  32.2963047
  46.1395741  25.3013897  31.8005729  45.7288885  25.0027657  32.9519773
  45.4375505  25.1586103  30.7156110  49.2941093  28.4274411  31.2580442
  49.5755196  28.2670331  32.4453545  49.1484165  29.6691728  30.6732559
  49.1769218  29.6771789  29.6636915  49.6724272  30.8819818  31.3557458
  49.4567204  30.8655214  32.4240613  51.1537933  31.0757923  31.2328696
  51.4217186  32.0147252  31.7173505  51.9555759  30.0585175  32.0235324
  51.5373135  30.0407410  33.0299330  51.9358253  29.0210366  31.6898537
  53.0059576  30.2910781  32.1987796  51.7194223  31.1804724  29.8430920
  51.4756584  30.3550410  29.1742563  51.2948322  32.1005893  29.4415927
  52.7945518  31.3469410  29.9100590  48.9389467  32.1468472  30.7771611
  48.3509302  32.1018863  29.6907496  49.1189909  33.3058333  31.4645028
  49.6484566  33.3716774  32.3220754  48.5097933  34.5758581  31.0788226
  48.0744600  34.4752550  30.0846076  47.3313761  34.9828792  32.0330477
  47.5684834  34.7686124  33.0751467  47.1334505  36.0526824  31.9663930
  46.4493465  34.4097114  31.7473960  49.5869064  35.6598544  30.9618473
  50.6572390  35.6170297  31.5916300  49.2869091  36.5838003  30.0879955
  48.4306479  36.5248203  29.5555997  50.2952528  37.5118995  29.5513988
  51.1195135  37.5686240  30.2623701  50.8642817  37.2091246  28.1670451
  50.1122856  37.4058795  27.4029160  52.0813036  38.0109262  27.7837443
  52.5974607  37.5380850  26.9482207  51.6836643  38.9553714  27.4122548
  52.8027868  38.0316091  28.6005330  51.1733961  35.6822872  28.0682850
  51.8461895  35.3287268  28.8495946  50.2374220  35.1266789  28.1262064
  51.6583538  35.4834485  27.1125770  49.7215748  38.9737725  29.4894290
  48.7460327  39.1498041  28.7907624  50.3630114  39.9144173  30.2663493
  51.2028837  39.6596694  30.7661653  49.9751234  41.3320684  30.3957868
  49.0028620  41.5849733  29.9728799  49.9908161  41.6887617  31.8962145
  49.1899347  41.1098766  32.3561978  50.8582640  41.2824917  32.4163938
  49.8235893  43.2582521  32.1879792  50.5998707  43.8876963  31.7528963
  48.8316727  43.5354900  31.8311262  49.6911573  43.3748770  33.7408781
  48.9954567  42.6089859  34.0836692  50.6426239  43.2038116  34.2444181
  49.2260838  44.7306442  34.1886067  50.0678492  45.4228354  34.1685700
  48.4619141  45.1111889  33.5108662  48.8226032  44.7512579  35.5578470
  48.4464693  43.8501644  35.8160233  49.5023489  44.9204540  36.2854600
  48.1237268  45.4706907  35.6765389  50.9908772  42.1685886  29.6302938
  52.2058296  41.9614172  29.7482395  50.5852652  43.2175922  28.9850354
  49.5891190  43.3809519  29.0183043  51.3961315  44.1442823  28.1711245
  52.4376297  43.8236380  28.1949687  51.0612822  44.0827513  26.7139673
  50.0306273  44.3862534  26.5302849  51.6788483  44.7996235  26.1728501
  51.3445473  42.7748013  26.0158706  52.0520258  42.1646690  26.5773916
  50.1092625  41.8508148  25.8982897  49.2534161  42.4760437  25.6438851
  50.2666235  41.0428905  25.1837230  49.9478102  41.4005423  26.8777227
  51.8739986  43.0504751  24.6137738  52.7350664  43.7174273  24.5709062
  51.9825697  42.1189213  24.0583229  51.0037231  43.4611034  24.1018176
  51.2085342  45.5787706  28.5793519  50.1115179  45.9405184  28.9982748
  52.1667099  46.3709545  28.1263566  52.9625607  45.9277105  27.6901698
  52.4144363  47.7714872  28.2616854  51.5091276  48.3339596  28.4900165
  53.2148457  47.9347992  29.5665455  52.7745962  47.4808979  30.4543829
  54.0800190  47.2762871  29.4895148  53.6504698  49.4104338  29.8800182
  54.1969633  49.7227240  28.9901185  52.7041817  49.9276686  30.0384688
  54.5680809  49.4880438  31.1706352  55.8157253  49.2666292  31.0645437
  54.0321445  49.7820568  32.2492504  53.0366468  48.5434198  27.1243429
  54.1676903  48.2730198  26.7646194  52.2848654  49.4010687  26.4663792
  51.4080667  49.7480822  26.8281841  52.8705692  50.2997923  25.4371428
  53.4066916  49.7020197  24.7000217  51.8803501  51.1399221  24.7043800
  51.3556051  50.5675745  23.9394188  51.1910009  51.6087484  25.4065919
  52.3962593  52.2299147  23.9818907  52.6469898  52.0024776  23.0835533
  53.9080667  51.2021065  26.2037969  53.6205912  51.9374895  27.1167159
  55.1762152  51.1119461  25.7572985  55.4081726  50.3992271  25.0803018
  56.2397766  52.0257235  26.2812781  56.3123703  51.7922974  27.3435116
  57.5754404  51.7078972  25.5982661  57.4108315  51.8044996  24.5251060
  58.3227396  52.4350405  25.9159374  58.0652380  50.2967453  25.9427834
  58.1144381  50.2168608  27.0287395  57.3185110  49.5277929  25.7447743
  59.3413258  49.9555588  25.2383304  59.8326731  50.6835413  24.3833423
  60.0924873  48.9339972  25.5986929  60.9534836  48.6974812  25.1266336
  59.6243858  48.2865572  26.2165976  55.9182072  53.5181570  26.1151314
  56.1071014  54.3252563  27.0204544  55.3121233  53.8116598  24.9554873
  55.3268194  53.1173229  24.2221522  54.7130632  55.1212120  24.6397567
  55.4558945  55.8967590  24.8263907  54.2652416  55.1222134  23.1264591
  55.1473570  55.0797987  22.4875760  53.6927795  54.2168760  22.9245639
  53.4323359  56.2804937  22.5931096  52.4853182  56.3139629  23.1317568
  53.9011860  57.2200871  22.8854251  53.2108212  56.1947393  21.0886121
  54.1492605  56.0643196  20.5496955  52.4728012  55.4378319  20.8230829
  52.6442242  57.5318718  20.6923389  51.6946125  57.7721834  21.1704540
  53.2435894  58.4072018  20.9426570  52.3974085  57.6059484  19.2574120
  51.7109823  58.3324289  19.1120172  53.1788158  57.8485537  18.6652601
  51.9422436  56.7951918  18.8629377  53.5090780  55.5094242  25.5588365
  53.3665514  56.6768026  26.0077405  52.6614094  54.6058369  26.0316277
  52.7495575  53.6808062  25.6358361  51.3841677  54.8817492  26.7870998
  51.0705376  55.8201790  26.3298368  50.3982544  53.7572861  26.5683150
  50.7883310  52.8775644  27.0802069  49.4387770  54.0633011  26.9852924
  50.3421831  53.6142254  25.4891992  51.4855957  55.1349545  28.3294320
  50.5503798  55.6914425  28.8495874  52.5753260  54.7498560  29.0267634
  53.2844639  54.3256664  28.4460020  52.8344536  55.1567745  30.3841257
  52.8071547  56.2377310  30.5215383  51.9198799  54.3583012  31.3752270
  52.1940374  54.7625446  32.3496675  50.8739376  54.6603632  31.3217235
  52.0750952  52.8266144  31.2870884  51.7470217  52.4633265  30.3131819
  53.1055117  52.4719191  31.3102031  51.2356281  52.3810244  32.5120640
  51.3148499  53.0431461  33.3742833  50.1801586  52.3233795  32.2460532
  51.7221117  51.0454798  32.8959489  52.6911211  50.8015871  32.7488375
  51.2056971  50.1946735  33.7449574  49.9791241  50.2360725  34.2387462
  49.3475008  50.9072256  33.8255739  49.6213913  49.4259691  34.7244000
  51.9546127  49.1242123  33.9272237  52.8470182  49.2082787  33.4617710
  51.8354273  48.4640980  34.6823025  54.3230820  54.8466921  30.7105184
  55.0132990  54.1346741  29.9544930  54.7733498  55.4207373  31.8170619
  54.2614412  56.1324930  32.3185182  56.1085892  55.1206541  32.4346590
  56.8722534  55.3705311  31.6981268  56.2289238  55.9738350  33.6710954
  57.2315121  55.7858944  34.0552807  56.1659527  57.0416641  33.4616327
  55.3325939  55.6593418  34.8708987  55.7569408  55.3428555  36.1627507
  54.6411037  55.0301075  36.8534732  54.5788908  54.5696306  37.8284121
  53.6128759  55.0606537  36.0282397  52.6980925  54.7811699  36.3525271
  53.9986992  55.5636930  34.7875214  53.3540010  55.7359600  33.9383459
  56.3508844  53.6000013  32.7395296  55.3749275  52.8887320  32.7674150
  57.5523281  53.0631208  33.0196834  58.8152933  53.6519003  32.7298951
  59.0888357  54.4376421  33.4340811  58.8505602  54.0077543  31.7002249
  59.8634243  52.4783087  32.8371596  60.2499294  52.4375868  33.8555193
  60.7082224  52.5022507  32.1488023  59.0906572  51.2067127  32.5676060
  59.4057989  50.4008150  33.2304192  59.1016197  50.8895779  31.5248203
  57.6143312  51.5646315  33.0180144  56.8564844  51.1388779  32.3603678
  57.3503780  51.0693693  34.4575858  58.0971384  50.4019165  35.1417899
  56.1144686  51.3412285  34.9081516  55.4150629  51.7900467  34.3341374
  55.5064344  50.6258726  36.0647821  56.1345816  50.7925415  36.9398570
  54.1391039  51.3699675  36.3147116  54.3872070  52.4256516  36.2048316
  53.4200573  51.1293173  35.5316591  53.3996058  51.0844994  37.6344848
  52.5012350  51.6993427  37.6893377  53.1534100  50.0361872  37.8033853
  54.1179895  51.3959646  38.9275169  54.9357367  52.2886753  38.9663839
  53.8340330  50.7073927  40.0171518  54.0102482  51.0847282  40.9372997
  53.1716061  49.9578857  39.8774242  55.3688955  49.0706491  35.9906101
  55.3228474  48.4612608  37.0621681  55.4129839  48.4432316  34.8417521
  55.6258869  48.9997578  34.0262437  55.4167318  47.0150328  34.5839190
  54.5936584  46.6687107  35.2089930  55.1130295  46.5847015  33.1501508
  54.2386055  47.1858501  32.9009438  55.8749247  46.9050789  32.4395347
  54.5744562  45.1156521  32.9582977  55.3959990  44.4457340  33.2120252
  53.3960295  44.7642565  33.8154912  52.7310705  45.6278515  33.8269591
  52.9308701  43.8220263  33.5257840  53.7932587  44.7588348  34.8305178
  54.1509581  44.7691202  31.5116572  53.2673407  45.2611399  31.1051655
  55.0072765  45.0844622  30.9155130  53.8841677  43.7136126  31.4585090
  56.6514826  46.2527084  35.1047516  56.4014244  45.1234627  35.6113768
  57.9197645  46.7093039  34.9752474  58.0949450  47.5229597  34.4030666
  59.0915537  46.1288500  35.6446767  59.0892553  45.0442314  35.5364990
  60.2775383  46.8346214  35.0641131  60.2666712  46.6724920  33.9862943
  60.1754808  47.8938818  35.3000331  61.6573715  46.4044714  35.6040049
  61.7709589  46.8960476  36.5702081  61.9576311  44.9406195  35.6320405
  61.3789415  44.5215988  36.4552259  61.5419483  44.5429325  34.7062159
  63.0267811  44.7394991  35.6997418  62.7002239  47.0540237  34.6286178
  62.7041149  46.6582346  33.6130190  62.5945091  48.1333017  34.5186710
  63.6845684  46.8726587  35.0602031  59.1605091  46.4430857  37.1586561
  59.5251942  45.5405092  37.9048157  58.5386324  47.4614668  37.7047539
  58.3830595  48.1976366  37.0309925  58.1683588  47.7893114  39.1279006
  59.0979385  47.7016449  39.6903110  57.7047443  49.2682171  39.2917633
  58.4630680  49.8897886  38.8156438  56.7546797  49.4586897  38.7925625
  57.6782084  49.6989727  40.7315731  58.8314533  50.2547789  41.3453341
  59.7787428  50.2364635  40.8269548  58.7633467  50.7283545  42.6640749
  59.6718311  51.1354017  43.0828571  57.6153421  50.6307507  43.4284687
  57.5140095  50.9819603  44.7537374  58.3640480  51.2377691  45.1192522
  56.4647198  49.9625826  42.8468180  55.5444431  49.7726440  43.3791876
  56.5024805  49.5395088  41.5164137  55.6281519  49.0688801  41.0916042
  57.2359753  46.7177010  39.6397996  57.4183941  46.1308432  40.7311869
  56.1523581  46.4638424  38.9036775  56.0875940  47.0767927  38.1035566
  55.1496124  45.3899145  39.0373611  54.8029613  45.5015707  40.0647211
  53.9628553  45.6692696  38.0531001  53.4614658  46.5557528  38.4415030
  54.3987036  45.7634163  37.0584750  52.9695225  44.4810963  37.9366994
  53.3666801  43.7417746  37.2411633  52.9038382  44.0173244  38.9209270
  51.4783907  44.7998667  37.5346351  51.2579107  45.7153797  36.6840577
  50.5715370  44.0691710  37.9726672  55.7109547  43.9855003  38.9771652
  55.3833151  43.1788731  39.9268651  56.5908670  43.7315273  37.9791403
  56.7774010  44.4369602  37.2808027  57.3317671  42.3970938  37.9168034
  56.6461134  41.5644741  37.7595735  58.2938337  42.3351526  36.7734122
  57.8016663  42.5660658  35.8286643  59.1076183  43.0184603  37.0162010
  59.0032148  41.0948706  36.5972376  59.8043346  41.1269522  36.0692453
  58.1183004  42.1229076  39.1456914  57.8961277  41.1279345  39.8265076
  58.9850903  43.0878878  39.5850801  59.0665865  43.9309359  39.0348744
  59.7303820  43.1081104  40.8621788  60.3975248  42.2529459  40.9704208
  60.7311583  44.2871189  40.9779644  60.2147341  45.2133608  40.7260036
  60.9787750  44.3549538  42.0372963  62.0041180  44.1588593  40.0875378
  62.4453974  43.1772280  40.2601004  61.6426229  44.1782093  39.0594101
  63.0934477  45.2478218  40.2395296  63.3772707  45.2728701  41.2916327
  64.0105104  45.0039577  39.7032166  62.5674915  46.6086721  39.7934580
  62.1737766  46.5443659  38.7790847  61.7319822  46.9558287  40.4013300
  63.6410236  47.6606131  39.6937609  64.4208193  47.2598219  39.1923785
  63.2035589  48.4287119  39.2051411  63.8907146  47.9678297  40.6229401
  58.7870121  42.9463959  42.0952177  59.0330887  42.1886873  43.0021334
  57.6383591  43.6210918  42.0335579  57.4168158  44.1299963  41.1897326
  56.7389822  43.5223150  43.1462717  57.4338770  43.6487627  43.9764786
  55.7150793  44.6709538  43.1036186  56.2406635  45.6257772  43.0902529
  55.1979446  44.6731138  42.1441031  54.7514391  44.6952248  44.3082762
  54.0681934  43.8462782  44.3323517  55.4412460  44.7057438  45.6443596
  54.6656179  44.6978426  46.4101601  56.0052443  43.7811947  45.7677174
  56.0271549  45.6162739  45.7698345  53.7598658  45.9134340  44.2631483
  52.7864933  45.7204056  44.7141361  54.2808056  46.7250490  44.7710800
  53.5786295  46.2535381  43.2435465  56.1268520  42.0836210  43.2447624
  56.2382460  41.4604521  44.2793894  55.5877829  41.4954376  42.1761465
  55.4288101  42.0663214  41.3582706  55.2922869  40.0740528  42.1403980
  54.5510292  39.7643065  42.8770781  54.8206806  39.7172952  40.7428885
  55.4792118  39.9349308  39.9020123  54.6848679  38.6365342  40.7830906
  53.4154701  40.2881002  40.4134369  53.2245541  40.9973526  39.2168832
  53.9717340  41.2911081  38.4945059  51.8982840  41.4444542  38.9030099
  51.7477751  41.9944811  37.9858303  50.7944679  41.2700129  39.8180103
  49.6446085  41.8577814  39.4764757  49.7375393  42.6636600  38.9631295
  51.0365915  40.4772806  40.9652090  50.1620197  40.2914524  41.5710163
  52.3210049  39.9729896  41.2475204  52.3810005  39.3078041  42.0962429
  56.5042400  39.1760612  42.5318623  56.2945604  38.1545782  43.1099796
  57.7665138  39.5113826  42.2394228  57.8466988  40.2595901  41.5657282
  58.9387894  38.7073755  42.6378775  58.7401962  37.6866102  42.3112249
  60.1319838  39.1963601  41.6804361  60.2257729  40.2809000  41.7359304
  61.0896826  38.8742161  42.0892668  60.0255537  38.5475564  40.2173185
  60.2327204  37.4774241  40.2189302  59.0148163  38.6367989  39.8191404
  60.9595680  39.3226838  39.2052937  60.6341553  40.3629589  39.2114592
  61.9780159  39.3381333  39.5934057  60.8753920  38.7598133  37.7990007
  59.8000765  38.7055349  37.6291418  61.2364626  39.4743371  37.0592761
  61.6132975  37.5406480  37.6043510  61.5670824  37.1287513  36.6833162
  62.5828218  37.6847649  37.8479838  61.3293743  36.7968178  38.2258081
  59.1637754  38.6660409  44.1209459  59.6611547  37.6866460  44.6713495
  58.8267803  39.7377992  44.7403669  58.4822989  40.5310297  44.2186308
  58.7314272  39.7640371  46.1994934  59.6218109  39.2959142  46.6192293
  58.6969280  41.2094927  46.7473125  57.9992247  41.8724346  46.2356234
  58.2472229  41.1777735  48.2021666  58.2397604  42.1571970  48.6804724
  57.1855640  40.9382725  48.2623672  58.8328171  40.4975557  48.8206196
  60.0977325  41.8282032  46.6507339  60.6283140  41.4555597  47.5269270
  60.6169367  41.5917253  45.7219696  60.0959778  43.3911467  46.6597509
  59.6841908  43.8856077  45.7799625  59.7164297  43.7787771  47.6051521
  61.1418629  43.6894846  46.5875149  57.6135111  38.8804746  46.6491127
  57.8494883  37.9069948  47.3627090  56.4197397  39.1777897  46.0786009
  56.2985945  40.0765800  45.6340790  55.1835108  38.5328174  46.5620613
  55.2126694  38.5509658  47.6515245  53.8439083  39.1761780  46.1342382
  53.7842607  39.0612626  45.0519562  52.9934835  38.6014986  46.5011549
  53.7297821  40.7106543  46.5826702  54.5920515  41.2819862  46.2388992
  52.6387691  41.4795446  45.9527636  52.6610613  41.5733051  44.8670292
  51.6666174  41.0351086  46.1660814  52.6872635  42.5018597  46.3277531
  53.5015297  40.8828068  48.0808401  54.3642807  40.4199171  48.5598993
  53.5063362  41.9009066  48.4701490  52.5559378  40.4270935  48.3745718
  55.1412487  37.0305586  46.3264036  54.7058010  36.2764716  47.1968126
  55.5768299  36.4799428  45.1915169  56.1452103  36.9896650  44.5302868
  55.4280472  35.0776720  44.6672964  54.3927717  34.7397184  44.6215296
  56.0674906  34.8804832  43.2909536  55.8609056  33.8536000  42.9893970
  55.6686115  35.6704187  42.6545572  57.6316786  35.1004219  43.3085918
  57.8881073  35.9731364  43.9091921  58.0235100  34.1531682  43.6791086
  58.1118774  35.1840138  41.8559599  57.3635769  35.2775574  40.9212160
  59.3964052  35.0958347  41.6149235  59.6618128  35.2146482  40.6476879
  60.0028944  34.6517253  42.2894859  55.9842968  33.9987779  45.6997299
  57.0347214  34.2365837  46.2607479  55.2352190  32.8976464  45.9517527
  54.4476843  32.7122021  45.3471804  55.3626585  32.0040202  47.1054792
  55.3106594  30.9452963  46.8515110  56.3760948  32.1643376  47.4733686
  54.4444847  32.3006177  48.2569218  54.2397070  31.5200496  49.1477966
  53.7304449  33.4748077  48.3229828  53.8111973  34.0445399  47.4929333
  52.7317715  33.8734651  49.2779016  53.0305243  33.6829257  50.3086948
  52.6328945  34.9338675  49.0458012  51.3829565  33.2664323  48.9094448
  51.1861324  32.7506971  47.7909660  50.4604673  33.1734037  49.9328375
  50.6248474  33.6775374  50.7924461  49.1537237  32.5726414  49.7833681
  49.2147589  31.5778613  49.3420219  48.4321165  32.3477197  51.1756802
  48.3628750  33.2933116  51.7134142  47.0443296  31.8316221  50.9624958
  46.3172388  32.5288725  50.5462217  46.9826984  30.9228897  50.3637409
  46.5589952  31.5657949  51.9015837  49.1745615  31.3988233  52.1790218
  48.7904024  31.4782071  53.1959867  48.9836216  30.3826690  51.8339539
  50.2408123  31.5923452  52.2963047  48.2752991  33.3900070  48.8687992
  48.0380058  34.6193409  49.0773869  47.5930929  32.7620673  47.8771400
  47.6266479  31.7572260  47.7808762  46.7812681  33.5086274  46.8823385
  46.3280487  32.7433968  46.2521696  45.9450531  34.0000319  47.3796988
  47.5942945  34.5677352  46.1226511  47.1652079  35.7484293  46.1399221
  48.6523390  34.2520761  45.4329824  49.0222120  33.3355856  45.6411552
  49.6052170  35.0428224  44.6806765  49.0425491  35.9521723  44.4695234
  50.7790709  35.4479766  45.6773663  51.2042236  34.4897771  45.9760284
  51.8387318  36.2400699  44.8492241  52.5761127  36.6664004  45.5293846
  52.3300982  35.4953051  44.2231369  51.3378811  37.0474553  44.3150139
  50.3754711  36.2855196  46.8647385  49.5820570  35.7923675  47.4263382
  51.3089037  36.4263248  47.4096966  49.8166275  37.7368498  46.6142035
  49.1684532  37.9405904  47.4665308  50.6293344  38.4564471  46.5152788
  49.2462444  37.6367879  45.6907558  50.0890303  34.2210984  43.5239172
  50.1529789  33.0106091  43.5703564  50.4105711  34.8415112  42.3434544
  49.9367380  36.1367989  41.9862223  50.4855108  36.9191623  42.5104904
  48.8833570  36.2865210  42.2230244  50.2276134  36.3450098  40.4851341
  51.1084318  36.9870138  40.4754972  49.3343401  36.8609333  40.1330233
  50.3578854  34.9695730  39.9679661  50.8889818  34.8235583  39.0273714
  49.3574905  34.5775175  39.7846556  50.9796858  34.2487097  41.1613560
  50.7675838  33.1796598  41.1456537  52.4660921  34.3408370  41.1804438
  53.1278801  34.7583079  42.1577644  53.0713034  33.8718557  40.1561975
  52.5213957  33.3506203  39.4883490  54.5323563  33.7705851  39.9639368
  55.1065350  34.4055557  40.6386423  54.9846077  32.3421955  40.2550936
  54.9804354  32.1477723  41.3276052  54.2853880  31.6311598  39.8150635
  56.3098001  31.8998361  39.7681642  56.5238142  31.6277647  38.4140372
  57.8643703  31.5129018  38.3972907  58.4434652  31.4108658  37.4913907
  58.4379959  31.6397262  39.5896482  59.4388914  31.6684008  39.7218895
  57.4464607  31.9578624  40.4634666  57.5498295  32.3596692  41.4605951
  54.9317551  34.2540240  38.5604668  54.1681051  34.0589714  37.5913525
  55.9693718  35.0598192  38.4526730  56.5675449  35.2112460  39.2522717
  56.4103079  35.5993128  37.1803212  55.4690170  35.8509231  36.6916752
  57.2243404  36.9443583  37.3089337  58.0950928  36.8535566  37.9582739
  57.8117990  37.3131919  35.8961368  58.1183100  38.3545518  35.9947181
  58.6309242  36.6495395  35.6191921  57.0957708  37.2912264  35.0746036
  56.3659525  38.0697417  37.8874397  56.1792660  37.9289722  38.9520669
  56.9454718  38.9844418  37.7626157  54.9838781  38.2760143  37.3027182
  54.6537447  39.2282796  37.7178144  54.9393654  38.3244729  36.2147045
  54.2329693  37.5614572  37.6398325  57.2325039  34.6315265  36.4349079
  58.2360649  34.0764737  36.9288635  56.7463493  34.2455673  35.2383995
  55.9100294  34.6814466  34.8769021  57.3976707  33.2851672  34.3422127
  57.8351068  32.5572872  35.0255394  56.2867308  32.7076745  33.4233403
  55.7862186  33.5949349  33.0355835  56.7830944  32.2684860  32.5579882
  55.2677345  31.7776728  34.1122293  54.6854305  32.4219942  34.7709250
  54.5333672  31.4208651  33.3900857  55.7895184  30.5943155  34.8734927
  56.4083338  29.9763489  34.2228937  56.3743639  30.8784175  35.7483315
  54.6598101  29.7003746  35.2933693  54.5869112  28.8438463  34.7631335
  53.8733101  29.9738622  36.3160706  53.9492798  30.9814024  37.1782088
  54.7974920  31.5262079  37.1164155  53.2547474  31.0960340  37.9024911
  52.8262043  29.2101407  36.5754628  52.7483130  28.3005476  36.1433983
  52.1204519  29.6343780  37.1603012  58.5627794  33.9317298  33.4618258
  59.6421051  33.3793354  33.4001088  58.4399748  35.2248025  32.9845572
  57.4612284  35.4700041  32.9395032  59.3263674  35.9208322  32.1996045
  60.3225708  35.8710074  32.6391459  59.4279099  35.1629019  30.8418179
  59.9528217  34.2307687  31.0508466  58.4872246  34.9752951  30.3241062
  60.2560663  35.6893277  29.6632290  61.5647411  35.4693270  29.4505501
  62.1900225  34.9470210  30.1595116  62.0261955  36.0075855  28.2995725
  62.9703999  35.8617973  27.9719734  61.1039114  36.7703605  27.6982927
  61.0949135  37.5256467  26.5311170  61.9940948  37.6655293  25.9494805
  59.9929667  38.3404040  26.2211275  60.0185299  38.9987540  25.3653646
  58.8684416  38.2681084  27.0679331  57.9934597  38.8834095  26.9188643
  58.8685226  37.4353480  28.1836295  58.0129957  37.4845409  28.8409352
  59.9498749  36.6593957  28.5468245  58.8519716  37.3193383  31.8967104
  57.6349497  37.4629593  31.5884781  59.7386312  38.2582784  32.0141244
  60.6607199  37.9347086  32.2693896  59.5976257  39.6534824  31.5864420
  58.5567188  39.7757196  31.2869668  59.8658562  40.5626440  32.7647781
  59.1685486  40.2346134  33.5356593  60.8385420  40.2759552  33.1645179
  59.7905636  42.0142794  32.3902893  58.5036898  42.7025557  32.3200226
  57.5845671  42.1610355  32.4884772  58.4737206  44.0576649  31.8921256
  57.5265837  44.5657063  31.7861485  59.6965551  44.7625971  31.8270826
  59.7036028  46.0829020  31.3957357  60.5725622  46.4905882  31.3784504
  60.8887959  44.1222334  32.0363569  61.8077946  44.6569586  31.8468571
  60.9655428  42.7329350  32.2809052  61.9511890  42.3401499  32.4824452
  60.4673386  39.9247980  30.2867651  61.4726686  39.2625237  30.0914550
  59.9526310  40.7011080  29.3203998  58.9800072  40.9349155  29.4598269
  60.6794405  41.1821222  28.1776166  61.6258383  41.5494061  28.5745168
  60.8701897  40.3015137  27.5642276  60.0541544  42.3159170  27.3540092
  59.2077208  42.9632139  27.9284596  60.5917025  42.6162815  26.1891961
  61.2968540  42.0001316  25.8107543  60.0788212  43.6597395  25.3439021
  59.1071272  44.0457010  25.6520414  61.0255527  44.8583460  25.2314162
  61.9105864  44.4812489  24.7189522  60.5697107  45.6414509  24.6255636
  61.3819408  45.3081179  26.6382861  60.4897022  45.5756283  27.2043681
  61.9127369  44.4735527  27.0963836  62.3211622  46.5314388  26.7330098
  63.2550001  46.7217588  25.9119177  62.1741104  47.3398399  27.8303242
  62.9014301  47.9778528  28.1202269  61.3417387  47.1685171  28.3761358
  59.8743105  43.1054640  23.9356947  60.5691195  42.2916603  23.3676600
  58.8849783  43.6264801  23.2700896  58.4513760  44.4572544  23.6467910
  58.4323978  43.2086420  21.8933988  59.2183304  42.6506567  21.3844132
  57.1486855  42.3294401  22.0577860  56.5076590  42.7183867  22.8489304
  56.6527128  42.3075438  21.0874081  57.4275303  40.8354759  22.3438096
  57.9502201  40.8169985  23.3001328  56.4982605  40.3048992  22.5512886
  58.3230209  40.0538301  21.3515854  58.8794327  39.0266991  21.7489529
  58.5857105  40.5108738  20.2637792  58.2317066  44.4579172  21.1439300
  57.0899963  44.8156500  20.8903337  59.3238544  45.1343155  20.7748246
  60.1341391  44.6859217  21.1779022  59.4857836  46.2407160  19.8702514
  60.5423832  46.4207697  19.6720505  58.8581800  45.7786655  18.5324073
  59.2179346  44.8536539  18.0818141  57.7826691  45.6433964  18.6467731
  58.9150143  46.8153095  17.3756611  58.4965324  46.4094400  16.4546585
  58.2857418  47.6723480  17.6156664  60.2732420  47.3443127  16.8538070
  60.9293890  47.7305508  17.6338005  60.7313538  46.4774656  16.3775516
  59.9697256  48.4626818  15.8144653  58.9430714  48.3204985  15.4770303
  60.0496244  49.3990517  16.3666737  60.8943653  48.3688879  14.6184564
  60.7842445  47.4497175  14.2146027  60.7654715  49.0623808  13.8955724
  61.8639374  48.4142065  14.8976994  58.9249802  47.5925970  20.4553747
  59.7786808  48.4689379  20.6543946  57.5748253  47.6898479  20.5895543
  56.9536638  46.9056082  20.4508924  56.8799448  48.8740253  21.1080265
  57.5153685  49.7580433  21.1614108  55.7219696  49.1757250  20.1533294
  55.0022984  48.3572388  20.1372623  55.1798630  49.9944782  20.6264710
  56.1921644  49.6636057  18.7250364  55.3304911  49.8931217  17.8568900
  57.3727512  49.8417234  18.4361112  56.3044834  48.5857439  22.4973059
  55.8878088  49.4768381  23.2247090  56.3595057  47.3521471  22.9226947
  56.9438124  46.7169046  22.3981428  55.7508469  46.9756222  24.1625166
  55.2558470  47.8214884  24.6395826  54.6779633  45.8789253  23.9523172
  55.1737165  44.9746227  23.5993814  54.2440462  45.6157684  24.9169731
  53.5886002  46.2148380  22.9691529  53.7165976  45.8878469  21.6716218
  54.6172190  45.3677702  21.3804102  52.7808523  46.4491320  20.7783175
  52.7901030  46.2748814  19.7125065  51.7242002  47.2011614  21.1936235
  50.7980776  47.4681664  20.1830769  49.9223185  47.4310827  20.5745792
  51.5035486  47.4256468  22.5552416  50.5905676  47.8801632  22.9105973
  52.5128365  46.9922400  23.4450793  52.3376083  47.2577715  24.4771600
  56.7501926  46.4564610  25.2255988  57.7494049  45.7867718  24.8682141
  56.4384556  46.6280699  26.4924693  55.5368328  47.0600176  26.6360044
  56.8863392  45.7985973  27.6033878  57.8636360  45.3905058  27.3456049
  57.1157742  46.6145420  28.8457704  56.1567020  47.1128511  28.9871120
  57.3550797  45.9147263  29.6464515  58.2464266  47.6380825  28.7191129
  59.2260933  47.5221252  28.0414414  58.1257534  48.5861111  29.5780492
  58.8349485  49.2968035  29.4682550  57.2711372  48.6771870  30.1085591
  55.8977365  44.6365499  27.7479815  54.7085094  44.8746395  27.4242234
  56.3653946  43.4695625  28.1855202  57.3341608  43.4223652  28.4672332
  55.5756044  42.2417259  28.2525325  54.5360041  42.5441313  28.3785653
  55.7148361  41.3145208  27.0172858  56.6543484  40.7619047  27.0225954
  54.5899677  40.2394867  27.1066356  54.1475248  39.7850800  26.2201452
  54.8838663  39.4260144  27.7699518  53.7457275  40.6355906  27.6709604
  55.5619526  42.1480608  25.7817388  54.6280527  42.7099752  25.7954073
  56.3018465  42.9336977  25.6286263  55.6554079  41.4149237  24.9805689
  55.9736776  41.3780499  29.5434666  57.1734524  41.2086630  29.7983718
  54.9480820  40.9720564  30.3126526  54.0067673  41.1732244  30.0067806
  55.0351906  40.1243973  31.5484023  56.0764837  39.8385191  31.6970325
  54.6296597  41.0324001  32.7095366  55.2219248  41.9189167  32.4827933
  53.5680246  41.2447596  32.5832915  54.8798275  40.4413748  34.1551661
  54.2306089  39.5727444  34.2651510  56.3623619  40.1572800  34.3162823
  56.9546413  41.0638809  34.1923332  56.4631510  39.8423004  35.3549027
  56.8009186  39.4768476  33.5863709  54.4767141  41.3846779  35.2731657
  53.4066916  41.5862322  35.2229095  54.6743298  41.0039663  36.2752151
  55.1184464  42.2610521  35.1822925  54.2241240  38.8867712  31.3703799
  53.0247068  39.0172434  31.0992575  54.7820377  37.7189684  31.6187620
  55.7436800  37.6014256  31.9043040  54.1414547  36.3519716  31.6328120
  53.1411934  36.4435530  31.2095070  54.9162865  35.3357053  30.7887626
  55.8712244  35.2362895  31.3048100  54.1836071  33.9949059  30.6869221
  54.8401546  33.3198547  30.1379585  53.9259434  33.6876464  31.7004824
  53.2222700  34.0485334  30.1759934  55.2082539  35.8505917  29.3210602
  55.8356905  35.1715994  28.7436557  54.2843628  36.1567760  28.8303614
  55.7637882  36.7772388  29.4653034  54.0388489  35.8678150  33.0861783
  54.9823809  35.8285308  33.8931298  52.8649378  35.3437209  33.5219955
  52.1086264  35.2850151  32.8551793  52.4814892  34.9553156  34.8976946
  53.2651329  34.4744706  35.4831767  52.1890116  36.2910700  35.6027269
  52.2293949  36.1871290  36.6870070  53.0072641  36.9610906  35.3388453
  50.9396505  36.9425464  35.0661755  50.8743763  36.7853260  33.9895487
  50.0912523  36.3332200  35.3776884  50.5962849  38.7153077  35.3944302
  50.5244637  38.5049939  37.2175574  50.2131653  39.4777322  37.5983095
  49.7788334  37.7470040  37.4575233  51.5135717  38.2407999  37.5916719
  51.3706446  33.8957191  34.9708414  50.8268404  33.4824491  33.9542198
  50.9794712  33.3999181  36.1773872  51.5708685  33.5490489  36.9824386
  49.9327707  32.3771572  36.2790084  50.3807211  31.5389991  35.7452202
  49.6697617  31.9205880  37.7150297  49.2878962  32.7332020  38.3330441
  48.8664532  31.1865306  37.7778673  50.8747768  31.2086058  38.3805299
  50.7575560  29.9760437  38.5454369  51.8387413  31.7912054  38.7755537
  48.6025858  32.7658916  35.5840468  48.0231047  33.8468051  35.7680011
  47.9163265  31.8137860  34.8738909  48.3122158  30.8852434  34.9082446
  46.6312933  32.0320511  34.2476296  46.5734243  32.9444671  33.6541247
  46.3996935  30.9007525  33.3127761  47.0932531  30.9413552  32.4728799
  46.6668224  29.9452949  33.7642622  44.9129677  30.7497144  32.9188561
  44.2867136  30.7456613  33.8109851  44.4450140  31.9678140  32.1042705
  44.9558783  31.9154882  31.1428261  43.3954287  31.9351339  31.8120313
  44.8191214  32.9009819  32.5253892  44.5727205  29.4863105  32.1487427
  45.2359676  29.2507148  31.3164568  44.6073580  28.6817765  32.8833365
  43.6186314  29.4303036  31.6246438  45.6230831  32.0777464  35.4031658
  45.7483196  31.1654425  36.3020158  44.5958281  32.9556966  35.4049563
  44.6707344  33.7057352  34.7326970  43.6230803  33.0674887  36.5227771
  43.7033272  32.1820641  37.1534061  43.8923359  34.3139338  37.3664522
  43.9371157  35.1841736  36.7116451  43.0737543  34.3415713  38.0856609
  45.1990986  34.2704415  38.1859803  46.0472155  34.0689278  37.5316167
  45.3423452  35.6353569  38.9070106  44.4322872  35.8666348  39.4605470
  46.2129402  35.5915380  39.5614147  45.4855299  36.3306093  38.0798340
  45.1679564  33.1471276  39.1449380  44.3172789  33.3597016  39.7924376
  45.1655388  32.1568966  38.6893725  46.0210371  33.1460762  39.8234296
  42.1979809  33.0807328  35.8486772  42.0215511  33.3133912  34.6057677
  41.2866068  32.6566100  36.6831040  41.5963459  32.6807308  37.6441360
  39.9009061  32.8964663  36.4550281  39.6396232  32.4533033  35.4940701
  39.3273258  32.4376154  37.2603607  39.4269991  34.3826842  36.5282774
  40.2769136  35.2384448  36.4219069  38.1336880  34.6810269  36.6868496
  37.0133901  33.6735082  36.6373491  36.7042017  33.4447074  37.6572299
  37.2904563  32.7446079  36.1388707  35.8290124  34.3154860  36.0349226
  34.9068093  33.8559985  36.3906121  35.7761955  34.1309738  34.9619532
  36.0699868  35.7859564  36.3666248  35.5622268  35.9383130  37.3190260
  35.6944895  36.5093184  35.6428480  37.5688314  36.0146737  36.5518022
  37.9415274  36.4249444  35.6132460  37.7760434  36.9691372  37.7540231
  37.9969883  36.5840626  38.9361954  37.6366115  38.2472229  37.4602962
  37.2920752  38.3552408  36.5170431  37.5783944  39.3286109  38.4701586
  38.4297538  39.3167138  39.1507125  37.6584888  40.6213045  37.6807213
  37.7143717  41.4382029  38.4002066  38.5668564  40.5966568  37.0787573
  36.5589118  40.8825016  36.7041564  36.7908335  41.7599583  36.3912868
  36.2868404  39.2606330  39.2395163  35.2516603  38.8299656  38.7249970
  36.3016748  39.6684337  40.5322456  37.1547270  39.9465942  40.9959555
  35.0807595  39.9017954  41.3114405  34.4326305  39.0266442  41.3576984
  35.4333067  40.4017496  42.7457952  36.3195467  41.0187769  42.5976324
  34.5757389  40.9235430  43.1705475  35.8633208  39.2552543  43.6368084
  36.8289685  38.8689184  43.3106613  36.1456203  39.7970915  45.0119591
  35.2224803  39.8806429  45.5854845  36.8763399  39.1923165  45.5489874
  36.6830254  40.7377529  44.8917580  34.8651409  38.0519342  43.8248205
  34.6949339  37.6156044  42.8405714  35.2652478  37.2488379  44.4437408
  33.9153934  38.4221220  44.2108822  34.1954136  40.8847427  40.5975199
  32.9879522  40.7483196  40.7514000  34.6443391  41.8363190  39.8033118
  35.6443667  41.9374561  39.7041965  33.7304807  42.7089930  39.0112758
  32.9930854  43.1589603  39.6760178  34.5323539  43.9090204  38.3562398
  34.9659967  44.5434713  39.1292381  35.3053617  43.3383656  37.8415418
  33.8170743  44.7496462  37.2982883  34.6186900  44.8430586  36.5656304
  32.9691815  44.2795944  36.8000627  33.2573485  46.0394907  37.8760171
  33.5730362  47.0917654  37.2585487  32.5339484  45.9879112  38.8521862
  32.8695416  41.9417906  38.0496550  31.6182399  42.1025229  38.0803227
  33.4973216  41.0635185  37.1786070  34.4687700  40.8410597  37.3426104
  32.7542806  40.1714087  36.2917781  32.1615338  40.7880592  35.6161356
  33.7712002  39.4466329  35.4395270  34.3085909  40.2504396  34.9363303
  34.5286226  38.9487028  36.0449123  33.3424735  38.5397410  34.3250704
  32.1671271  38.5535383  33.9152884  34.1792083  37.9849982  33.5720611
  31.7738438  39.2283225  37.0215464  30.5640984  39.0753365  36.6975045
  32.3330712  38.5352850  38.0114961  33.2751322  38.8242245  38.2331562
  31.5074849  37.6503372  38.8396931  31.0786414  36.8947554  38.1814408
  32.3327684  36.8287945  39.8004937  32.9017353  37.5773454  40.3519058
  31.6217351  36.2619948  40.4015493  33.3554769  35.9523058  39.1466665
  33.7320948  36.3702846  38.2130957  34.5913649  35.6242418  40.0205135
  35.3692555  35.1552248  39.4180107  34.9690413  36.5702748  40.4084396
  34.3626666  34.9223661  40.8224916  32.6909995  34.5684481  38.7974381
  33.4457946  33.9425945  38.3213067  32.3689008  34.1692901  39.7592211
  31.8199110  34.7305918  38.1626058  30.3882480  38.3683944  39.5381093
  29.2759585  37.9058385  39.4385529  30.5159760  39.4676232  40.2006960
  31.3762856  39.9943757  40.1506424  29.4601560  40.3036165  40.7525015
  28.8124633  39.8976135  41.5295219  30.0563073  41.5923738  41.4010620
  30.8360362  41.4017582  42.1384859  30.5553961  42.0972824  40.5739737
  28.9832997  42.5879860  41.9509983  28.3074760  42.1925116  43.1718779
  28.4311628  41.2562752  43.6958647  27.3470497  43.1171417  43.6654758
  26.7301369  42.8090858  44.4966936  26.9891143  44.2451334  42.9603958
  26.1861420  44.9313974  43.1855106  27.7317691  44.6041822  41.8326569
  27.4482131  45.4677153  41.2492943  28.7311292  43.8079882  41.3580608
  29.1818380  44.0661240  40.4111576  28.4091854  40.6974411  39.6290731
  27.1803689  40.5212402  39.9272346  28.8277292  41.1365891  38.4399533
  29.7378135  41.5340853  38.2559896  27.7953315  41.4386749  37.4352908
  27.0092726  42.0911694  37.8153729  28.5213256  42.0258951  36.2215948
  29.5414591  41.6486788  36.2932587  27.9933286  41.7082548  35.3224707
  28.6448383  43.5523748  36.2875724  27.8131485  44.3062782  35.7595730
  29.6661854  44.0313339  36.8808079  29.7321320  45.0391769  36.8786430
  30.3688574  43.3786726  37.1976256  26.9771194  40.2121162  37.0672393
  25.7368970  40.2460814  37.0453477  27.6304173  39.0484452  36.8338919
  28.6306906  38.9615989  36.9434834  26.9502091  37.8113317  36.5148664
  26.5463972  37.9348302  35.5099821  27.9959726  36.6860962  36.5779710
  28.8803244  36.9611120  36.0031772  28.4059119  36.5167546  37.5736523
  27.4641109  35.2866530  36.2138605  26.6695714  35.1754832  35.0437522
  26.2539411  36.0141444  34.5049548  26.1649776  33.9367080  34.6808910
  25.5927229  33.7635589  33.7814784  26.4708328  32.8281856  35.4469490
  26.1264229  31.8444419  35.1640511  27.3060989  32.9595065  36.6171765
  27.5807405  32.0509601  37.1324587  27.7922201  34.1922903  37.0183206
  28.2168555  34.2707348  38.0082345  25.7788825  37.5232029  37.5044298
  24.6729302  37.2541142  37.0547509  25.9848857  37.6569080  38.8423800
  26.9464660  37.8910780  39.0439510  25.1612854  37.2088575  39.9340820
  24.5405126  36.3350224  39.7362089  26.0151267  36.8559957  41.1886358
  26.4774323  37.7395940  41.6286707  25.4119754  36.3478255  41.9410133
  27.3964405  35.7808852  40.7082033  28.1392455  36.7759037  40.2151775
  24.0385914  38.3026600  40.2542400  23.7716413  38.5732126  41.4049721
  23.5473013  38.9203596  39.2075038  23.9128351  38.6414909  38.3082151
  22.4887300  39.9784780  39.2199111  22.5481558  40.4424477  38.2353783
  21.0725093  39.4479442  39.4593596  20.9672642  39.0453291  40.4667950
  20.4237914  40.3230524  39.4211936  20.9774017  38.4868312  38.4296584
  21.3002992  37.6293612  38.7161565  22.8395081  41.0797596  40.2361870
  21.9760752  41.6095161  40.9704685  24.0832305  41.5419054  40.0965023
  24.6864009  41.0509729  39.4520831  24.7330284  42.6894951  40.8328962
  25.8116531  42.5453186  40.7705641  24.4293213  44.0264750  40.2256918
  23.3396459  44.0448046  40.2064848  24.7307873  44.8737144  40.8416510
  25.1076603  44.1205359  38.8413715  26.1835527  44.2679405  38.9353323
  24.9522758  43.2585287  38.1926036  24.5057559  45.3152609  38.0520654
  24.9196863  45.1604080  37.0556808  23.4215569  45.2540302  38.1462073
  24.9547911  46.6248035  38.5405707  25.3943920  46.5689182  39.4481683
  24.6935391  47.7655506  38.0074763  23.9974999  47.9542446  36.9133115
  23.5662341  47.1976042  36.4018369  23.8078666  48.8991928  36.6112900
  24.9831271  48.8409519  38.6518073  25.2877569  48.8824320  39.6138787
  24.6727419  49.6941280  38.2092571  24.3730116  42.6250601  42.3645115
  24.0246391  43.6024427  42.9810047  24.4973135  41.4401531  42.9954100
  24.7364354  40.6716347  42.3852348  24.1427398  41.0810232  44.3484592
  24.4945002  41.8480921  45.0383663  22.6410866  40.7695723  44.3228579
  22.1175575  41.6749573  44.0157747  22.3506761  40.0136614  43.5932302
  22.1361399  40.4670429  45.7728291  22.8871393  39.8340702  46.2455273
  22.0841312  41.3962698  46.3402176  20.7381892  39.7939420  45.8180666
  20.5920601  39.6700883  46.8911028  19.9565876  40.5004597  45.5387259
  20.6745338  38.4988713  45.1270580  21.5060234  37.9445696  45.2736139
  19.8735631  37.9215431  44.2439270  18.7393785  38.4467936  43.8735771
  18.3416343  39.1368365  44.4946575  18.1445765  37.9994369  43.1907988
  20.2741218  36.8089056  43.7491083  21.2228131  36.5416217  43.9696646
  19.7753263  36.3525343  42.9987574  24.9597597  39.7648120  44.7458649
  25.0661063  38.8134789  44.0085888  25.4568768  39.7791195  45.9302568
  25.2558184  40.5619335  46.5359640  26.1289835  38.6006904  46.4867735
  26.0675311  37.7025175  45.8722734  27.5846744  38.8799214  46.8490696
  27.6832604  39.8881054  47.2514963  27.9895997  38.1514645  47.5515556
  28.5816574  38.8828397  45.6720400  28.3674312  38.1378436  44.4815493
  27.4111557  37.6393890  44.4224977  29.4094467  38.0595064  43.4814596
  29.2251611  37.4469709  42.6112652  30.5712175  38.8071752  43.6562634
  31.3654280  38.8125539  42.9244089  30.6833053  39.6119618  44.8043680
  31.5033650  40.2972555  44.9601793  29.7827077  39.6293235  45.8349657
  29.9470425  40.2810287  46.6803551  25.3679538  38.3094668  47.8043270
  24.8859072  39.2183018  48.5360050  25.2540469  37.0080137  48.1939840
  25.5762959  36.3640237  47.4857950  24.8355794  36.4723635  49.5013762
  23.7882566  36.7433572  49.6347189  24.8006225  34.9545598  49.5846701
  24.5672798  34.6515679  50.6053877  23.8615394  34.2470527  48.6326265
  23.5876298  33.2781053  49.0500212  22.9066658  34.7554827  48.4991407
  24.2573667  34.0617800  47.6340818  26.0154366  34.4036555  49.1931820
  26.0865974  34.4057584  48.2358265  25.7778764  37.0851254  50.6156349
  26.9551945  37.4224377  50.4066229  25.2989793  37.2882009  51.8739796
  24.3269897  37.1000791  52.0738554  26.1210155  37.8419709  53.0127192
  26.5042424  38.8283491  52.7513790  25.2566552  37.9854751  54.3217278
  24.3881416  38.5592175  53.9982986  24.8732877  36.9901776  54.5464754
  26.0637784  38.6652827  55.4848671  25.3952861  38.6255765  56.3448906
  26.9009948  38.0099177  55.7250023  26.5280151  40.3566837  55.1416683
  24.8485851  41.2231064  55.2598095  24.1891742  40.9077406  54.4512177
  24.3852139  41.0078859  56.2226534  25.0282025  42.2807598  55.0669241
  27.2735906  36.8525529  53.3633852  28.3803630  37.2415352  53.5682535
  26.9853115  35.5293322  53.1260443  26.0324526  35.2276111  52.9806995
  27.9723740  34.4563127  53.1223202  28.4250879  34.4676876  54.1137981
  27.3425102  33.0753469  52.9293537  26.6342187  33.0081248  53.7551308
  26.9025469  33.1588221  51.9355917  28.3301091  31.9005704  52.9207945
  29.2347836  32.2316408  52.4108410  28.7147856  31.8495321  53.9393806
  27.8718519  30.5760717  52.2599220  27.0003748  30.2712369  52.8393221
  27.6691127  30.7254243  51.1994076  29.0208054  29.5839381  52.4849463
  29.7541547  29.8497200  51.7235947  29.4225597  29.5702934  53.4981155
  28.5177660  28.1994009  52.2663927  27.9259276  28.1959748  51.4479685
  29.2786121  27.5476432  52.1382189  28.0638528  27.8216052  53.0857420
  29.0342259  34.8041821  52.1040487  30.1834154  34.8621869  52.5069475
  28.7455583  35.0549769  50.8431911  27.7800846  34.9510479  50.5654144
  29.8736596  35.4267335  49.8702955  30.6330037  34.6479225  49.7999239
  29.2871356  35.5069637  48.4230614  28.4526801  36.2042236  48.3481359
  30.3050280  35.9312224  47.4245930  29.8590446  36.0290098  46.4348269
  30.6548071  36.9169593  47.7313137  31.1298084  35.2350450  47.2723341
  28.8608122  34.2468429  47.9654741  27.9443645  34.3345404  47.6933670
  30.6390691  36.6523814  50.2216291  31.8592143  36.7673135  50.1714420
  29.9609780  37.6997209  50.6484699  28.9523792  37.6654243  50.6891108
  30.5865860  39.0333748  50.8609486  31.1531162  39.2584610  49.9573565
  29.4111156  39.9980450  51.0346317  28.7415385  39.5346141  51.7592001
  29.7888756  41.3511086  51.5426588  30.3151035  41.8887186  50.7538843
  28.8677716  41.7796898  51.9376135  30.5361176  41.3434124  52.3361778
  28.5409856  40.2525234  49.8278093  28.1610990  39.2593956  49.5880318
  27.6582932  40.8226633  50.1174545  29.0917158  40.6772709  48.9885330
  31.5187645  39.0444541  52.1311903  32.6099181  39.6508837  52.0388699
  31.0164928  38.3978343  53.2700300  30.0833011  38.0135465  53.3097172
  31.8842244  38.2233381  54.4380951  32.4308395  39.1595888  54.5510054
  31.0038280  37.7541733  55.6272793  30.5527854  36.7896652  55.3940630
  31.6765904  37.5164342  56.4512730  29.9124765  38.7161899  56.0440302
  29.2191195  38.9523125  55.2368116  29.1597986  38.0137753  57.1687984
  29.8043585  37.7088785  57.9932261  28.3210301  38.6070466  57.5329399
  28.7421370  37.0854807  56.7790174  30.4499197  40.0219059  56.6497135
  29.7389174  40.7675648  57.0054817  31.0424423  39.7874355  57.5340462
  31.0741830  40.5269814  55.9126282  32.9201603  37.1696281  54.0584135
  33.9427018  37.2423077  54.7024202  32.6487970  36.2124062  53.2329512
  31.6869593  36.0883379  52.9508638  33.5962296  35.1319814  52.8649521
  34.0848231  34.8995066  53.8111734  32.8837681  33.8915849  52.2108507
  32.2492075  33.5256076  53.0180025  32.3278904  34.2230535  51.3337898
  33.8469863  32.7412105  51.7806911  34.2322946  32.9429245  50.7812166
  34.6558118  32.6244688  52.5019932  33.0440402  31.1725664  51.6669703
  31.8760347  31.4804840  50.2999687  32.4508142  32.0127678  49.5420742
  31.4949489  30.5329370  49.9191380  31.0706830  32.1208429  50.6597614
  34.7721481  35.5593777  52.0312929  35.8475542  34.9744678  52.1882677
  34.5785546  36.5124965  51.0865498  33.5974455  36.7319226  50.9897137
  35.6353188  37.2445416  50.3732157  36.2521768  36.4062214  50.0494671
  34.9576139  37.9355907  49.1571188  34.1942215  38.5983872  49.5645952
  35.6167769  38.5735035  48.5683298  34.4150066  36.9241810  48.1071329
  33.8572812  36.0788798  48.5102558  33.3353424  37.5253916  47.2376728
  33.7567735  38.3436966  46.6538334  32.8656197  36.7026854  46.6985846
  32.6402259  38.0440617  47.8978968  35.5573010  36.2941480  47.2826576
  36.1050773  37.0400596  46.7067575  36.2993050  35.8691549  47.9586077
  35.1395917  35.5243897  46.6337395  36.4533019  38.1777215  51.2043571
  37.6364732  38.2590103  51.1644983  35.6667495  38.9011550  52.0295382
  34.6569872  38.8795090  52.0264244  36.2363267  39.8999882  53.0167007
  36.5587711  40.7738829  52.4506283  35.2274942  40.4377556  54.0505838
  34.7828817  39.6303916  54.6324682  35.6911635  41.1602926  54.7221899
  34.4279623  40.9626055  53.5277271  37.5138068  39.3442822  53.7136889
  38.4900904  40.0096416  53.7232828  37.4001145  38.1202722  54.2293024
  36.5712047  37.5863624  54.0103292  38.5430980  37.3958373  54.9387407
  38.8405323  37.9078102  55.8538961  38.0183387  35.9827662  55.1917934
  37.3729825  35.9464812  56.0694599  37.5326443  35.6824255  54.2633533
  39.0879202  34.9905348  55.4673815  39.0755558  33.9147568  54.8098421
  39.8328328  35.2243018  56.3948822  39.8320770  37.3299980  54.0840673
  40.9517193  37.5426888  54.6249819  39.7026014  37.0172238  52.7737331
  38.7266421  37.0331526  52.5142193  40.8108997  36.9460535  51.8161821
  41.6882563  36.5610814  52.3359346  40.5459213  35.9348726  50.6785345
  40.1162434  36.5010476  49.8521423  41.5049076  35.5194426  50.3689146
  39.6585965  34.7024059  51.0871172  39.9150729  34.5000076  52.1269989
  38.6321521  35.0684452  51.0641289  39.8339295  33.4261560  50.2004719
  40.7346344  33.3758998  49.3302727  38.9666986  32.4293709  50.2727556
  39.0254354  31.6509342  49.6319056  38.3250046  32.3664093  51.0501623
  41.1359835  38.3666253  51.2554502  42.3369265  38.6432815  50.9781361
  40.2094030  39.2945194  50.9747410  39.2665362  39.0207553  51.2117052
  40.5399036  40.6811571  50.6177092  41.0106421  40.7685947  49.6384954
  39.2042971  41.4761829  50.3753948  38.5937619  41.4311123  51.2772369
  39.6058536  42.4417114  50.0678015  38.4509587  40.9254265  49.2128754
  39.0825558  40.9355402  48.3245707  38.2521105  39.8855662  49.4722033
  36.8268085  41.7453575  48.7882996  37.3755026  42.9391909  47.5202799
  36.4839983  43.4508038  47.1575451  38.1028008  43.6099100  47.9777527
  37.8013754  42.4151993  46.6646147  41.4470816  41.3912392  51.5899992
  42.4209118  42.0070362  51.1511660  41.0534859  41.2357855  52.8798771
  40.2544546  40.6593990  53.1022167  41.9811249  41.6698551  54.0052414
  42.1260548  42.7440834  53.8906670  41.2193489  41.5039587  55.3843737
  40.8427095  40.4858685  55.4830503  42.3066950  41.7454433  56.4237213
  41.8341112  41.9087172  57.3922825  42.8824425  40.8317280  56.5711594
  42.8562021  42.6616526  56.2076187  40.1246881  42.5285387  55.5162477
  40.4926729  43.5408592  55.6832743  39.5008564  42.4235821  54.6286011
  39.2193723  41.9593525  56.6766167  38.4092784  42.6162291  56.9934177
  38.8086033  40.9959459  56.3746023  39.7895765  41.8222809  57.5954056
  43.3561611  41.0333204  53.9221621  44.3855953  41.7636442  54.0197372
  43.4175968  39.7019148  53.7692595  42.5202036  39.2810893  53.9634085
  44.5830011  38.7783289  53.7880898  45.1401663  38.9652491  54.7060871
  44.1935730  37.2766161  53.7915516  43.5517406  36.9714427  52.9650974
  45.1046944  36.6786647  53.8120079  43.4962654  37.1272993  55.0421762
  42.5697517  37.3259974  54.8882389  45.5362988  39.0389776  52.6744699
  46.7259359  38.8929605  52.9743671  45.0621891  39.5582271  51.5349960
  44.0548372  39.5174861  51.4742565  45.9521961  40.0677299  50.4921627
  46.8025684  39.4189000  50.2824259  45.2152157  40.0921679  49.1692686
  44.3254805  40.7034683  49.3202114  45.9146595  40.5323839  48.4585714
  44.7563171  38.7307811  48.5938644  43.9244080  38.3798623  49.2045069
  44.3685198  38.9504623  47.5991488  45.8754206  37.6782227  48.4054327
  45.7096148  36.9821429  47.5831890  46.7899561  38.2375741  48.2083178
  46.1441040  36.9484353  49.5826149  47.0052004  37.0680737  50.0967169
  45.3546000  35.9389949  49.9768782  44.2447138  35.4528594  49.3817186
  44.0353680  35.6879282  48.4220219  43.9103174  34.5285630  49.6140051
  45.8082342  35.3751802  51.0347986  46.6873980  35.6572104  51.4442205
  45.2996349  34.7189760  51.6099787  46.5475750  41.3812876  50.8452177
  47.7390051  41.6217184  50.6587934  45.7801580  42.3274326  51.3165283
  44.8009729  42.1048832  51.4250374  46.2042236  43.6765909  51.7490625
  46.8351030  44.0089369  50.9246588  44.9711275  44.6081734  51.9298267
  44.2046833  43.9796019  52.3832226  45.1860380  45.8996153  52.6868868
  45.7342625  46.7121649  52.2101212  44.2296505  46.2779665  53.0478334
  45.6761408  45.6451273  53.6266375  44.3477726  44.9253893  50.5421019
  44.3617344  43.9982653  49.9690819  43.3285999  45.3002739  50.6361198
  45.0718212  46.0298061  49.8198652  44.6337366  46.9126177  50.2855062
  46.1584330  46.0317326  49.9057531  44.7591352  45.9574032  48.7781906
  47.2334671  43.4683514  52.8851748  48.2912779  44.0903616  52.8176546
  46.9856739  42.6000881  53.8117933  46.0812569  42.1932888  54.0032196
  47.9655075  42.4470282  54.9064016  48.0593109  43.4123325  55.4038954
  47.3063374  41.4236212  55.8958673  46.4717388  41.8954897  56.4144087
  46.8446779  40.6241655  55.3163481  48.3225632  40.8114481  56.9773006
  49.2134190  40.3656673  56.5348530  48.6950827  41.6233349  57.6019382
  47.6304531  39.6979904  57.6995468  47.0595694  38.8128257  57.0174265
  47.4575520  39.6504784  58.9620161  49.3081188  41.8972111  54.4291973
  50.3551006  42.4114132  54.8807526  49.3305206  40.9173965  53.4786940
  48.4585190  40.5234528  53.1553936  50.6055927  40.4725933  52.8633976
  51.2865400  40.2000475  53.6697006  50.4027557  39.1653013  52.0855999
  49.8246622  38.4219861  52.6345825  49.7581005  39.4947672  51.2707520
  51.6337109  38.4798741  51.5430117  52.4412966  37.7920842  52.4287224
  52.1169567  37.6560998  53.4498549  53.6249495  37.2397590  51.9388008
  54.2981482  36.8282390  52.6762724  53.9969778  37.3997283  50.5476618
  55.2440643  37.1546531  50.0841475  55.2740192  36.5188885  49.3654585
  52.9792118  37.8934407  49.6551228  53.2263994  37.9038358  48.6038399
  51.8231201  38.4922838  50.1599073  51.2373972  39.0419817  49.4379902
  51.3114405  41.5692329  52.0630455  52.5030518  41.8565369  52.3836088
  50.6015539  42.2970486  51.1691904  49.6384573  42.1230364  50.9196663
  51.3041258  43.3756876  50.4915714  52.1686411  42.9536629  49.9791145
  50.4640484  43.9978552  49.4062662  49.6026945  44.4723272  49.8764277
  51.0492086  45.1959276  48.5303020  50.4171324  45.4603148  47.6825523
  51.0907936  45.9673929  49.2992020  52.0714808  44.9284506  48.2628727
  50.0398540  42.9125357  48.3339977  49.3572330  43.4262991  47.6571035
  50.8832169  42.4728012  47.8015757  49.4612122  42.0869255  48.7482929
  51.7557192  44.4867706  51.4233208  52.8892660  44.9834585  51.2592840
  51.0542345  44.7331810  52.5325918  50.2824116  44.1179037  52.7466631
  51.3004827  45.8285427  53.4235620  51.6102934  46.6782284  52.8151608
  50.1364946  46.1334991  54.2753410  49.6406412  45.1981401  54.5348454
  50.4727459  46.6119480  55.1951885  49.1218996  46.9680452  53.5019732
  48.0394077  47.6065969  54.1386986  47.4877262  48.3329058  53.1596994
  46.5941000  48.9294672  53.2690048  48.1821012  48.2473373  51.9862509
  48.0410910  48.9280605  51.2535620  49.2118406  47.3384571  52.1801138
  50.0150919  47.0048809  51.5398550  52.4540663  45.5737114  54.3810844
  53.2936811  46.4382505  54.6644354  52.5294399  44.3469429  54.8571587
  51.7800188  43.7013197  54.6531057  53.6315870  43.8107491  55.6237364
  53.9077187  44.5894480  56.3347101  53.1670427  42.6401997  56.5328646
  54.0133905  42.3669338  57.1630430  52.0716572  43.0384350  57.5471115
  52.4462795  43.8210297  58.2068920  51.2404537  43.4663773  56.9866943
  51.7425203  42.1954107  58.1546307  52.6914597  41.4201307  55.8734655
  51.7626429  41.5810442  55.6917906  54.8661232  43.4592438  54.7676229
  55.9690332  43.2537842  55.3896999  54.8716497  43.5417271  53.3934021
  53.9772367  43.4334278  52.9368973  56.0285854  43.5490274  52.4847317
  56.8808317  43.0782843  52.9748106  55.8337784  42.7451658  51.2038612
  54.9498463  43.1253052  50.6917477  56.6393471  43.0259705  50.5253983
  55.8327150  41.1982584  51.3674212  55.0421143  40.9114695  52.0608187
  55.5750608  40.8208466  50.3778362  57.0743895  40.5047607  51.7690516
  57.8455687  40.6665230  51.0159111  57.4505711  40.8961535  52.7142525
  56.9026184  38.9528108  51.9185972  56.0802937  38.7002635  52.5880051
  56.6604042  38.3872366  51.0188437  58.0814028  38.3452606  52.5839090
  58.6720133  38.0765057  51.8099213  58.4922981  38.9572120  53.2744026
  57.7991772  37.5591040  53.1517172  56.5163851  45.0229740  52.2344828
  57.3724174  45.2398968  51.4281082  55.9362459  46.0116434  52.9145527
  55.1154327  45.7236147  53.4277916  56.0982895  47.4364138  52.9500389
  55.4990864  47.9107332  53.7272596  57.5953674  47.7254915  53.3036280
  58.3232594  47.2104692  52.6767111  57.7942753  48.7899065  53.1789112
  57.7548170  47.3375463  54.8044348  56.8564844  46.8013573  55.4297400
  58.8649654  47.6423311  55.3698111  59.1741896  47.2515154  56.2482977
  59.4246244  48.2810450  54.8230696  55.6496334  48.2218933  51.6972446
  55.9762812  49.3667221  51.5631151  54.7933674  47.5858974  50.9076309
  54.4945621  46.6708612  51.2134552  54.0061331  48.2420635  49.7663832
  54.5287514  49.1666603  49.5212412  54.0647411  47.2928047  48.6156321
  53.6943865  46.3563156  49.0326834  53.5081244  47.5344372  47.7101517
  55.4444122  47.1161604  48.1428146  56.2229586  45.9782648  48.5035038
  55.8468342  45.1736927  49.1179895  57.5044537  45.8771324  48.0505419
  58.0954409  45.0319147  48.3710861  58.0488110  46.7269897  47.1034622
  59.0531540  46.4920664  46.7832947  57.3572445  47.8973484  46.7694664
  57.7187109  48.5902309  46.0240412  56.0424471  48.0630875  47.3019361
  55.4648399  48.8881779  46.9120646  52.5179243  48.6745691  50.0478220
  51.9126081  48.1651354  51.0273886  52.0019341  49.5006847  49.1280890
  52.6448345  49.8542356  48.4339809  50.6622076  50.0730753  49.0505600
  49.9914265  49.3455124  49.5075130  50.5513811  51.4202309  49.7729588
  49.5596790  51.7769909  49.4948339  50.4402781  51.2056971  51.3109398
  49.5701075  50.6067514  51.5795851  51.2573004  50.6400156  51.7587996
  50.3215075  52.1370077  51.8647003  51.5145254  52.5321054  49.3074417
  52.4952364  52.1924210  49.6404886  51.3575840  52.7237463  48.2459593
  51.2740707  53.8518715  49.9793100  51.6002464  53.7773180  51.0166931
  52.0001936  54.5657396  49.5904064  50.2576351  54.2307425  49.8724747
  50.2257156  50.2436066  47.5693130  51.0283566  50.5279303  46.7220259
  48.9541149  50.0112343  47.3664618  48.3654881  49.8183632  48.1642199
  48.3353138  49.7764158  46.0638571  49.0174723  49.3416500  45.3332758
  47.1709394  48.7354660  46.2128305  47.5567436  47.7941942  46.6043186
  46.4117336  49.1484690  46.8770075  46.5598345  48.3833694  44.8870182
  45.7228851  49.1856337  44.1483831  45.5729771  48.5320044  43.0222750
  44.7982073  48.7905741  42.3156786  46.3419485  47.4179363  42.9337454
  46.4031410  46.7989731  42.1379805  47.0290327  47.3283958  44.0860271
  47.6729584  46.4999008  44.3416739  47.9142714  51.0415459  45.3774691
  48.1792927  51.2686729  44.2531252  47.2648668  51.9383955  46.1237955
  47.0919847  51.6196299  47.0664549  46.7536926  53.3134365  45.8430719
  46.3862753  53.7372637  46.7776728  47.9337311  54.2481709  45.5087852
  48.3406258  53.9678860  44.5372009  47.6488733  55.2955151  45.4086351
  49.1036749  54.2031097  46.4407921  48.8197184  54.1856098  47.4930096
  49.6831036  53.3207226  46.1691904  49.9828720  55.3989172  46.2841702
  49.5810699  56.3830662  46.5252256  50.8361149  55.2573872  46.9475269
  50.6409693  55.4894781  45.0028801  50.6070900  54.6917868  44.3842983
  51.4131403  56.4092350  44.4190216  51.6085148  57.5739002  44.9066448
  50.8487558  57.9101229  45.4809427  52.2462225  58.1702471  44.3988991
  51.9434404  56.0957146  43.3136463  52.0183468  55.1578188  42.9464340
  52.2850418  56.8282223  42.7079725  45.5253839  53.4262133  44.8818254
  44.8872662  54.4947243  44.8007917  45.0684738  52.2474241  44.3358278
  45.4850292  51.3658047  44.5991373  43.9640665  52.2041368  43.3732939
  43.2801199  52.9874325  43.7000370  44.6356678  52.4795389  42.0275068
  45.2851963  53.3422518  42.1756601  45.3364706  51.6572189  41.8834162
  43.5613155  52.6731014  40.9193611  42.6590824  53.5035801  41.0559607
  43.6023092  51.9871044  39.8826909  43.2044315  50.8906317  43.3749485
  42.9286909  50.2352381  42.3540497  42.7789402  50.5746269  44.5866585
  43.1075907  51.1593485  45.3417683  41.9150066  49.4002247  44.7821617
  42.3720741  48.5155058  44.3389177  41.7810774  49.2793751  46.3003731
  41.4692974  50.2120495  46.7704964  40.6752205  48.2244587  46.5835428
  40.8465719  47.8163958  47.5796461  39.6656561  48.6208868  46.4752245
  40.8430910  47.4824333  45.8029604  43.1527185  48.7636137  46.9155407
  44.0907907  49.2125750  46.5891123  43.0723238  48.8460541  47.9994440
  43.4547329  47.2519875  46.6685200  42.8815794  46.6306877  47.3566914
  43.2010365  46.9907713  45.6411409  44.5041323  47.0110178  46.8382311
  40.5857229  49.5619059  44.0979242  39.9818468  50.5847740  44.1901064
  40.0679016  48.6001778  43.3340502  40.7155704  47.8897715  43.0242872
  38.7732196  48.4492826  42.6746702  38.0227733  49.0950680  43.1306267
  39.0349269  48.6108208  41.1201048  39.8206830  47.9014730  40.8602715
  38.1717086  48.3084154  40.5272293  39.5467710  49.9616385  40.6006908
  38.6277008  50.5442333  40.6638813  40.3499746  50.3900814  41.2001896
  39.8494005  49.8989534  39.1337585  39.0680385  49.3026066  38.6626482
  39.8462677  50.9096670  38.7256551  41.1779499  49.1719818  38.7999964
  41.0477924  48.0948353  38.9044738  41.4041567  49.3462896  37.7480721
  42.2979355  49.5102024  39.7410440  43.1424427  49.0214443  39.4802356
  42.4796915  50.4838848  39.9385476  42.1261311  49.2163706  40.6919622
  38.2661772  46.9965839  42.8732824  39.0556645  46.1020899  43.2157278
  36.9878173  46.6734934  42.5164604  35.8263969  47.6573324  42.2177219
  36.1848474  48.5151720  41.6487503  35.5183673  47.9177094  43.2303524
  34.7949219  46.8083572  41.4750433  35.0980854  46.7374468  40.4304552
  33.7628293  47.1588469  41.4822435  34.9827695  45.4510593  42.1964025
  34.6174216  44.6477222  41.5566587  34.5013618  45.5683661  43.1672668
  36.4947128  45.2919626  42.4312782  36.6804242  44.7628069  43.3659506
  37.0972753  44.5212793  41.3124371  37.2160220  43.2863951  41.2544060
  37.8091288  45.2315998  40.3958082  37.6219773  46.2175751  40.2821064
  38.6920834  44.7736120  39.3251801  38.1412482  44.0765762  38.6936569
  39.0405273  45.9252644  38.3557081  39.5300889  46.7383003  38.8918090
  39.7698331  45.5510092  37.6372743  37.8754854  46.5274954  37.5897193
  37.5292659  46.0471249  36.5088916  37.3681498  47.5644684  38.0665064
  39.9902248  44.1508627  39.8004460  40.4186153  43.2141733  39.1420031
  40.5979156  44.5814466  40.9313965  40.0497198  45.1768589  41.5356064
  41.9184446  43.9876175  41.3644791  42.5709343  43.7935448  40.5131912
  42.5767374  44.9661541  42.3098803  41.8658400  45.2841282  43.0725193
  43.4632683  44.4539738  42.6838255  42.8926468  46.1798286  41.5248394
  42.1952724  47.1330976  41.4952946  44.1039228  46.1719513  40.9409428
  44.4157028  46.8467808  40.2572060  44.6192026  45.3198910  41.1100006
  41.8071270  42.5634909  42.0112848  42.8480482  41.8922997  42.0165968
  40.6265354  42.0690584  42.4443817  39.7516751  42.5279045  42.2341824
  40.5069733  40.9311390  43.3486557  41.4939308  40.7036400  43.7514734
  39.6547961  41.3137913  44.5884418  38.7351060  41.7741537  44.2274189
  39.3513918  40.3814316  45.0646210  40.4423380  42.1516514  45.6054783
  41.2872839  41.4848518  46.5396214  41.4296436  40.4145765  46.5143204
  41.9906187  42.1999693  47.4924278  42.5865507  41.6432047  48.2004356
  41.9170761  43.5906553  47.5353193  42.4511576  44.1478682  48.2907534
  41.0545588  44.2757654  46.6367197  40.8715677  45.3392839  46.6796541
  40.4631424  43.5565472  45.5767965  39.8053288  44.0100479  44.8501444
  39.9798918  39.7813296  42.4625158  38.8555145  39.8714638  42.0328808
  40.8380699  38.8109326  42.1159410  41.7296314  38.8655472  42.5873661
  40.5859852  37.7955389  41.0755873  39.6132827  38.0029082  40.6295538
  41.7280149  37.8178334  40.0727320  42.6254559  38.3192873  40.4350090
  42.0603704  36.8002820  39.8672104  41.1737537  38.5242915  38.8015294
  40.2158165  38.0795860  38.5319209  41.0951185  40.0527382  38.9810896
  42.0732832  40.3474522  39.3611360  40.8332396  40.4660273  38.0070710
  40.2868843  40.3415203  39.6529961  42.2000408  38.1136370  37.6888084
  42.2841215  37.0362353  37.5465131  41.9229078  38.6030650  36.7551279
  43.1757164  38.5428596  37.9166746  40.4604101  36.4086699  41.7363834
  41.2907839  36.0298419  42.5535202  39.3800521  35.7191133  41.3892555
  38.6425948  36.0365510  40.7764816  39.3319964  34.2683220  41.6926670
  39.7486091  34.1246724  42.6896143  37.9062986  33.8273573  41.9444895
  37.4827743  33.8146949  40.9402132  37.8635955  32.7595329  42.1590328
  37.0577955  34.6941447  42.8748894  37.2215414  35.7474017  42.6469898
  35.9739876  34.6475124  42.7686405  37.4087024  34.4416833  44.6395063
  37.3295045  32.5991988  44.9537659  37.9818273  32.1103096  44.2301893
  37.6033425  32.5648665  46.0082483  36.3592911  32.1061325  44.8931742
  40.2286005  33.3498740  40.8177948  40.3564739  33.4942031  39.6277165
  40.6834745  32.2884941  41.4968729  40.3882122  32.1561527  42.4536419
  41.6681623  31.3812685  40.9134817  42.3347235  32.0511580  40.3703022
  42.3098278  30.9477401  41.6805744  40.9851980  30.2844977  40.0349379
  39.8041201  30.3624105  39.6128416  41.7476034  29.2860842  39.6966124
  42.7128839  29.2996478  39.9935317  41.4982557  28.3269620  38.6478543
  40.4262209  28.1701803  38.7672520  41.7399597  28.9049530  37.2223139
  41.1461782  29.8190188  37.2199154  43.1718969  29.3738079  36.9736004
  43.2635069  29.9313259  36.0414624  43.5313225  30.0384998  37.7591586
  43.7760639  28.4669113  36.9985032  41.1269331  27.9553843  36.1785698
  41.7267609  27.0675206  35.9785509  40.1548576  27.6368690  36.5550184
  40.9528255  28.7121964  34.8256016  40.6411219  29.7450614  34.9809527
  41.8798208  28.7185240  34.2522430  40.1899576  28.2056165  34.2344046
  42.1436787  26.9252133  38.9229679  43.1376219  26.7693305  39.6366143
  41.5355158  25.8993793  38.3983421  40.6038618  26.1052632  38.0670643
  41.8491554  24.5124054  38.7912345  41.0548258  23.8781500  38.3977056
  42.8094244  24.1748929  38.4012794  41.8456364  24.2690778  40.3736496
  40.8812332  24.5181274  41.0399294  43.0574322  23.9031482  40.8720589
  43.7814140  23.6925793  40.2000380  43.4132814  23.7474036  42.3229027
  42.6882935  23.0197740  42.6876688  44.8034620  23.1060338  42.5013828
  44.9931049  22.7593899  43.5172415  44.8074961  22.2377324  41.8424892
  45.8962679  24.0568614  42.0234776  45.7201290  24.5497990  41.0674000
  46.0514259  24.9123549  42.6808643  47.2669649  23.3820724  41.8876266
  48.0718660  24.0990043  41.7256212  47.5109243  23.0871058  42.9082060
  47.3493385  22.3510695  40.8539581  47.0478296  22.6267815  39.9302840
  48.0097771  21.1717343  40.9208632  48.8454008  20.9253144  41.8451118
  48.9755774  21.5760446  42.6064968  49.5041418  20.1939154  41.6188002
  47.8416538  20.3449082  39.9146533  47.0592499  20.5480289  39.3091083
  48.3759785  19.4880176  39.8963952  43.1516886  25.0019097  43.1789541
  42.8962088  24.8910213  44.4078064  43.1740999  26.2528634  42.6320887
  43.0520201  26.3152051  41.6314316  42.9820824  27.4627471  43.4701872
  42.9967165  27.2070456  44.5296669  44.1773081  28.4403682  43.3495569
  44.2570114  28.7238836  42.3000956  44.0529823  29.3949485  43.8608503
  45.5448914  27.9232430  43.8552570  45.8156157  27.7618957  45.2232504
  47.0732880  27.4738336  45.2796650  47.6567602  27.2519636  46.1609888
  47.6420593  27.6094413  44.0539026  48.5207415  27.2114062  43.7545919
  46.6929340  27.9138041  43.1597710  46.8692970  28.0245686  42.1000385
  41.7362452  28.3105803  43.1469345  41.6119289  29.4518352  43.5279512
  40.7175636  27.6625800  42.5452232  40.8943129  26.7324901  42.1933794
  39.3635082  28.2004452  42.3397350  39.3571877  29.0045261  41.6038561
  38.5421538  27.0678616  41.8093634  38.8865757  26.7533970  40.8241796
  38.6084986  26.2778735  42.5574350  36.7774034  27.5715876  41.5799809
  36.4975524  26.6332173  40.6711102  38.7788701  28.8013601  43.6059475
  38.1685615  29.8533988  43.5346174  38.9918661  28.1741238  44.7449589
  39.4715452  27.2856522  44.7699928  38.4874582  28.6816859  45.9997320
  37.4655056  29.0312552  45.8530474  38.3332467  27.5273275  47.0611906
  39.3430018  27.1576452  47.2395945  37.9317093  27.9215407  47.9947138
  37.3751235  26.3661408  46.6576290  36.5199971  26.5301418  45.8240604
  37.5037837  25.2665567  47.4022102  37.0736742  24.4034553  47.1019411
  38.1751752  25.3286815  48.1541920  39.2648578  29.8952818  46.5140390
  38.7526631  30.5322671  47.4284554  40.5237055  30.2038026  46.0861731
  40.8733797  29.6941757  45.2873564  41.2385035  31.3858223  46.6055536
  40.8736801  31.6963124  47.5846386  42.7236748  31.0314298  46.8782902
  43.0008364  30.7534885  45.8614159  43.2659340  31.9193840  47.2032309
  43.0838394  29.9279404  47.9255247  42.6796389  30.2723074  48.8774395
  42.5854445  29.0459466  47.5232935  44.6403790  29.7159553  48.0223465
  44.9782705  29.8463750  46.9942808  45.1090765  30.4798746  48.6427164
  45.1760530  28.4172797  48.6293316  46.2626934  28.4704041  48.6963606
  44.6246004  28.2984352  49.5620060  44.8205996  27.2810221  47.7418375
  43.8179970  27.2531104  47.6230431  45.1773739  27.4624062  46.8145227
  45.2825880  26.4357829  48.0455542  41.1074543  32.6071525  45.7645559
  40.9154081  32.6049829  44.4972515  41.1923409  33.7691116  46.5364695
  41.4409351  33.6901689  47.5122118  41.1289310  35.1165414  46.0447264
  40.6806564  35.2112389  45.0556946  40.1769257  35.8865714  46.9655132
  39.2923069  35.3033352  47.2212172  40.6976128  35.9708738  47.9193878
  39.8198414  37.3188305  46.4151430  40.7305574  37.8411222  46.1220360
  38.9124346  37.3135591  45.1713800  38.9639926  38.2744145  44.6593142
  39.1952109  36.5503001  44.4464111  37.8464866  37.1210599  45.2930212
  39.1911936  38.0687594  47.6075888  38.3901715  37.5053549  48.0861664
  39.9880481  38.3146691  48.3094835  38.9095163  39.0059757  47.1276045
  42.5165558  35.7457447  45.9294224  43.1858253  36.0208035  46.8796253
  42.9311228  36.0189414  44.6944094  42.2746801  35.8031178  43.9577913
  44.1738033  36.6201401  44.1645193  45.0009966  36.2722182  44.7832346
  44.4906425  36.1039281  42.7309084  43.6914301  36.2397957  42.0022821
  45.3755665  36.6686082  42.4373960  44.9495125  34.6692443  42.7248001
  44.2024279  33.6052990  43.2817173  43.1771898  33.8127828  43.5505056
  44.5939159  32.2810388  43.2122040  43.9130592  31.5340161  43.5927248
  45.8034849  31.9828749  42.6700449  46.1418533  30.9653854  42.5411129
  46.6788292  33.0441761  42.2785425  47.6798248  32.8487086  41.9232845
  46.2253046  34.3554783  42.3624897  46.9147110  35.1290011  42.0578814
  44.0604067  38.1855345  44.2098331  42.9518986  38.7321734  44.0648603
  45.1583862  38.8870049  44.2441463  46.0423183  38.4327698  44.4242477
  45.2822828  40.3375530  44.0857363  44.2964888  40.6803083  43.7713671
  45.6535149  40.9296751  45.4477930  44.7745132  40.8312988  46.0848045
  46.4740849  40.3970385  45.9284925  45.9239912  42.3693752  45.4824924
  46.7512321  42.5863409  44.8066950  44.7466898  43.2928753  44.9897242
  44.5510101  43.0570364  43.9436913  43.8098478  43.2502317  45.5452538
  45.1033783  44.3228292  44.9817085  46.2220860  42.9296875  46.8709517
  46.3245869  44.0110731  46.7804432  45.4064083  42.7582788  47.5733757
  47.0583820  42.4246550  47.3543262  46.2948513  40.6590700  42.9764605
  47.4659777  40.3422832  43.1635857  45.8555412  41.3612127  41.9311619
  44.9406672  41.7868567  41.8871260  46.7852688  41.7022181  40.8453417
  47.7923155  41.7623329  41.2580633  46.6862583  40.6286812  39.7288918
  47.2427607  40.9170151  38.8371134  47.3009634  39.2482781  40.1175070
  48.1383419  39.4165778  40.7946825  46.5101480  38.7067819  40.6366348
  47.6111889  38.6260033  39.2780805  45.3162003  40.2374935  39.2318916
  45.4417562  39.5219040  38.4193182  44.6475935  39.8410749  39.9960375
  44.6168518  41.4038706  38.5219383  43.6738014  41.0818100  38.0803061
  44.3804932  42.1807194  39.2490840  45.2519751  41.9058466  37.7920485
  46.4753628  43.1182289  40.3254175  45.5321026  43.8343573  40.7406950
  47.2906017  43.5102987  39.3552279  48.1182194  42.9538631  39.1954327
  47.3845816  44.8484707  38.7806153  48.1333733  44.6896124  38.0046129
  46.0390425  45.3137970  38.0552959  45.5244541  44.5144510  37.5220513
  45.3331280  45.7315636  38.7731123  46.1695433  46.4818859  37.0577669
  47.3139048  46.8036222  36.6842008  45.1902533  47.1417141  36.7068624
  47.8971386  46.0174417  39.6481752  47.2517967  46.9219303  40.0589609
  49.2227316  45.9326220  39.8541546  49.7132778  45.1923895  39.3729925
  49.9831152  46.8643713  40.7276869  49.3595934  47.2418880  41.5381241
  51.1331749  45.9639740  41.3019085  51.5315866  45.2736521  40.5583858
  52.0115852  46.5808201  41.4916325  50.7568979  45.0758982  42.3906565
  50.2523232  45.6763840  43.5936880  50.1309395  46.7488384  43.6325979
  49.7311878  44.8168945  44.6003771  49.4138432  45.2583170  45.5335665
  49.7093678  43.4323454  44.4125700  49.2257118  42.8399658  45.1751804
  50.2109098  42.8858995  43.2183409  50.1720333  41.8193102  43.0531979
  50.7999086  43.6851788  42.2714710  51.1828136  43.2294178  41.3703203
  50.3813219  48.1811857  39.9390483  51.5413523  48.7156677  40.2203465
  49.5164776  48.6327934  39.0455937  48.6022615  48.2095575  39.1175699
  49.7179127  49.7766876  38.1728530  50.7262421  49.6357155  37.7836180
  49.0389681  49.7183371  37.3221350  49.5979452  51.1782885  38.7563658
  49.5461988  52.1156311  37.9119325  49.6533346  51.3895369  40.1291084
  49.5307589  50.5442047  40.6680822  49.8882437  52.6483393  40.7836485
  50.5261183  53.1973839  40.0909996  48.4924603  53.3978462  40.9932089
  48.0217695  53.4802103  40.0135279  47.8692245  52.7762413  41.6360807
  48.5195589  54.8838615  41.5003586  48.8106871  54.7373247  42.5404882
  49.4226837  55.7029724  40.6420326  49.0525246  55.7681417  39.6188831
  49.4548750  56.6940165  41.0946846  50.4405069  55.3321457  40.5210829
  47.1297312  55.5512953  41.4912558  46.7751646  55.6759357  40.4681015
  46.4789200  54.9362326  42.1127415  47.1855068  56.5383625  41.9502687
  50.6069994  52.4753475  42.1946383  50.6111813  53.4019947  43.0087280
  51.2814760  51.3379622  42.3639536  51.0558033  50.5782413  41.7378616
  51.8299246  50.9125853  43.6297655  51.0615253  51.1455536  44.3669176
  51.9754839  49.4408417  43.5802841  52.6892376  49.2077017  42.7901602
  52.2272730  49.1234064  44.5921803  51.0013485  48.9871883  43.3976221
  53.1537771  51.5247059  43.9813852  53.9324713  51.8534422  43.0851889
  53.3063364  51.6529560  45.2777052  52.5804424  51.2163258  45.8277321
  54.4717503  52.3674154  45.8528137  55.3304863  52.3729753  45.1815128
  53.9848757  53.7741518  46.2455225  53.4143591  54.1850901  45.4126120
  53.2664585  53.6286545  47.0522499  55.0768900  54.8935175  46.5953588
  55.4056263  54.7155809  47.6192617  55.9310961  54.9021482  45.9183455
  54.4818211  56.2942839  46.5926695  53.9370823  56.4402199  45.6598997
  53.7321138  56.3201523  47.3834705  55.5462170  57.3668480  46.8254042
  55.2006102  58.2987309  47.2729063  56.2869930  56.9446135  47.5044346
  56.2300634  57.7747965  45.5553055  55.5195141  58.0914354  44.9111271
  56.9126654  58.4999514  45.7235479  56.7789984  57.0110273  45.1873016
  54.9720335  51.6935301  47.1679831  54.2540836  50.9261799  47.8014326
  56.2298346  52.0270300  47.5826597  56.8598557  52.6032734  47.0431137
  56.7040682  51.4992428  48.9028883  56.0681915  50.6792259  49.2365503
  58.1328917  50.9036493  48.6352682  58.0968809  50.3924799  47.6732302
  58.8678455  51.7045546  48.5547018  58.5259151  49.9144840  49.7782087
  58.5920382  50.4402733  50.7307148  57.7576399  49.1525459  49.9097967
  59.8580980  49.1999388  49.5203781  59.8407841  48.3660030  48.8186979
  60.6445980  49.8200703  49.0903187  60.2931976  48.6618185  50.8953524
  60.4085970  49.4598293  51.6288137  59.5244074  47.9936218  51.2833929
  61.5682983  47.9483891  50.8096075  61.5052223  47.2823381  51.5662432
  61.6987896  47.5392389  49.8954630  62.4380159  48.4596872  50.8572769
  56.5972900  52.5966549  49.9351168  56.8833447  53.7533760  49.6387625
  56.1153269  52.2721910  51.1529064  55.7874250  51.3213205  51.2446547
  55.8517838  53.2180452  52.2845554  55.9484005  54.2328453  51.8986130
  54.3726063  53.0397797  52.7016401  54.0264320  54.0092230  53.0600405
  53.8108873  52.8608274  51.7848253  54.0868759  51.8268538  53.6291409
  54.4654799  51.9647932  54.9904776  54.9012947  52.8697062  55.3874779
  54.4759226  50.8108044  55.8076191  54.8230743  50.8560181  56.8293095
  53.9913034  49.5945930  55.2859974  54.1391230  48.4619761  56.0893917
  53.8661242  47.6302290  55.6953526  53.3795643  49.5623589  53.9613867
  52.9444170  48.6588717  53.5604334  53.5411596  50.6707907  53.1049156
  53.3575153  50.5322552  52.0496988  56.8632746  53.2052469  53.4219599
  57.0030880  54.2359686  54.1453552  57.6139832  52.0659590  53.5743666
  57.2977829  51.2137842  53.1340075  58.5260487  51.8744993  54.7404146
  58.8261271  52.9036951  54.9374294  57.8106022  51.3287163  55.9759808
  57.0159578  52.0068741  56.2870073  57.3311472  50.4253149  55.5990171
  58.5742188  50.9409475  57.2152519  59.4103575  50.3186417  56.8963242
  58.9790058  51.8318319  57.6954269  57.8808022  50.1316166  58.3346319
  58.7345457  49.9775171  58.9945316  57.1500969  50.7919598  58.8016605
  57.2199392  48.9060354  57.9636669  57.0819855  48.6986160  56.9848728
  56.6493082  48.0806398  58.8128901  56.6572046  48.2511711  60.0866270
  56.9595242  49.1409492  60.4567528  56.3178539  47.5387859  60.7170630
  56.1551666  46.9461679  58.3026981  56.0373783  46.8485260  57.3043537
  55.8336115  46.2489796  58.9589262  59.8163700  51.2111712  54.2867374
  59.7575474  50.0490618  53.8292980  60.9684801  51.9423676  54.3526363
  60.9264708  52.8321075  54.8287630  62.2483540  51.3695145  54.0717888
  62.1041632  50.8242226  53.1390667  63.2875109  52.4992704  54.0428734
  62.9794025  53.3942699  53.5023642  63.4286785  52.8904104  55.0504351
  64.5876217  51.9472265  53.4074688  64.8555088  50.6982279  53.3795118
  65.3679132  52.8113985  52.9252625  62.6228714  50.4448223  55.2476025
  62.7315998  50.7744503  56.4372396  62.8654003  49.1773176  54.8884058
  62.9226351  48.9257383  53.9119148  63.2678938  48.1397581  55.8518219
  62.6009893  48.0734825  56.7114449  63.3083010  46.7265558  55.1970243
  64.0847206  46.7580891  54.4326401  63.5930777  45.8943176  55.8407545
  62.0481491  46.3144112  54.3880129  61.7935133  46.9413757  53.3884001
  61.3023996  45.3864002  54.8450184  60.5738258  44.9714851  54.2818737
  61.5763521  44.8168945  55.6328726  64.6860313  48.4139538  56.4246368
  65.0619507  47.8610945  57.5052834  65.5549288  49.1206455  55.7149458
  65.2043486  49.5689869  54.8805666  66.9400692  49.2738581  56.0531521
  67.4662304  48.3501291  56.2939501  67.7131987  49.9784279  54.9392748
  67.3114014  50.9519482  54.6583462  68.7448263  50.0698566  55.2791071
  67.6527691  49.0449286  53.7561369  68.2961750  48.1871414  53.9519405
  66.6286707  48.7350464  53.5480833  68.2172346  49.6411753  52.5211430
  69.2223358  50.0138903  52.7185249  68.2796240  48.8951540  51.7288923
  67.5694466  50.9147978  52.1818829  66.7024994  51.1335611  52.6516199
  67.8471756  51.8054628  51.2132978  68.8634348  51.6847897  50.4513407
  69.4992685  50.9103966  50.5783272  69.0256691  52.2740602  49.6472645
  67.1376324  52.8797197  50.9574604  66.5046310  53.1778812  51.6858196
  67.5303221  53.5590839  50.3215599  67.1065283  50.1892757  57.2828341
  68.1607580  50.1691723  57.9294586  66.0548115  50.9987020  57.6120758
  65.1619101  50.9198189  57.1466589  66.0059214  51.9512415  58.7044525
  66.8660641  51.7963791  59.3558168  65.9944296  53.3889151  58.2294941
  65.7772875  53.9257860  59.1529226  67.2217798  53.7770844  57.5634241
  68.0928564  53.7092352  58.2151365  67.4021769  53.1878710  56.6643238
  67.1719313  54.8039103  57.2011566  64.9059057  53.5766220  57.2629595
  64.9029207  54.4417000  56.8467426  64.7147179  51.8234730  59.5679617
  64.7819662  52.3039532  60.7603598  63.6567640  51.1901569  59.0700483
  63.7719870  50.7685328  58.1595230  62.3255825  51.1510754  59.5643997
  61.8102407  50.4973459  58.8607168  62.3492956  50.5431700  60.9813261
  63.1605768  49.8174143  61.0378790  62.5529861  51.3549995  61.6795683
  61.0625219  49.8218679  61.4809465  60.1795006  50.4564047  61.5566921
  60.7903528  49.0523005  60.7585955  61.1499310  49.2257309  62.9156590
  61.4014387  50.0090122  63.6307192  60.1606846  48.8489389  63.1755209
  62.0904493  48.0957985  62.9237652  62.4012947  47.8329754  61.9994259
  62.3424006  47.3072672  63.9302921  61.5503597  47.2325945  64.9204826
  60.6044483  47.5694418  64.8114681  61.8656254  46.7507935  65.7502842
  63.4477091  46.6065502  63.8609600  64.0800428  46.7322016  63.0834818
  63.7537432  46.0604620  64.6535683  61.5459776  52.4685335  59.4556379
  60.4344988  52.5095797  60.0061703  62.0500517  53.4631586  58.7271118
  62.8868198  53.3589411  58.1711864  61.2709045  54.7347116  58.5459805
  60.7705784  54.8398304  59.5086479  62.2890472  55.8785868  58.3775139
  63.0429983  55.8107758  59.1617727  62.7673531  55.5969143  57.4394369
  61.7924452  57.3041105  58.4079695  60.7176971  57.3268080  58.2276964
  61.8607092  57.7284956  59.4096375  62.6361322  58.1355476  57.4384499
  63.8176727  58.3466101  57.6199293  61.8948317  58.6404467  56.4218521
  62.4255276  59.0858555  55.6869507  60.9058905  58.5761309  56.2270212
  60.1234293  54.7475147  57.4389458  60.2123880  54.3368101  56.2759686
  58.9385557  55.1841497  57.8565550  58.9540052  55.6125832  58.7710524
  57.8034496  55.6209898  57.0288897  57.7036762  54.8069906  56.3108730
  56.5132380  55.8599281  57.9045343  56.3441753  55.0219107  58.5807371
  56.7830086  56.6702366  58.5818243  55.2778912  56.2504292  57.1140575
  54.6181631  55.4646158  56.1924458  53.5951328  56.2918663  55.7606459
  53.0444002  56.0603809  54.8609114  53.6174154  57.4695492  56.3777113
  53.0037165  58.2506132  56.1949062  54.6624279  57.4490690  57.2339916
  54.9214602  58.2592392  57.8995132  58.1399536  56.7601871  56.0829115
  59.0296173  57.5189734  56.3919926  57.4681902  56.7965174  54.9646473
  56.7735672  56.0757875  54.8299408  57.6038074  57.8779697  53.9235687
  58.6494684  57.8973055  53.6164379  56.8429518  57.3487711  52.6788378
  57.3027754  56.4294386  52.3162031  55.3235197  57.1431255  53.1012154
  54.6586514  56.8933344  52.2743750  55.1393747  56.3069916  53.7758017
  55.0036812  58.0838919  53.5492897  56.8272448  58.4107542  51.5096855
  56.3589907  59.3795967  51.6833973  57.8723431  58.7008619  51.4014149
  56.5840101  57.9291105  50.1188421  56.6772747  58.6957216  49.3496084
  57.3263741  57.2001028  49.7939539  55.5443144  57.6058578  50.0674725
  57.1993399  59.2524099  54.5644903  56.2281275  59.2664480  55.3284788
  57.9313135  60.3870201  54.2388201  59.3247747  60.3096008  53.7913895
  59.5222998  59.8405790  52.8274870  59.9229813  59.7995043  54.5464134
  59.8161077  61.6900301  53.6822176  59.8698807  61.9758987  52.6317501
  60.7850266  61.8180370  54.1648197  58.7848139  62.6291943  54.3763876
  58.5721636  63.4616327  53.7056255  59.2115545  62.9211617  55.3359461
  57.5600338  61.7363501  54.6320295  57.3322725  61.7115688  55.6976795
  56.3993359  62.3370457  53.9565229  55.9659672  61.9162083  52.8613043
  55.7801390  63.2462645  54.6245813  56.1587381  63.5770750  55.5005550
  54.5416737  63.9500618  54.2931366  53.7651157  63.2140398  54.0849924
  54.1747427  64.8806858  55.4766893  54.2561293  64.2625523  56.3707685
  54.9807596  65.6008244  55.6175566  52.8787231  65.5426168  55.2371883
  51.7557955  64.7952747  55.6037903  51.7806292  63.8192654  56.0655212
  50.5034924  65.4406548  55.4333258  49.5830441  64.9108171  55.6293821
  50.3480291  66.6965342  54.7856188  49.1822100  67.3416948  54.6826267
  49.2389727  68.2318306  54.3276119  51.5249729  67.4205589  54.4363832
  51.4189959  68.4534073  54.1390562  52.8142977  66.8445969  54.6904898
  53.6942530  67.4033308  54.4078302  54.6275520  64.8608017  52.9766607
  55.6249952  65.5433989  52.6699972  53.5307217  64.9466753  52.2395992
  52.7403164  64.4113064  52.5693750  53.3265162  65.6303787  50.9398556
  53.6623716  66.6481590  51.1384201  54.2131615  64.9589872  49.8242331
  55.2682018  65.0538731  50.0811338  53.9061069  63.9137840  49.7871733
  54.0516424  65.7501793  48.5709906  53.0449343  65.6512499  48.1649733
  54.0880394  66.8304777  48.7114573  55.0316620  65.2097940  47.5668716
  54.9006653  65.7759237  46.6446781  56.0692978  65.4745865  47.7700806
  54.8638058  63.7604952  47.2762156  54.7814894  63.0480003  47.9873228
  54.9072361  63.1227398  46.1196136  55.1855469  63.6407042  44.9798155
  55.6253910  64.5489645  45.0211573  55.3698015  63.0423641  44.1872644
  54.7319031  61.8317175  46.1673307  54.4329643  61.3769770  47.0181847
  54.7652245  61.3169765  45.2989817  51.7936754  65.7679176  50.6072855
  51.0562515  64.8704100  50.8928299  51.3775396  66.8890429  50.0967169
  52.0134163  67.6586962  49.9437428  49.9770403  67.0708752  49.7028971
  49.4504786  66.1225653  49.5954561  49.1438723  67.8872919  50.7491493
  48.1297350  67.8562498  50.3508329  49.1959572  67.3528481  51.6977024
  49.5640326  69.3455219  50.8536053  50.6517649  69.4158125  50.8532763
  49.2991924  69.8472357  49.9228811  48.9730787  69.9597788  52.1102571
  48.5441589  71.0883093  51.9666576  48.7517643  69.3823862  53.1583452
  49.8631191  67.6218462  48.2723284  50.7701731  67.5820065  47.5281525
  48.6209249  67.9955435  47.7833223  47.8132534  67.8010273  48.3577156
  48.2568455  68.5348177  46.4153767  47.2807789  69.0195465  46.3947725
  49.1105795  69.7864532  46.1957836  50.1257277  69.5740557  45.8604336
  48.7095118  70.4450941  45.4254293  48.9657927  70.7986546  47.3101091
  49.9654293  71.4453411  47.6436758  47.8126717  71.0217333  47.7229404
  48.2715702  67.5117397  45.2927732  48.2878637  67.9336262  44.1236258
  48.2246971  66.2009621  45.5291271  48.2826996  65.8662176  46.4802742
  48.0768871  65.0755215  44.5513487  48.4518623  65.5397177  43.6391973
  49.1265821  63.9661694  44.7519445  48.8464355  63.3012295  45.5689335
  49.0998983  63.4465790  43.7941170  50.5641651  64.4203806  44.9228764
  50.8943605  65.0680161  44.1106939  50.6272984  64.8236895  45.9335518
  51.3996935  63.0982113  44.8662376  51.0930395  62.5337124  43.9856672
  52.4429417  63.4062195  44.7964382  51.3592815  62.2211313  46.0827875
  51.9767380  62.6513052  46.8713236  50.3450346  62.1276522  46.4709473
  51.8039608  60.8149767  45.8061409  52.6948214  60.7542992  45.3341293
  51.9834900  60.2774858  46.6421843  51.0880375  60.3062057  45.3074312
  46.6573095  64.5264196  44.2288923  46.2929344  63.3897400  44.3176365
  45.8673859  65.5794764  43.9506102  46.2831640  66.4980173  43.8913965
  44.4370365  65.5066156  43.6818743  43.9951658  65.4873657  44.6781063
  43.9681864  66.7992163  43.0009890  44.3998480  67.6396084  43.5446024
  44.3980265  66.8670464  42.0016241  42.4671412  66.9878864  42.9839230
  41.7242479  66.5405607  43.8400984  41.8696117  67.6760387  41.9696856
  40.8663321  67.6078606  41.8754721  42.4877310  67.9997492  41.2394524
  43.9239073  64.2608738  42.9379892  44.4118357  63.8925362  41.9029045
  42.9051256  63.5848618  43.4425735  42.5077200  63.8839817  44.3216085
  42.4202681  62.2599459  42.9335785  41.7822075  61.8088675  43.6935186
  41.5889502  62.4851894  41.6367865  42.3457909  62.9350805  40.9942150
  41.2272310  61.6050673  41.1051369  40.4054451  63.4000397  41.8846703
  40.8544540  64.3041563  42.2958422  39.7515345  63.6482620  40.5315447
  39.4429016  62.7479696  40.0002146  38.8414550  64.2220640  40.7065248
  40.4212189  64.2068005  39.8775864  39.3348360  62.6716709  42.8001404
  39.0936279  61.6483879  42.5123739  39.7705483  62.4990416  43.7842417
  38.4681034  63.3268404  42.8874779  43.5296440  61.2432480  42.7411413
  43.5720444  60.5097628  41.7049789  44.4414377  60.9838057  43.7172222
  44.3807554  61.6007662  44.5145750  45.1565790  59.6876955  43.7404490
  45.7820129  59.5313597  42.8615332  46.1464596  59.5922232  44.9185658
  45.6182766  59.6888018  45.8671427  46.9558144  58.2557297  44.8141909
  46.3898802  57.5016308  45.3611422  46.9356060  57.9280472  43.7748098
  47.9443216  58.4790611  45.2155399  47.0496225  60.7092524  44.8011923
  46.5721273  61.5032291  44.5498037  44.1769648  58.5718727  43.9290047
  43.3189869  58.6197376  44.8434067  44.3143177  57.6294041  43.1156492
  44.9534512  57.7866793  42.3495674  43.4018707  56.4916706  42.8348207
  43.8512039  55.8150482  42.1079254  43.2504940  55.9931660  43.7922573
  42.0605183  56.8847132  42.1554279  41.7321396  58.0484343  41.8126011
  41.2338734  55.8857155  41.8314075  41.5904713  54.9801588  42.1014261
  40.0621653  55.9524059  40.8604717  40.2123547  56.5706062  39.9753904
  39.5047188  54.5586061  40.3544140  39.2563915  53.9537239  41.2265110
  38.1367636  54.7611475  39.6619749  37.8655720  53.8092804  39.2053604
  37.3502994  55.0930071  40.3397942  38.2094264  55.4574299  38.8264990
  40.4923916  53.9478683  39.5987916  41.1794281  53.6412001  40.1950598
  38.8902736  56.6285086  41.6027975  38.4203267  56.1364937  42.6908445
  38.2915998  57.7027225  41.1426449  38.5039568  57.9712820  40.1924467
  37.5062537  58.6319065  42.0554447  38.1953430  59.1110659  42.7509022
  37.0307446  59.7941780  41.1494493  36.3289881  59.4602776  40.3851604
  36.5596867  60.5261850  41.8054771  37.8210258  60.4099464  40.7200527
  36.2840891  57.9722118  42.7337837  35.9384060  58.3023787  43.8593912
  35.6279421  57.0850039  42.0169401  35.9211421  56.9265604  41.0635090
  34.4642568  56.3142109  42.4784231  33.6919570  57.0546198  42.6868629
  33.7998199  55.4104233  41.4171696  33.5187817  55.9857321  40.5350494
  34.6146011  54.6931648  41.3183355  32.5298357  54.6507502  41.7680979
  32.5503206  54.0943623  42.7051783  31.7309070  55.3874254  41.6836405
  32.3292875  53.6941290  40.5898809  32.1353769  54.2365360  39.6645212
  33.2326484  53.1073141  40.4234695  31.2411261  52.7435446  40.8682156
  31.1171699  52.5941372  41.8593836  30.7560086  51.8050718  40.0979280
  31.1454058  51.5833092  38.8637328  31.9099760  52.1210623  38.4811640
  30.9913731  50.7094049  38.3813810  29.7704196  51.0112524  40.4720020
  29.3776345  51.0208368  41.4024496  29.3958020  50.4614544  39.7120810
  34.8051596  55.4592848  43.7677383  33.8709235  55.2778292  44.5998478
  36.0624290  55.0170946  43.9977360  36.7761827  55.4512405  43.4301281
  36.3731074  53.9181042  44.9845314  35.4362154  53.6318541  45.4624367
  36.8941474  52.5473928  44.3826628  37.8695464  52.7592802  43.9447117
  37.1249700  51.9663000  45.2754927  35.9573340  51.8657923  43.4365034
  34.7256923  51.3751221  43.8978100  34.4861460  51.5119314  44.9419832
  33.8197374  50.7252312  43.0190229  32.9613543  50.1829720  43.3871794
  34.2112780  50.6395292  41.6876984  33.3437181  50.0855350  40.7969093
  33.8053131  49.7364044  40.0309849  35.4470634  51.0916471  41.2520647
  35.6583810  51.0476112  40.1938534  36.3550615  51.7399788  42.1122408
  37.3110723  52.1188498  41.7822361  37.4381495  54.2951012  46.0226440
  37.4002981  53.7743950  47.1311808  38.3811808  55.1448393  45.5883121
  38.3092213  55.5441236  44.6633816  39.4347501  55.5434036  46.3782597
  40.0167131  54.6794987  46.6993284  40.4447556  56.3121605  45.5984306
  40.0772095  57.3066902  45.3455925  41.3351297  56.3404799  46.2265491
  40.8901787  55.8695745  44.7074699  39.1275954  56.2508345  47.7367210
  38.2387519  57.1170330  47.7865076  39.9331808  56.0101652  48.7906599
  40.5556583  55.2346325  48.6141062  40.1314497  56.7096233  50.0803471
  39.5181417  56.3307381  50.8979034  41.4801264  56.3852072  50.5627108
  41.4219189  55.3482294  50.8934450  42.1753931  56.4071894  49.7235346
  41.9845390  57.1137428  51.7033863  42.9357910  56.9896460  51.7396832
  40.0186968  58.2465696  50.0478363  40.5821800  58.8615561  49.1761541
  39.4653368  58.8990116  51.0324383  39.0510654  58.3783197  51.7922783
  39.3139553  60.3327465  51.1137247  38.8181114  60.6827974  50.2083492
  38.2235575  60.5838919  52.2531128  38.4246945  59.8527098  53.0360746
  38.2981586  61.9552279  52.8901434  38.2248259  62.7575779  52.1560097
  37.6568937  62.1031713  53.7590456  39.3375421  62.0417643  53.2068491
  36.8230200  60.3069353  51.7791986  36.5592575  61.1286402  51.1133671
  36.9005728  59.3657494  51.2349129  35.6621146  60.2151155  52.8157520
  35.4372263  61.2374067  53.1198168  34.7804022  59.8449707  52.2926140
  35.8580995  59.6197224  53.7074947  40.7706881  60.9653282  51.0969067
  40.9413242  61.8994379  50.3040791  41.7067242  60.5226660  51.9235659
  41.6202116  59.7468376  52.5644302  43.0447006  61.2279987  51.9370413
  42.9037380  62.2602558  52.2574663  43.8871193  60.4784632  52.9813385
  44.0000343  59.3979216  52.8931141  44.9336672  60.7714796  52.8977442
  43.5028172  60.8146429  54.3755054  43.3569288  61.8897629  54.8112106
  43.2178926  59.7880077  55.1420116  42.9890251  59.8137569  56.1254025
  43.2957554  58.8599491  54.7511768  43.6763525  61.2346125  50.5417633
  44.1823864  62.2206211  50.0403833  43.5735512  60.1078320  49.8252678
  43.2802057  59.3631124  50.4412603  44.1730785  59.9755096  48.4766769
  45.1927614  60.3562021  48.4181786  44.1261435  58.3788681  48.1588173
  43.1253052  57.9512882  48.0988884  44.6607637  58.0821419  47.2564697
  44.6498775  57.8470850  48.9531851  43.3465958  60.7662487  47.4737549
  43.8691950  61.4167833  46.5688944  42.0117283  60.7914829  47.6746511
  41.6316938  60.1451635  48.3513689  41.0510445  61.6517687  46.8552208
  41.0164499  61.3732100  45.8019829  39.6620655  61.4192343  47.3343754
  39.4494200  60.3546190  47.2370291  39.7515631  61.6674566  48.3919525
  38.5852814  62.2278023  46.6642189  37.6009130  61.7803860  45.7652235
  36.8268466  62.8727102  45.5145931  35.9985471  62.8909826  44.8217821
  37.2079110  63.8944769  46.2678957  36.8419480  64.8294258  46.1581421
  38.2967973  63.5099125  47.0011616  38.9189339  64.0511703  47.6985741
  41.5292120  63.1405497  46.8606758  41.6867495  63.6634016  45.7957077
  41.7373753  63.7470913  48.0158377  41.6165066  63.1572294  48.8267374
  42.2909403  65.1014757  48.2249737  41.8280792  65.7669401  47.4962616
  42.1987295  65.5194998  49.6743917  42.9096317  64.8689699  50.1838303
  42.6152897  66.5123415  49.8442554  40.8399105  65.4463434  50.3858089
  40.5049610  64.4235373  50.2132320  40.8666086  65.5522966  51.9494629
  41.5861225  64.8636150  52.3923254  41.0193300  66.5843821  52.2650099
  39.8663425  65.3867197  52.3496580  39.8229671  66.4195633  49.8692799
  39.7257447  66.3712597  48.7846994  38.8499522  66.1786032  50.2974033
  40.1402617  67.4152613  50.1791382  43.8340330  65.1829004  47.8677654
  44.1722965  66.3052845  47.4757528  44.5081377  64.0757561  47.7257442
  44.1083145  63.1703424  47.9269123  45.8686590  64.0376377  47.2513151
  46.1767673  63.1374073  46.7195702  46.0191250  64.8784399  46.5741777
  46.7965555  64.3988657  48.4404421  47.8801680  64.9746943  48.2340097
  46.3907576  64.0434504  49.6344042  45.5220366  63.5284996  49.6183920
  47.3795843  63.8380957  50.7258129  48.1232834  64.6328163  50.6672382
  46.7525339  63.9162827  52.1427488  45.9589911  63.1711292  52.1987152
  47.8155327  63.4812117  53.1387043  48.0760193  62.4472523  52.9124928
  48.7693548  64.0015984  53.0519485  47.3316431  63.4670496  54.1153097
  46.1585331  65.3088760  52.5413990  46.8673468  66.1017370  52.7802467
  45.5387449  65.6091785  51.6965437  45.3625059  65.1490259  53.8564539
  46.1503744  65.1334810  54.6095324  44.7126198  65.9953022  54.0790844
  44.6978283  64.2869949  53.7998962  48.1635714  62.5800323  50.4333639
  47.5618029  61.6016865  49.9493790  49.5047760  62.5737762  50.6945705
  49.9229479  63.3850670  51.1270571  50.3810167  61.4050007  50.5719137
  50.4739666  61.1786270  49.5097351  51.7802000  61.7784643  51.1058998
  52.0811033  62.7574587  50.7329130  51.7015457  61.9715977  52.1757698
  52.9033422  60.7786036  50.7793188  53.7837887  61.1008787  51.3352442
  52.5352287  59.8226643  51.1518383  53.2339573  60.7845402  49.2824984
  52.5124741  60.2367973  48.4524679  54.2281246  61.3627052  48.8146544
  49.9290848  59.9990129  51.1383152  49.3129253  59.9605608  52.2304535
  50.2250528  58.9130402  50.3717804  50.6037235  59.0250969  49.4421816
  49.6600723  57.5525236  50.5491304  48.7072277  57.6377058  51.0715628
  49.3188095  56.9838858  49.1456556  50.1584053  56.9280291  48.4527922
  48.9801216  55.9620857  49.3168640  48.2610750  57.8198290  48.5458899
  47.7892160  57.1056128  47.8710938  47.6651859  58.3011913  49.3213272
  48.8891745  58.9546204  47.7167130  49.8803139  58.8555479  46.9815493
  48.2304811  60.1193714  47.7149773  48.3229876  60.6756687  46.8770790
  47.4981117  60.3467226  48.3722782  50.3657675  56.7064381  51.5304375
  51.5630960  56.6366959  51.5243721  49.5253944  56.0621595  52.3469257
  48.5284805  56.1153698  52.1938372  49.8989964  55.1146793  53.3693361
  50.7832623  54.5534801  53.0672884  50.1637125  55.8752537  54.6323729
  50.8035994  56.7168808  54.3672132  49.3564987  56.4030552  55.1402473
  50.8332825  55.0007343  55.4928446  50.7271528  55.4813766  56.3170528
  48.8441420  54.0382147  53.5311270  47.7967310  54.0896654  52.8921366
  49.2170620  52.9869604  54.2576838  49.9978304  53.0899334  54.8900604
  48.4714222  51.7462349  54.4362593  48.6031866  51.0705137  53.5911894
  49.0166044  51.0400677  55.6593800  49.2144680  51.8018818  56.4134312
  48.3211374  50.2372742  55.9042501  50.3695154  50.3702211  55.3301430
  50.3342438  49.7729778  54.4190168  50.9974670  51.2278938  55.0889397
  50.8544397  49.6213627  56.6080236  49.9881554  49.1210747  57.0408773
  51.5624380  48.8613367  56.2775707  51.4751530  50.6381893  57.5691366
  51.2571669  51.5994358  57.3487139  52.0724487  50.3860378  58.6555052
  52.2853804  49.1761017  59.0759897  51.8881130  48.3917761  58.5788870
  52.6809120  48.9457607  59.9763203  52.5541258  51.3739300  59.3961382
  52.4445963  52.3065567  59.0242386  53.1017256  51.1517620  60.2152014
  46.9161320  51.9055414  54.6318340  46.1530972  51.1644554  54.0065145
  46.5200043  52.9112101  55.4051781  47.2138357  53.4389496  55.9152603
  45.1747465  53.4299517  55.6185246  44.6248579  52.6101828  56.0807991
  45.2147245  54.6421909  56.5513754  44.2120171  54.8761940  56.9090223
  45.6951094  54.2527676  57.4489737  45.8664751  55.8833361  55.9114599
  46.3411093  56.5214062  56.6569042  46.6648102  55.5668688  55.2401876
  44.8771858  56.8913889  55.3165436  44.0362930  56.3885546  54.8388863
  44.4115829  57.4736309  56.1117172  45.5416393  57.6161194  54.1944599
  45.2273464  57.2634125  53.3017588  46.4596128  58.5519123  54.2010784
  46.8340826  59.1067791  55.3510141  46.3817644  58.9289761  56.2363863
  47.4476814  59.9077702  55.3958416  46.9504642  59.0001345  53.0885983
  46.6609240  58.5070896  52.2560215  47.7076769  59.6438503  52.9087210
  44.4203377  53.6713266  54.3157625  43.2386398  53.3224535  54.3801069
  45.0110579  54.1603374  53.2374525  46.0208654  54.1714001  53.2538748
  44.3281412  54.3115616  51.9597101  43.5209846  55.0350571  52.0743990
  45.2624321  54.8540735  50.8947182  46.1956835  54.3043423  50.7724857
  44.7570705  54.7775364  49.9319839  45.5816317  56.3634729  51.2531519
  44.6452618  57.1314240  51.5933180  46.7544603  56.7271137  51.2561512
  43.8022852  53.0029964  51.4241123  42.6780653  53.0454969  50.9077072
  44.6565676  52.0246029  51.3992739  45.5467939  52.2039032  51.8413734
  44.1831446  50.7859278  50.8130693  43.7119055  50.9434223  49.8428965
  45.3795147  49.9271393  50.6564331  45.8445740  49.5741796  51.5768909
  44.9911308  48.9835262  50.2732182  46.5486240  50.4125452  49.7403336
  47.7159071  50.0047016  50.0168324  46.3013744  51.0857677  48.7140608
  43.0280590  50.1661587  51.7014170  42.0403194  49.6953344  51.1520767
  43.2731771  50.0920534  53.0124998  44.1947412  50.3426313  53.3411932
  42.2646379  49.5710373  53.9491367  42.0747805  48.5063267  53.8133097
  42.8302479  49.7427607  55.4093504  43.9069891  49.6059084  55.3093195
  42.6747561  50.7147598  55.8774710  42.3219538  48.5874176  56.3562775
  42.3358202  49.0963793  57.3200560  41.4038467  48.1315708  55.9856224
  43.5644341  47.1645212  56.4793444  42.6977968  45.9253788  55.6111097
  43.2517242  44.9934673  55.4979467  41.7483664  45.6835794  56.0888338
  42.4671078  46.2482643  54.5959187  40.9510422  50.3132343  53.8834524
  39.8766017  49.6524429  53.8699102  40.8687496  51.6603613  53.7293768
  41.6891003  52.1920824  53.9831495  39.6312189  52.3782206  53.5707140
  38.8733482  51.9331980  54.2154551  39.9631763  53.8700533  53.9387178
  40.6161070  53.9626980  54.8065901  40.5303001  54.3394566  53.1348944
  38.6394072  54.5555925  54.3378687  37.8091645  54.2685080  53.6925936
  38.3477187  54.4215298  55.3795242  38.8274407  56.0919285  54.3184042
  39.6404052  56.5826702  55.1543045  38.2426596  56.8160820  53.5317564
  39.0925741  52.3148680  52.1418810  37.8810382  52.1088028  51.9534731
  39.9714470  52.2744703  51.1381435  40.9578514  52.4211216  51.2981558
  39.5380425  52.0259428  49.7706890  38.8571501  52.8244400  49.4759226
  40.6938028  52.1208668  48.7863588  41.3578653  51.2682772  48.9285231
  40.2949762  52.0739698  47.7730274  41.3409042  53.4046602  48.8461733
  41.8854809  53.4178066  49.6366596  38.8595247  50.6667233  49.5021868
  37.7867723  50.6497860  48.8330984  39.3088436  49.6130943  50.1440001
  40.1029634  49.7914314  50.7420540  38.6501837  48.3528519  50.2346325
  38.4981060  47.9750347  49.2235804  39.5421195  47.3556757  51.0082769
  40.4790926  47.1590710  50.4871941  39.9198270  47.8566694  51.8995953
  38.8295650  45.9866095  51.4234591  38.0400348  46.2135363  52.1398735
  38.3030295  45.1572704  50.1932716  39.1958189  44.9495220  49.6034670
  37.7288127  44.2916584  50.5235720  37.6147985  45.8300495  49.6816063
  39.7859550  45.0309753  52.1638393  40.2298498  45.5692291  53.0013084
  39.3222094  44.2151642  52.7183628  40.5871201  44.7415543  51.4837885
  37.2270083  48.5049295  50.8467102  36.2898350  47.8189945  50.4327393
  37.0658350  49.3193483  51.9065905  37.9198503  49.7739267  52.1966171
  35.8586788  49.5008421  52.5808764  35.5129051  48.6718225  53.1983423
  36.0000610  50.2889490  53.3204699  34.6787119  49.8681211  51.6812325
  33.5711241  49.2619419  51.6843891  34.9378181  50.7618856  50.7225132
  35.8474779  51.2004423  50.7394314  34.0292954  51.2159157  49.6690226
  33.0899835  51.3579798  50.2034473  34.3877697  52.5883484  49.0975428
  35.2658200  52.4201584  48.4739733  33.6145282  52.8177071  48.3643389
  34.6207690  53.6835384  50.1242638  33.5433745  54.1552401  50.8151054
  32.5394154  53.8218069  50.5976486  33.7515640  55.1538992  51.8124962
  32.8963304  55.6047678  52.2938395  35.0782251  55.6395817  52.1154451
  35.3371620  56.5565586  53.0237246  36.2714720  56.7403364  53.1457663
  36.1884570  55.1244974  51.3744354  37.1828103  55.5185652  51.5240145
  35.9564900  54.1783571  50.3248739  36.7502165  53.7390757  49.7388411
  33.7675047  50.1470661  48.5869932  32.6483917  50.0698519  48.0204248
  34.7624898  49.3250942  48.2257223  35.7406116  49.4138718  48.4613085
  34.5668459  48.1193018  47.4240255  34.0530729  48.5369301  46.5581512
  35.9263539  47.4874496  46.9899273  36.5612841  47.0634985  47.7678871
  35.7631588  46.3281441  45.9230471  35.0777864  45.6013727  46.3591290
  35.3726792  46.7374945  44.9913502  36.6619706  45.7837868  45.6333780
  36.6523480  48.5448885  46.1233568  37.5020099  48.0396748  45.6640816
  36.0724545  48.9417839  45.2901125  36.9111562  49.4204140  46.7188120
  33.5995269  47.0720577  47.9900694  32.6947737  46.4994621  47.3192501
  33.7453842  46.7932844  49.3065405  34.4758654  47.3059320  49.7794962
  32.7775383  45.8963108  50.0494862  32.8183222  44.9022865  49.6041203
  33.2835889  45.7739305  51.4818907  33.4157181  46.7742538  51.8942022
  32.4464703  45.3577614  52.0423651  34.6253037  44.9729872  51.6169024
  35.2961397  45.4395437  50.8955145  35.1764154  45.1369953  53.0238008
  34.7428346  44.4401932  53.7411404  36.2622070  45.1245499  53.1187057
  34.8816919  46.1282539  53.3682489  34.5045805  43.5150099  51.3613081
  33.6481094  43.1886530  51.9512653  34.2937016  43.3348131  50.3071928
  35.3877735  42.9444647  51.6486263  31.3880825  46.5726852  50.0797749
  30.3637147  45.8771229  49.9814749  31.3125682  47.8782701  50.2788687
  32.1725941  48.3429956  50.5328083  30.0551248  48.6708784  50.2502918
  29.4100213  48.0129957  50.8326387  30.2100849  50.0272942  50.9152746
  31.2504721  50.3507137  50.9483957  29.5940280  50.7861710  50.4329062
  29.7866035  50.0343609  52.4519157  30.5295563  49.4677019  53.0131817
  29.9055314  51.0639811  52.7893209  28.1205153  49.4135857  52.9613256
  27.0751858  50.3237534  51.8500090  27.0927811  51.3985491  52.0305872
  27.4015164  50.0268936  50.8532715  26.0517144  49.9735403  51.9840050
  29.4382215  48.7234640  48.8345337  28.2309866  48.6526537  48.7057352
  30.2730727  48.6942291  47.7491522  31.2571573  48.8241291  47.9357243
  29.8254251  48.3784342  46.3974237  29.1366386  49.1953659  46.1822510
  31.0470366  48.4899473  45.4224110  31.3750029  49.5292902  45.4399109
  31.9056487  47.8977203  45.7388878  30.8812833  47.9503536  44.0388584
  29.9744201  48.5585737  43.1958771  29.4410229  49.4057703  43.6010313
  29.7243214  47.9972982  41.9100904  29.0801263  48.4457397  41.1682606
  30.4680490  46.8733454  41.4703083  30.3631949  46.4899063  40.1749372
  31.2281466  46.2248850  39.8536372  31.3653636  46.2457466  42.3278761
  31.9014740  45.3384399  42.0916843  31.5669918  46.8081141  43.5700607
  32.3442602  46.3751698  44.1822863  29.0914345  47.0437622  46.1831903
  27.9905248  46.9869137  45.6210756  29.6169066  45.9138393  46.6643906
  30.5823231  45.9520769  46.9586945  28.8579440  44.6292400  46.7316389
  28.6429477  44.3093061  45.7120705  29.8446083  43.5331059  47.2925806
  30.2312946  43.9065266  48.2408094  29.1723180  42.6812649  47.3950195
  31.0963082  43.2481098  46.5192080  31.2053537  43.3728886  45.1622677
  30.4282904  43.7875891  44.5372868  32.4723792  43.1921005  44.5122385
  32.6148987  43.3680725  43.4562445  33.5647130  42.7135372  45.2992249
  34.5040512  42.4922800  44.8143673  33.4190059  42.4232626  46.6462040
  34.2117071  41.8789530  47.1378899  32.2232723  42.8072500  47.2448301
  32.0193934  42.5135422  48.2639360  27.5581026  44.7596884  47.5464153
  26.5305948  44.2951584  47.0943356  27.5532722  45.3015995  48.7582636
  28.4519672  45.5765343  49.1282082  26.3454080  45.6096745  49.5705605
  25.7769632  44.7306061  49.8742342  26.6982675  46.2797689  50.8967829
  27.4178290  47.0901442  50.7800388  25.8290648  46.7875242  51.3148355
  27.2399378  45.3243446  51.8916082  27.1159911  44.0963268  51.8227005
  27.9726458  45.8723450  52.8512907  28.3576107  45.2180099  53.5174322
  28.1201434  46.8639517  52.9739904  25.3523207  46.4283419  48.7252378
  24.1477323  46.1555290  48.7706041  25.7607889  47.5182915  48.0750418
  26.7180204  47.7734804  48.2717228  24.8778462  48.4277678  47.2164869
  24.0734363  47.7853441  46.8582678  24.2226410  49.5408201  48.0574369
  23.7044835  50.1793432  47.3419666  23.4254169  49.1227150  48.6720324
  25.1361346  50.5177784  48.9078665  25.3827333  49.9710941  49.8180485
  26.1350751  50.7462120  48.5363197  24.4703460  51.7748499  49.3921137
  23.4920454  51.4463043  49.7429609  24.9331880  52.1504021  50.3047132
  24.4228935  52.8454113  48.3048964  24.8263550  52.5578165  47.4247789
  23.5552669  53.8832903  48.2580614  22.9992127  54.3416309  49.3744469
  23.0349731  53.7310505  50.1781940  22.4265766  55.1730633  49.4046068
  23.1786633  54.4593525  47.1570253  23.4298611  53.9974260  46.2946844
  22.5185084  55.2228689  47.1204853  25.6236601  48.9457655  46.0275793
  26.5125656  49.8153210  46.1537552  25.4274702  48.4101295  44.8161936
  24.7774172  47.6371574  44.8090315  26.1946416  48.6825657  43.6258841
  27.2274852  48.3398867  43.6883736  25.6685066  47.8973389  42.4260998
  25.8654857  46.8605614  42.6988506  24.1506076  48.0523062  42.0763540
  23.8194871  47.1970749  41.4872503  23.4897232  47.9657459  42.9388142
  24.0550876  48.9790058  41.5104866  26.4506125  48.2745266  41.2646055
  27.3335552  48.0309200  41.5521193  26.3182259  50.2154589  43.2907295
  27.3813009  50.7257605  42.8938055  25.1999235  50.9130955  43.4037066
  24.3870568  50.4760838  43.8140392  25.1713920  52.4017620  43.1253386
  25.9125638  52.4651527  42.3286247  23.7857270  52.7828360  42.5914049
  23.4149694  51.9191313  42.0394564  23.2381749  52.7348757  43.5326719
  23.8616371  54.0489292  41.8978643  23.8700008  54.6946478  42.6082039
  25.6728458  53.1345034  44.3978930  24.8671794  53.4080553  45.2200413
  27.0055199  53.3682489  44.6060801  27.6427555  52.8641987  44.0061092
  27.5579548  54.0221643  45.7764006  27.2751975  53.4473801  46.6583157
  29.1090775  54.0941477  45.7047987  29.3862200  54.5477676  44.7532082
  29.3753982  54.8483849  46.4452648  29.9065256  52.8003407  45.9729719
  29.5339727  52.0478964  45.2778959  31.3393402  53.0429363  45.4345798
  31.9680929  52.1795607  45.6521654  31.3329005  52.9758644  44.3466663
  31.7675567  53.9900351  45.7628298  30.0112605  52.3176146  47.3672009
  28.9986706  52.2792912  47.7688217  30.4107308  51.3094234  47.4771070
  30.7391262  52.9099321  47.9217052  26.9226789  55.4403067  45.8207321
  26.5547991  55.9539986  44.7598505  26.7954373  56.2290239  46.9690609
  27.2839832  55.8358955  48.2758617  28.3263421  56.1543083  48.2615042
  27.1599126  54.7615480  48.4118080  26.3159680  56.5319538  49.2836905
  26.7348886  56.6832781  50.2785301  25.3984380  55.9833908  49.4965839
  25.9687042  57.7921295  48.6284208  26.6227531  58.5705471  49.0213394
  24.9207640  57.9914188  48.8524818  26.0947371  57.4912214  47.1335459
  25.0603986  57.3652983  46.8135691  26.6095304  58.6698532  46.2796068
  25.8434820  59.6794653  46.1705542  27.8374290  58.7020397  45.7079697
  28.3512950  57.8338623  45.6598854  28.3578110  59.6806383  44.8020220
  27.8140521  60.6207943  44.8944378  29.7471690  60.0179815  45.2455091
  30.2586746  60.5778980  44.4625902  29.7251010  60.6978416  46.0972166
  30.6044507  58.8243389  45.6327391  31.3415623  57.9773235  44.8497629
  31.5491438  57.9841614  43.7899208  31.6717601  56.8404150  45.5822372
  32.2785592  56.1299515  45.1986551  31.4257908  56.9429970  46.9307661
  31.6714549  56.1693954  48.0984974  32.2576523  55.2631664  48.0594349
  31.0809135  56.6147232  49.3440819  31.3500881  56.1207390  50.2659941
  30.3642440  57.8256750  49.3378115  30.1714587  58.2619572  50.3067780
  30.1753306  58.5499048  48.2054901  29.7679543  59.5493603  48.2447433
  30.6596971  58.1349850  46.9612551  28.3125687  59.3816662  43.3127356
  29.0386367  59.9644709  42.4647760  27.6375651  58.2597399  42.9274368
  27.1581268  57.6785135  43.6000538  27.5808620  57.7874899  41.5185022
  28.5506153  57.9307318  41.0418844  27.2413683  56.2886143  41.4760971
  26.4170337  56.0860395  42.1598577  27.0006728  55.9961891  40.4540157
  28.4319878  55.4237938  41.8824816  29.3318820  55.7574320  41.3657856
  28.7018442  55.6577539  42.9123068  28.3093834  53.9373302  41.5820217
  28.8615513  53.1801796  42.3654032  27.6299906  53.4966373  40.5891943
  27.4646282  52.5012589  40.6336689  27.2982597  54.1314363  39.8770881
  26.4957094  58.4891510  40.6956100  25.4778433  58.7806034  41.2392044
  26.6645765  58.5933304  39.3655849  27.5202227  58.2131195  38.9868712
  25.5612874  58.9684296  38.4426236  25.9277534  58.7248325  37.4453950
  24.6803713  58.3916569  38.7244391  25.3470135  60.5284357  38.3841491
  24.3967152  60.9614182  37.7442431  26.1645842  61.4176178  39.0090179
  27.0594668  61.1212492  39.3715906  25.8892107  62.8882551  39.0451956
  24.8214054  62.9334879  39.2593217  26.5746427  63.6901569  40.1798439
  27.5881481  63.9749765  39.8973680  26.0297441  64.6270561  40.2956343
  26.6032982  62.8924417  41.4887333  27.2771287  62.0358419  41.4716721
  27.2615314  63.7538719  42.5971937  27.3872590  63.2652044  43.5633707
  28.2090068  64.2109966  42.3118401  26.7208838  64.6959305  42.6885271
  25.1878428  62.5553751  42.0016193  24.7082233  61.8388557  41.3347816
  25.2821612  61.9903946  42.9289865  24.6042633  63.4614611  42.1645498
  25.9364533  63.6258221  37.7295876  26.8351221  63.3892488  36.8991923
  25.0769591  64.6411037  37.5602412  24.3333149  64.7794008  38.2295513
  24.8332310  65.3642750  36.2993145  24.9312806  64.6814775  35.4553437
  23.3668280  65.9242773  36.4574695  23.3223128  66.6155148  37.2990799
  23.1864166  66.5373802  35.5744886  22.3393130  64.7228146  36.6015887
  22.5472164  64.0762997  35.7490087  22.5995874  64.0534925  37.4215746
  20.8869433  65.1774883  36.5630317  20.6920314  65.8328676  37.4119043
  20.9511900  65.8321571  35.6939077  19.8567975  64.1295004  36.3664174
  19.9325776  63.6967468  35.3688788  20.1097465  63.3407354  37.0749164
  18.5090518  64.5970964  36.6098619  18.4634924  65.1884699  37.4273586
  18.1744182  65.1005554  35.8007574  17.8152120  63.8707399  36.7151856
  25.8393383  66.4664841  36.1676455  25.7665420  67.3874712  36.9541216
  26.7431426  66.3054991  35.2300358  26.7138910  65.4788065  34.6505284
  27.8259325  67.2892189  34.9655032  27.5399876  68.2594347  35.3717208
  29.1048408  67.0658731  35.7812190  29.4727278  68.0023956  36.2003756
  28.8622737  66.3149214  36.5331054  29.8680878  66.6381216  35.1311564
  28.1591892  67.3501444  33.3927488  28.4293532  66.3094234  32.8393745
  28.1601357  68.5101175  32.7742982  27.8825283  69.3309069  33.2932734
  28.5490012  68.7296438  31.4701343  27.8451657  68.1349039  30.8878946
  28.4891176  70.2878571  31.2459183  29.0302181  70.8863831  31.9787693
  28.9846373  70.5396795  30.3082895  27.4329972  70.5574751  31.2486672
  29.9397206  68.2353258  31.1438990  30.0955725  67.5316572  30.1917481
  30.9349418  68.5406113  31.9731140  30.6572151  69.0271711  32.8134871
  32.3548388  68.2457876  31.7567587  32.4562407  67.9664421  30.7080507
  33.2097530  69.5883942  31.7806578  34.0857339  69.4151163  31.1555696
  32.4363947  70.7838154  31.2287426  31.6471052  71.1063385  31.9077897
  33.1122971  71.6118908  31.0153270  32.0161724  70.4653120  30.2747679
  33.6213088  69.9193811  33.0944252  33.7080145  70.8754063  33.0845332
  32.9800105  67.2045469  32.7131438  32.3105383  66.9295692  33.7485814
  34.1990018  66.6978121  32.4792242  34.5471263  66.8230581  31.5394235
  34.8245859  65.7582760  33.3935285  34.0318155  65.0934982  33.7365937
  35.8209467  64.7968721  32.6715374  36.0977674  64.0521574  33.4177756
  35.2851200  64.3306255  31.8447351  37.1208048  65.3718567  32.1294951
  36.8709755  66.0371447  31.3030076  37.6619434  66.0027838  32.8346157
  38.0694461  64.2192221  31.6540623  38.1583524  63.4440565  32.4151921
  37.6353979  63.8592291  30.7212663  39.4799614  64.6918583  31.2388182
  40.1079655  63.8630056  30.9121513  39.4842482  65.3993082  30.4096007
  40.1034403  65.3414536  32.4100113  40.1532650  64.7417212  33.2211471
  41.0847425  65.5183744  32.2492552  39.6437669  66.2057114  32.6587391
  35.3025365  66.3518000  34.6711016  34.9924874  65.9384871  35.7813191
  35.9229994  67.4977446  34.4631791  36.1216426  67.7942705  33.5183382
  36.3011527  68.3965111  35.5802703  37.1280122  67.8847075  36.0726714
  36.8644452  69.6670246  34.8485994  37.6254916  69.3752813  34.1248655
  36.0865545  70.1000309  34.2197108  37.4032331  70.8135986  35.8045030
  36.5357423  70.9358358  36.4530563  38.2644224  70.4889011  36.3884735
  37.8042293  72.0881224  35.0908136  38.5744715  71.9578123  34.3306422
  37.0240998  72.4780035  34.4369841  38.1538081  73.2147408  36.0949802
  38.9982295  72.8047371  36.6490078  38.5491681  74.0459490  35.5111241
  37.0323563  73.6621714  36.9475341  36.2640524  73.9530039  36.3599753
  36.7425871  72.8032446  37.3929262  37.2823095  74.3660831  37.6273417
  35.1935029  68.7372160  36.5375233  35.3277493  68.4780025  37.7132988
  34.0482712  69.0400362  35.9852862  33.9865994  69.1659451  34.9850631
  32.8090239  69.3343735  36.8287277  32.9214907  70.0651264  37.6296329
  31.8239141  70.0905180  35.8219099  32.2284865  70.9346294  35.2634335
  31.5697145  69.2910624  35.1259470  30.5273747  70.5215788  36.5048623
  30.3447795  69.8487949  37.3427892  30.7654953  71.4728880  36.9806910
  29.2870855  70.6415272  35.5758524  29.3149447  70.6314468  34.3754911
  28.1364274  70.7496071  36.2084842  27.3440576  71.1179161  35.7019258
  28.0935478  70.6688070  37.2143340  32.1871877  68.0501127  37.4072027
  31.7798042  68.1792116  38.5002494  32.2103906  66.8673372  36.7611456
  32.6166916  66.8422270  35.8368134  31.8037510  65.6891394  37.4382949
  30.7663989  65.7708359  37.7628374  31.9813347  64.5068121  36.4190698
  31.8540120  64.8586226  35.3952932  32.8900695  63.9982367  36.7410135
  30.7861400  63.5853291  36.7197728  30.7813501  63.3745861  37.7891970
  29.8637509  64.0809155  36.4169526  30.9221005  62.2491980  36.0287428
  31.3133454  62.5214291  35.0484776  31.7536664  61.7356491  36.5113068
  29.6550918  61.4904261  35.8833337  29.8710871  60.6860638  35.1801610
  29.2767620  61.0542727  36.8078518  28.5474896  62.2978973  35.2156734
  27.8083968  61.6951609  34.8831797  28.1448436  62.9455805  35.8778572
  28.8516903  62.8195524  34.4060826  32.6482725  65.4101801  38.6270547
  32.0921612  65.0972080  39.6940494  33.9237475  65.6485748  38.5243440
  34.3254232  65.9531403  37.6491308  34.8800683  65.4233408  39.5759797
  34.6752882  64.4729853  40.0689125  36.3738418  65.4783440  39.1033387
  36.7632103  66.3932657  38.6567831  36.9277143  65.4667234  40.0420570
  36.7704678  64.3120003  38.2659435  36.6567254  63.0048561  38.7269759
  36.3234401  62.8621864  39.7443104  36.8729854  61.9507170  37.8707218
  36.7484283  60.9384012  38.2258272  37.2784281  62.1135235  36.5027094
  37.5140452  61.0701036  35.6470251  37.6767254  60.2007723  36.0203934
  37.3650622  63.4451723  36.0240722  37.6846170  63.5910130  35.0027919
  37.1486187  64.5242119  36.9274426  37.2410536  65.5353022  36.5592575
  34.6538043  66.4022446  40.7267284  34.4891000  65.9491730  41.9066715
  34.2887712  67.6625633  40.3995609  34.3028092  67.9589510  39.4341230
  33.8894010  68.6133671  41.4620352  34.7440100  68.6008596  42.1384859
  33.6923504  70.0408125  40.8958769  32.8812528  70.0384521  40.1677132
  33.4208727  70.6444025  41.7619467  34.9250150  70.7142353  40.3310871
  35.6000233  70.9885597  41.1417723  35.4400492  69.9285984  39.7782540
  34.7102118  71.9606876  39.4838762  35.6155133  72.1643114  38.6307883
  33.7644172  72.7848053  39.7317672  32.6043797  68.1707668  42.1986914
  32.5862861  68.3579636  43.4081030  31.5659165  67.7019358  41.4817142
  31.6199732  67.7042007  40.4731655  30.2870131  67.2816801  42.1238470
  30.0154328  68.0633402  42.8333187  29.1502357  66.9594193  41.0857201
  29.4594812  66.1281347  40.4521322  28.2414651  66.5992165  41.5678883
  28.7606931  68.2394695  40.2554750  28.6714101  69.0794611  40.9443474
  29.5512271  68.3900547  39.5203066  27.4827814  67.8647757  39.4931293
  27.6806068  67.2634792  38.6057687  26.7612529  67.3343611  40.1145506
  26.6726899  69.1451359  39.1080284  27.2913194  69.6745968  38.3834100
  25.7893443  68.9395952  38.5034156  26.2351370  69.9502802  40.3440142
  25.5801749  69.4789171  40.9514236  26.9604969  70.3317833  40.9342766
  25.7338977  70.7769156  40.0515556  30.4764152  66.0216665  42.9760265
  29.9102044  65.9682369  44.0527248  31.1825395  65.0443316  42.4304771
  31.6177130  65.1846886  41.5299129  31.5452552  63.8222265  43.1336975
  30.6343794  63.2965899  43.4202528  32.4517488  62.8596973  42.3309278
  33.2089114  63.4499931  41.8148375  33.2975960  61.8810368  43.1679916
  33.7310195  61.2577105  42.3858690  34.1316748  62.3254156  43.7110710
  32.7346802  61.2436247  43.8498497  31.6147614  62.1823502  41.2521172
  31.0830188  61.4147997  41.8144512  30.9099436  62.9041433  40.8393860
  32.3845792  61.6629791  40.0579405  32.9752135  62.4703741  39.6250987
  33.1032896  60.8864164  40.3196812  31.7221355  61.3315201  39.2583108
  32.2687936  64.0940952  44.4746399  31.9530106  63.5260057  45.5865479
  33.2906079  64.9945498  44.3434191  33.4272599  65.4253864  43.4401989
  34.1884947  65.4066515  45.4721832  34.6439576  64.4729710  45.8021879
  35.2912521  66.3799524  45.0816250  35.8248520  65.9397745  44.2392397
  34.7752142  67.2614717  44.7011948  35.9567857  66.6126871  46.2657213
  35.9715533  67.5629759  46.4011002  33.3834767  65.9310818  46.6565037
  33.3292556  65.3471994  47.7228355  32.5473213  66.9962549  46.4158869
  32.4874949  67.5194359  45.5540276  31.7479110  67.5490189  47.5006199
  32.4591684  67.7055502  48.3116198  31.1351347  68.8982725  47.1173286
  31.8889236  69.3929052  46.5047550  30.2879930  68.7153053  46.4562845
  30.6240392  69.7827864  48.2526350  30.5433917  70.8166122  47.9167700
  29.6491671  69.4504738  48.6094189  31.5027189  69.9693680  49.5539856
  32.6910257  69.6321201  49.5627546  31.1117291  70.7291508  50.4792118
  30.6615233  66.5773964  48.0077505  30.5012274  66.5389633  49.2146015
  30.0813556  65.6995630  47.2126484  30.4097629  65.6004620  46.2626886
  29.1993880  64.5887613  47.6698828  28.4714508  65.0773907  48.3175278
  28.5213137  63.9281416  46.4364147  28.0285668  64.6576500  45.7936716
  29.3171263  63.4298277  45.8828211  27.4293685  62.9463434  46.9042778
  26.9720531  62.5232935  46.0098553  27.8198028  62.1191549  47.4970865
  26.2841821  63.6315918  47.6870155  26.6685152  63.9779091  48.6464167
  25.8669353  64.4103718  47.0486498  25.0896120  62.6771259  47.8506279
  24.6951771  62.1709347  46.9695568  25.3509617  61.8020344  48.4456205
  23.9469314  63.3853865  48.5170841  23.5698462  64.1608238  47.9911518
  23.1778550  62.7679634  48.7348175  24.2451882  63.6617470  49.4416189
  29.9615693  63.5665226  48.5367060  29.3447757  63.1494379  49.4991064
  31.2358618  63.1560087  48.3035231  31.5683651  63.5491467  47.4346256
  32.0250773  62.2716188  49.1901302  31.4947939  61.3543224  49.4459963
  33.3015084  61.8950891  48.4743118  33.7284851  62.6987505  47.8743839
  34.1116214  61.5315723  49.1065073  33.1319785  60.6929827  47.4663210
  32.8954935  59.8325300  48.0922556  32.2803617  60.7482195  46.7882395
  34.3276858  60.3599548  46.5238810  33.9523339  59.8721027  45.6243229
  34.8318958  61.2862730  46.2485552  35.2533627  59.5060587  47.3815775
  35.5435228  59.9319458  48.3420563  34.7125912  58.5910225  47.6231956
  36.4308977  59.1148853  46.5482283  37.0913506  59.8767138  46.4889097
  36.9031954  58.3949089  47.0761251  36.1450291  58.8214207  45.6250525
  32.2856545  62.9576635  50.5442142  32.0519328  62.3551464  51.5872908
  32.8149509  64.2303419  50.5232525  33.2043147  64.5632744  49.6528149
  33.0375385  65.0337839  51.6891479  33.7846112  64.4920778  52.2692585
  33.6415911  66.3384104  51.1562157  32.9837298  66.8391228  50.4458618
  33.7770224  67.1601152  51.8594646  35.0203991  65.9748125  50.5366421
  34.7860646  65.5962372  49.5417213  35.5771971  66.9008350  50.3932571
  36.1489773  64.7303486  51.1791945  36.3684988  65.4064798  52.8932285
  35.3933907  65.5062246  53.3700085  37.0571017  64.8250389  53.5062933
  36.8637228  66.3772869  52.8735971  31.7344642  65.2774048  52.5368309
  31.7984056  65.2645111  53.7457800  30.5328417  65.3101206  51.8409395
  30.6369305  65.3253555  50.8364344  29.1851187  65.4937220  52.4696684
  29.3633270  66.0549259  53.3869410  28.2505894  66.3540268  51.5372419
  28.2107615  65.8099461  50.5935812  27.2748590  66.5608883  51.9768572
  28.9939976  67.4842215  51.1907244  29.5441008  67.1372128  50.4846287
  28.4059954  64.2303705  52.8022003  27.3127627  64.2809820  53.2881021
  29.0953016  63.0727959  52.7406311  30.0927567  63.0826235  52.5822401
  28.5796309  61.7381430  53.0631447  27.5391960  61.8154383  53.3787680
  28.4602404  60.8978415  51.8010664  29.4297886  60.6216621  51.3865805
  27.6886272  59.6219730  52.0629501  28.1445575  58.9485979  52.7887535
  26.7429614  59.9820375  52.4681377  27.5317359  59.0441799  51.1521006
  27.7015615  61.5888548  50.8325958  28.3671761  62.2209120  50.5514193
  29.3348980  61.0117674  54.1743088  30.2716613  60.3313303  53.8839293
  29.0477991  61.1796904  55.4690361  27.9513454  62.0168257  55.8816004
  27.0125341  61.5193987  55.6380749  28.0448174  62.9879141  55.3954363
  28.0677128  62.1338987  57.3594570  27.1085858  62.1482849  57.8771162
  28.5537839  63.0343008  57.7351046  28.9553905  60.9359837  57.7963448
  28.4113550  60.1915550  58.3776760  29.7611141  61.3518190  58.4013176
  29.6817398  60.4026604  56.5236425  30.7390213  60.6659508  56.4930916
  29.5362854  58.8929653  56.3290596  28.6615849  58.4019279  55.5644560
  30.3801012  58.1155348  56.9807005  30.9555125  58.5559988  57.6842546
  30.2945352  56.6500759  57.1879053  30.3489232  56.1339712  56.2293768
  31.4501190  56.0925388  58.0182505  31.5450644  56.7481375  58.8838577
  31.3985085  54.6324635  58.4448481  31.3900042  54.0694189  57.5115681
  32.2792315  54.4299173  59.0542793  30.4845619  54.3717766  58.9785576
  32.6913714  56.2946796  57.1338606  32.5901389  55.7128572  56.2177086
  32.7716303  57.3658800  56.9489431  33.5220718  55.7907104  57.6278782
  28.9693236  56.2226677  57.7686787  28.4370637  55.1726723  57.3854923
  28.3219051  57.0068216  58.5539913  28.8349438  57.8461218  58.7830400
  27.0597768  56.6927099  59.2959547  27.0862246  55.6878185  59.7173882
  26.8497014  57.6653814  60.5457306  27.5304627  57.3849726  61.3494968
  27.0742345  58.6954117  60.2687550  25.4591513  57.5099087  61.1975479
  25.3660631  58.1955099  62.0397949  24.7076750  57.8820562  60.5012035
  25.2078605  56.0860968  61.9042397  26.2046885  55.5041122  62.3340225
  24.0414023  55.7056236  62.0502377  25.8175182  56.7887402  58.4085894
  24.8015475  56.0648632  58.5986519  25.7664919  57.6701355  57.4625015
  26.6146183  58.2174778  57.4277401  24.8138928  57.6621580  56.3284779
  23.7881637  57.5184250  56.6680670  24.7514629  59.1550064  55.7542133
  25.7607937  59.5391226  55.6065321  24.0891361  59.2563772  54.4432640
  24.0394592  60.3006601  54.1348648  24.6072078  58.6779022  53.6783695
  23.0758595  58.8547564  54.4349861  24.0075111  60.0037479  56.6879606
  23.8646722  61.0298300  56.3490677  23.0548644  59.5201206  56.9039917
  24.4743037  60.2008677  57.6530218  25.0045109  56.6368580  55.1705217
  24.0262890  55.9923744  54.7878933  26.2360859  56.4359283  54.7303581
  26.9441819  57.0534086  55.1010609  26.6595650  55.4183340  53.7559080
  26.3438892  55.6533718  52.7394390  28.1664872  55.4238605  53.6530113
  28.4983635  56.4081287  53.3225965  28.5179996  55.3516197  54.6822500
  28.8359189  54.3693781  52.8428364  28.7513828  53.3501339  53.2197952
  28.4514189  54.2679071  51.3772488  29.2098832  53.7200546  50.8180523
  27.4715042  53.8042307  51.2637806  28.2296443  55.2215433  50.8981991
  30.3523040  54.6813393  52.8265810  30.6369233  54.8588514  53.8636827
  30.8937120  53.8341475  52.4055719  30.6719780  55.5733633  52.2878742
  26.0120535  54.0235662  54.0662241  25.3932977  53.4123755  53.1654358
  26.2646794  53.5345221  55.3293991  26.7081642  54.1521931  55.9941578
  26.1112571  52.1186256  55.7944012  26.3421321  51.5387630  54.9007845
  27.0550323  51.8858767  56.9940042  26.7413902  52.4165487  57.8929567
  26.9718385  50.8324957  57.2615385  28.8288236  52.1958876  56.6394520
  28.9647269  53.3252001  57.3402309  24.6908998  51.7271948  56.0973358
  24.3899083  50.5490637  56.3158989  23.6978221  52.6517344  56.0267782
  23.8363433  53.6240864  55.7913065  22.2651839  52.3263502  56.2231112
  22.2838569  51.9430351  57.2433186  21.3395786  53.6027956  56.1186218
  21.5404773  54.2863178  56.9435644  21.5695143  54.1336060  55.1947880
  19.8424137  53.3204460  56.0979366  19.6302140  52.6037931  55.3045416
  19.5206201  52.8960752  57.0489693  19.0728331  54.6561670  55.9659290
  19.2017782  55.3134251  56.8258572  19.3907428  55.2374554  55.1004028
  17.6155424  54.1987324  55.8311081  17.5392532  53.9199781  54.7801208
  17.4262893  53.3521891  56.4911413  16.6939282  55.3172350  56.0112143
  16.9741321  56.1528254  55.5178785  15.7581508  55.0502157  55.7407999
  16.5198433  55.5764437  56.9717360  21.8337083  51.1783600  55.2485085
  22.0301080  51.2252283  54.0300751  21.1776185  50.1383972  55.7654381
  21.1939812  50.0620461  56.7724180  20.5676675  49.0072107  55.0332022
  19.5525610  48.9090633  55.4179478  20.5856872  49.1349173  53.9508581
  21.2572622  47.6774597  55.2754402  20.7408714  46.6246271  54.8550272
  22.4367499  47.7392244  55.8935022  22.7644825  48.6725140  56.0976076
  23.4588122  46.6869736  56.0098076  23.0209565  45.7433653  55.6842566
  24.5855737  47.1435738  55.1225519  24.8536301  48.0953121  55.5812836
  25.3824449  46.4341402  55.3457260  24.2255068  47.3432636  53.6568022
  23.9882541  48.6708355  53.1447744  24.3526292  49.5432997  53.6667347
  23.4606671  48.7976313  51.8881798  23.3443618  49.7974443  51.4967203
  23.0148363  47.6912880  51.1719370  22.4174833  47.8538322  50.2869749
  23.0902171  46.3640594  51.7539787  22.7151608  45.4921341  51.2387419
  23.6808062  46.2185287  53.0055237  23.8686705  45.2658272  53.4782505
  23.9167118  46.5120602  57.4706221  23.6036038  47.3423433  58.2910919
  24.5758581  45.4280615  57.8360796  24.6790934  44.1223001  57.1634293
  25.4187727  44.2685699  56.3762951  23.6998487  43.7777281  56.8310881
  25.1230502  43.1216908  58.2137156  25.6186914  42.2649288  57.7572107
  24.2539191  42.8005838  58.7878275  26.0004020  44.0688181  59.0558767
  26.9839478  44.2366982  58.6170578  25.9882307  43.6235380  60.0507021
  25.1567602  45.3725100  59.1944981  24.3608689  45.2336740  59.9261999
  26.1356235  46.4699125  59.6650743  26.9652224  46.9800854  58.9093399
  26.0637546  46.8406200  60.9689808  25.3329444  46.4807749  61.5660763
  26.9532943  47.7904558  61.4992046  26.7332172  48.7508106  61.0329628
  26.5711761  47.8844881  62.9700518  25.5097032  47.9812431  63.1981134
  27.0433354  47.2067547  63.6812782  26.8607688  48.8442945  63.3978462
  28.4719467  47.4974251  61.3560534  29.3366051  48.3525562  61.4642763
  28.8384438  46.2351942  61.2403679  28.1063843  45.5468893  61.3425159
  30.2657485  45.6977463  61.1498976  30.7737803  45.9188175  62.0885849
  30.4195595  44.1414499  60.8042049  29.7429109  43.8613844  59.9968529
  31.4176178  43.8699055  60.4603434  30.1003599  43.2004023  62.0814610
  30.3557301  42.1556473  61.9043350  30.8181477  43.4607363  62.8593445
  28.8237071  43.3077288  62.8166723  28.6558509  42.5300121  63.7349653
  27.8344536  43.9656019  62.3488569  31.0356951  46.4885426  60.0550413
  32.2361326  46.7402077  60.1352978  30.3574967  46.7752695  58.9333725
  29.4401193  46.3754988  58.7966204  30.9003544  47.4746132  57.7271128
  31.7915320  46.9089127  57.4552917  30.0520420  47.2948647  56.4682198
  29.1263580  47.8689718  56.5084124  30.6709194  47.8472137  55.7611084
  29.8589683  45.8335495  55.9758854  30.6073809  45.2150059  54.8733044
  31.4400578  45.7726908  54.4707680  30.2710795  43.9054394  54.4048738
  30.8444071  43.4206772  53.6285353  29.1511011  43.3038712  54.8948240
  28.9331794  42.3085976  54.5365667  28.3247185  43.9520884  55.7957411
  27.4392748  43.4192228  56.1094999  28.7047100  45.1783228  56.4266157
  28.0132556  45.6626129  57.1002293  31.1077833  48.9910221  58.0808830
  32.0860100  49.6294403  57.7181911  30.2255988  49.6249199  58.8778877
  29.4318461  49.1027212  59.2204762  30.3906298  50.9391594  59.4681501
  30.6726575  51.7038679  58.7444210  29.0973473  51.3884258  60.2052784
  29.3020558  52.4285412  60.4589367  28.2518840  51.3659191  59.5176840
  28.8523698  50.8038664  61.0920525  31.5449834  50.9276915  60.4855633
  32.3421359  51.8259239  60.3586340  31.6732359  49.9199772  61.3756084
  30.8355069  49.3731260  61.5144014  32.6912403  49.7301197  62.2780418
  32.7218986  50.5179787  63.0306625  32.4046254  48.4810495  63.1148529
  32.1233058  47.7939367  62.3168278  33.3084321  48.2556200  63.6809015
  31.2990904  48.5579252  64.0952253  31.5612745  49.3592691  64.7860289
  30.3419614  48.8531637  63.6652994  31.1472058  46.9693947  65.0225735
  29.9568057  47.3604012  66.2679338  29.7476053  46.4323711  66.7999935
  30.3454971  48.1180143  66.9484091  29.0540957  47.6465940  65.7282066
  34.0232873  49.6737432  61.5874577  34.9849629  50.2679634  62.0473623
  34.1471028  48.8837051  60.5348063  33.3170938  48.3968019  60.2280283
  35.3550744  48.8237715  59.6903515  36.2283778  48.4771490  60.2428865
  35.0438166  47.7672100  58.5752535  34.9168968  46.7532825  58.9546442
  34.1115284  47.8955746  58.0252838  36.1217022  47.6863480  57.5032377
  36.3285446  48.6211252  56.4735794  35.6282282  49.4365120  56.3682079
  37.3790693  48.4885311  55.5642700  37.6177526  49.2701912  54.8582697
  38.2288504  47.3719358  55.6066561  39.2535663  47.2445107  54.7643805
  39.4548631  48.0326176  54.2545080  38.0029631  46.4233446  56.6198540
  38.6977673  45.5977106  56.5753412  36.9987965  46.5347481  57.5497007
  36.8684673  45.8415461  58.3675528  35.6477666  50.2345800  59.1823673
  36.7772555  50.7229471  59.3488407  34.7233653  50.8845043  58.4688902
  33.7859297  50.5151892  58.3987141  34.9538946  52.2095346  57.9297781
  35.8882952  52.0767212  57.3844719  33.7082505  52.5863552  57.0461416
  32.8397870  52.5221300  57.7016926  33.7582898  53.6338949  56.7490578
  33.5194945  51.7884779  55.7480001  33.7698674  50.7276487  55.7409334
  32.0663929  51.7679739  55.2668715  31.4113808  51.4369345  56.0727739
  31.7312551  52.7817488  55.0476742  32.0399094  51.0643721  54.4348001
  34.4904137  52.3932076  54.7309351  35.5290174  52.2615194  55.0343466
  34.3851113  52.0089293  53.7163639  34.2589521  53.4535313  54.6297407
  35.2492023  53.3191299  58.9244175  36.3094354  53.9171743  58.7801552
  34.5785952  53.5308456  60.0138903  33.6389136  53.1621742  60.0482225
  35.0962758  54.3886328  61.1165142  34.9585795  55.4212904  60.7959461
  34.1052270  54.2472124  62.2824144  34.0154433  53.1805277  62.4878836
  34.4745469  54.8139334  63.1371260  32.7251315  54.8005676  61.9990683
  32.6082683  55.8023739  61.3247395  31.6722941  54.2214298  62.4779892
  30.7454181  54.5600557  62.2627354  31.7491102  53.4065914  63.0697966
  36.5445852  54.0918303  61.6130877  37.4115205  54.9599791  61.8835545
  36.8792701  52.8053904  61.8339396  36.1837912  52.0898199  61.6778469
  38.2451677  52.4343109  62.1673918  38.5797048  53.0090952  63.0309916
  38.3458328  50.9216166  62.5383949  37.7306414  50.7258701  63.4166479
  37.9661012  50.3580093  61.6861916  39.7711802  50.4444027  62.8836393
  40.1605415  50.2015638  64.2841721  39.5215058  50.3438663  65.1431179
  41.4005613  49.6144438  64.5841742  41.5778494  49.4085884  65.6294489
  42.3023844  49.3709707  63.5275507  43.4793758  48.7908030  63.7408447
  43.6952591  48.8803053  64.6719646  41.8866968  49.5717478  62.2036362
  42.5827980  49.3625736  61.4048290  40.6904411  50.0786257  61.8887520
  40.4534531  50.1931286  60.8413124  39.2159295  52.8832483  61.0772705
  40.2573347  53.4737062  61.3761377  38.9550734  52.5739765  59.8232269
  38.1786704  51.9440699  59.6799946  39.8171735  52.8892231  58.6878824
  40.7561731  52.3923969  58.9319038  39.3272829  52.1083546  57.3851824
  38.3304620  52.4464417  57.1020842  39.8984671  52.2764111  56.4721537
  39.3505669  50.2983522  57.7649021  38.3183312  50.2525043  58.6118364
  40.0613308  54.3944597  58.4080505  41.2051821  54.8281145  58.2765245
  38.9775681  55.1411152  58.5878611  38.0916977  54.6871662  58.7589312
  38.8576031  56.6294718  58.4237957  39.3763471  56.9234228  57.5113297
  37.4001050  57.0989037  58.4655046  36.8760371  56.6605186  59.3147850
  37.4387693  58.1801987  58.5974455  36.5321589  56.9081736  57.2050571
  36.8587613  56.0338688  56.6420126  35.5902433  56.7412949  57.7275944
  36.5152025  58.1388187  56.2625408  36.1420584  57.7592802  55.3113222
  35.8939934  58.9177275  56.7046928  37.8436756  58.6410332  56.0045481
  38.5116696  57.9809046  55.6329012  38.3677959  59.7996426  56.1858606
  37.8226304  60.8023167  56.8023396  36.8535709  60.7069778  57.0705462
  38.3157086  61.6509438  57.0406866  39.6089864  59.9694633  55.8397818
  40.0549412  59.3808556  55.1507521  39.9268341  60.9106922  56.0218906
  39.6172237  57.2550821  59.6324205  40.0534534  58.4306288  59.6352196
  39.7068334  56.4953136  60.7178068  39.2640138  55.5879641  60.7447672
  40.3541422  57.0043468  61.9046879  40.1808786  58.0800581  61.9350195
  39.9363637  56.4409924  62.7390671  41.8901110  56.7789984  61.9816017
  42.5336123  57.4296427  62.8287411  42.5288200  55.8255482  61.2432861
  42.0000076  55.1423311  60.7201481  44.0231037  55.6525707  61.1508656
  44.3048811  55.3401184  62.1563911  44.3802404  54.4953108  60.1290321
  43.9680481  54.7817802  59.1614914  45.4661942  54.5120335  60.0366735
  43.7713432  53.1189489  60.5299520  42.8205156  53.2454014  61.0476780
  43.6137724  52.1006107  59.3730211  44.5397854  51.9975281  58.8073540
  43.0817080  51.2556267  59.8100710  43.0946398  52.5464201  58.5245752
  44.7951078  52.4560452  61.5197039  44.4458914  51.4252043  61.5790606
  45.7478285  52.3414946  61.0026979  44.8731518  53.0159616  62.4516439
  44.7200727  56.9511366  60.6716108  44.1838741  57.7036381  59.8125458
  45.8400583  57.2272348  61.3478088  46.0754681  56.5289402  62.0385075
  46.8515873  58.2525492  60.9437370  46.2497473  59.1180134  60.6665087
  47.7750540  58.7605381  62.0926809  48.4640121  57.9677296  62.3840427
  48.3194876  59.5523453  61.5781498  47.0712948  59.1591454  63.3737707
  46.5706158  60.1096916  63.1896973  46.4492369  58.3149433  63.6712217
  48.0336761  59.4840670  64.5023537  48.4908772  60.4356813  64.2312431
  47.4552584  59.5759153  65.4216480  48.9985752  58.3928442  64.7373056
  49.9144220  58.4015369  64.3115616  48.7990475  57.2760534  65.4519033
  47.7295732  56.9918251  66.1078262  46.8959713  57.5586796  66.1702061
  47.7021790  56.0667276  66.5122223  49.8019075  56.4368677  65.5899000
  50.6703758  56.7542887  65.1835632  49.4759083  55.6471491  66.1285734
  47.7630424  57.9336262  59.7456217  47.7461767  56.7480564  59.2473602
  48.5137987  58.9052057  59.2572403  48.4221029  59.8122025  59.6920395
  49.4653511  58.7538195  58.1463766  48.9159298  58.5288715  57.2322512
  50.2750826  60.0540257  57.8373718  49.5979261  60.9069204  57.7911949
  50.7231855  60.2320433  58.8149214  51.1934948  60.0881815  56.6435099
  50.8877945  59.5506525  55.3458118  49.9245071  59.1242838  55.1076984
  51.9368553  59.6525002  54.2925358  51.7540407  59.3354034  53.2764482
  53.2215595  60.1780939  54.5414639  53.9188337  60.2910471  53.7244844
  53.4824181  60.6737041  55.8144474  54.4458914  61.0913849  56.0667610
  52.4809170  60.6005430  56.8312073  52.7183342  61.0572195  57.7806759
  50.3374052  57.5189829  58.4126425  50.3250885  56.5255594  57.6572895
  51.0763884  57.4768639  59.4805908  50.9254599  58.1622028  60.2069712
  52.1275425  56.4502811  59.7869873  52.5610971  55.9324694  58.9314127
  53.2347155  57.2856045  60.5175209  54.2027855  56.8485308  60.2727556
  53.2630587  58.3061457  60.1356936  53.2205629  57.3723555  62.0704699
  53.4020662  56.4029026  62.5344896  54.0627289  58.0384970  62.2578621
  51.9533968  58.1695318  62.6260233  51.3638449  59.0315294  61.9220257
  51.5245724  57.9855394  63.7400436  51.4943123  55.2222824  60.5372381
  52.1800327  54.4016886  61.1330795  50.1408863  55.1045513  60.7465267
  49.5446968  55.7163763  60.2077103  49.5128298  54.1387510  61.7168665
  50.2918768  53.8058329  62.4026871  48.3763266  54.9574137  62.4224377
  48.7875128  55.8407879  62.9109812  47.6546478  55.1244736  61.6228342
  47.6284361  54.2025137  63.5280228  46.8492317  54.8888445  63.8595152
  47.2182131  53.2985687  63.0777979  48.5097122  53.7612581  64.7035503
  49.5982218  53.1137228  64.5273924  48.2378912  54.1230154  65.8747530
  49.0426207  52.8376389  61.0063076  48.5856962  52.8233719  59.8915195
  49.2401361  51.7604542  61.7224312  49.5177174  51.8026781  62.6926231
  49.1425133  50.4040480  61.2100124  49.2663050  50.4232454  60.1272345
  50.2251196  49.4739103  61.7707157  50.0832129  48.4522104  61.4184475
  51.2134314  49.8482847  61.5039110  50.2493620  49.4533634  62.8602552
  47.7658510  49.8343420  61.4482498  47.3772430  49.7624588  62.6148367
  46.8783903  49.5083714  60.4307365  47.2083855  49.6934938  59.0058851
  48.1771374  49.2693186  58.7418795  47.3785162  50.7659769  58.9113331
  45.9835291  49.2142296  58.2359552  46.1077929  48.6688089  57.3004484
  45.3897285  50.1093292  58.0507660  45.1910114  48.3950472  59.2678785
  45.3034925  47.3455858  58.9957094  44.1417980  48.6889410  59.2382002
  45.7392645  48.6377192  60.6439638  45.0679874  49.2397118  61.2564135
  46.0546398  47.3605824  61.3970518  47.0630360  46.6570854  61.2103367
  45.1043558  46.8975639  62.2341061  44.3943787  47.5333881  62.5684214
  45.1005411  45.5884600  62.8113079  46.0776854  45.1098013  62.7466774
  44.7250462  45.6878185  64.3223667  45.3912878  46.4243889  64.7714710
  43.7297297  46.1275578  64.3861628  44.7718477  44.3460035  65.1041031
  44.4386768  44.4201040  66.3506556  45.1916075  43.3074522  64.5633221
  44.1688585  44.6677446  61.9736338  42.9479885  44.6077394  62.2239590
  44.7748947  43.9909077  61.0084581  45.7747364  44.1136837  60.9353399
  44.1783190  42.9629898  60.1455879  43.3584356  43.4189749  59.5906401
  45.3043604  42.4055815  59.2782640  45.9121227  41.7465544  59.8982716
  44.9999523  41.8100834  58.4175539  46.1737490  43.5200691  58.6813402
  45.7416868  44.3107557  57.5777960  44.8355055  44.0655947  57.0438242
  46.5538883  45.3212547  57.0175076  46.0777521  45.8943558  56.2356806
  47.8523302  45.5687284  57.5644302  48.6225319  46.5506887  56.9836235
  48.2106400  47.0375252  56.2660313  48.3139372  44.7550535  58.6146021
  49.2936850  45.0345182  58.9729261  47.4930477  43.7416840  59.1345549
  47.8111029  43.2344007  60.0333881  43.4606981  41.7546463  60.8748341
  42.4448347  41.1804199  60.4121113  43.9767456  41.2827110  62.0429516
  44.8631716  41.5601206  62.4396706  43.2681513  40.3363466  62.8725004
  43.0201006  39.4379497  62.3073006  44.1507006  39.9953008  64.1160965
  45.1000834  39.7337770  63.6487913  44.3254185  40.8004427  64.8297644
  43.6055517  38.7288308  64.7828054  43.2640123  37.9703307  64.0784407
  44.4936657  38.2839799  65.2316523  42.3092794  38.8398933  66.0489225
  43.0775785  40.1436758  67.1238279  44.0482759  39.7877741  67.4690676
  43.1283379  41.0684729  66.5491390  42.3676109  40.4389763  67.8963852
  41.8791962  40.9057188  63.3082628  40.8816814  40.2451277  63.0588531
  41.8732643  42.0605373  63.9694595  42.7485800  42.5280905  64.1573811
  40.6549883  42.7206087  64.3525696  40.3390694  42.0563602  65.1569796
  40.9936953  44.0867615  65.0594807  41.3759279  43.6575222  65.9856272
  41.8206024  44.5213938  64.4978571  39.7408772  44.9577236  65.2389431
  38.6857295  44.7076702  66.1766958  38.7389278  43.9174747  66.9109726
  37.5354576  45.5826855  66.3321781  36.8016100  45.3005600  67.0726299
  37.3854637  46.7001343  65.4560423  36.3372970  47.5423002  65.5109119
  35.5079937  47.2317219  65.8815908  38.4471130  46.9483566  64.5499659
  38.2919526  47.7822876  63.8814735  39.5592904  46.0685492  64.4363165
  40.3203154  46.3441372  63.7212658  39.6749115  42.7742338  63.2461739
  38.5205030  42.2407675  63.3971786  39.9297547  43.3702374  62.0729733
  40.8193302  43.8483191  62.0589161  39.1232395  43.5265636  60.8396959
  38.2822251  44.1324520  61.1768818  39.8950958  44.3416977  59.7879219
  40.7660103  43.7436247  59.5197439  39.2632341  44.5058775  58.9150572
  40.2942753  45.6979275  60.4019594  40.9743595  45.4905796  61.2281513
  41.0543728  46.5925026  59.3861675  41.2779331  47.5274563  59.8999691
  42.0041609  46.1428928  59.0966082  40.3762722  46.7913055  58.5562468
  39.1589332  46.5900517  60.9607840  39.5387554  47.5948715  61.1456585
  38.4914970  46.5917683  60.0990248  38.7238240  46.1863565  61.8750095
  38.4947395  42.1949339  60.2590370  37.3705149  42.0716429  59.7619915
  39.2299461  41.1096811  60.3752995  40.1061010  41.2195492  60.8655834
  38.7753749  39.7220731  60.0837183  38.2897782  39.6854568  59.1085482
  39.9864721  38.7896967  59.8773909  40.6584454  38.9476657  60.7209539
  39.5785213  37.7822661  59.9596024  40.6192207  38.9333630  58.5025215
  39.8035264  38.9071703  57.7799845  41.1384964  39.8837996  58.3795214
  41.6109705  37.8433466  58.1852007  41.1509228  36.8655753  58.3280993
  41.9277000  37.9781270  57.1509743  42.8325748  38.0140352  58.9993906
  42.8825378  37.7809215  59.9808502  44.0011883  38.5429859  58.6309338
  44.3743372  38.7217760  57.4143267  43.8810778  38.2770324  56.6534042
  45.3624678  38.8562179  57.2542524  44.9101591  38.7157083  59.5467615
  44.6360588  38.3886695  60.4621935  45.7795715  39.1045642  59.2105865
  37.8166461  39.1259694  61.0580397  36.6549444  38.8277578  60.7659006
  38.2847881  39.0493536  62.3206615  39.1518474  39.5466757  62.4654865
  37.5665998  38.6530185  63.5678530  37.4458528  37.5700259  63.5935545
  38.5025477  38.8566256  64.8189974  39.5171523  38.4757090  64.7024679
  38.5515523  39.9434161  64.8866701  37.9264545  38.3747482  66.1521339
  38.4379196  38.8667727  66.9794273  36.8868065  38.6907148  66.2381458
  38.0152082  36.8469477  66.4457464  38.0653143  35.9968996  65.6211090
  38.3464360  36.4491391  67.6407099  38.6715937  35.4999447  67.7564669
  38.4878635  37.0799398  68.4167194  36.1745858  39.2999196  63.6941433
  35.1267719  38.6554408  63.6911869  36.1954403  40.6542444  63.5904980
  37.0880198  41.1265802  63.6077213  35.0071907  41.4911890  63.3586931
  34.5006728  41.6186714  64.3154001  35.5239964  42.7978563  62.7312326
  36.2951779  43.1187344  63.4315300  36.1028647  42.6959944  61.8132830
  34.4962525  43.9432573  62.4097061  33.8149452  43.7686205  61.5769863
  33.7119460  44.3209887  63.6509418  32.9571676  45.0330305  63.3171511
  33.4330082  43.4403896  64.2295933  34.3709683  44.8023701  64.3734837
  35.4288316  45.1567841  62.1106100  34.8648763  46.0437965  61.8220568
  35.8857894  45.4079962  63.0677843  36.1581111  44.8743439  61.3513374
  33.9300084  40.9222364  62.4411011  32.7816963  40.6618977  62.8849697
  34.3442011  40.6026506  61.2217951  35.3036618  40.7273102  60.9319782
  33.4186912  39.9094844  60.2552223  32.4480200  40.4018641  60.3140783
  34.0334320  40.0745869  58.8396358  35.0690651  39.7434497  58.9165306
  33.4806752  39.4961667  58.0993748  34.1321754  41.5109205  58.2997704
  33.0133891  42.3411655  58.4506750  32.1657157  41.8687487  58.9246702
  33.1081843  43.6616755  58.1054688  32.1624184  44.1730690  58.2074690
  34.2316031  44.2104721  57.5360489  34.1285539  45.1362038  56.9894266
  35.3457117  43.3786488  57.2782612  36.1684990  43.8027477  56.7218828
  35.3037596  42.0306921  57.7079105  36.1581302  41.4085436  57.4856806
  33.1032133  38.4440327  60.5882311  32.0533586  37.9429626  60.2035713
  34.0486288  37.6989985  61.1003351  34.9977612  37.9968500  61.2750626
  33.9041877  36.2918472  61.3939762  33.6322808  35.7690263  60.4770136
  35.1929474  35.7191586  61.8980598  36.0043788  36.0816836  61.2669802
  35.2764630  36.0267377  62.9404211  35.1298666  34.1431999  61.8195391
  34.6546268  33.7623072  62.7235126  34.6158624  33.7419653  60.9460878
  36.4830995  33.5501933  61.8064785  36.5740943  32.5082445  61.4996099
  37.0052266  34.1267943  61.0429239  37.2158933  33.6895561  63.0614901
  36.8752074  34.3793511  63.7158775  38.3255291  33.1023359  63.4999847
  38.9179707  32.0670152  62.8631544  38.4665370  31.7811322  62.0060778
  39.8507190  31.7855835  63.1293869  38.9508843  33.4653687  64.5285606
  38.5240483  34.1526604  65.1331663  39.8013997  33.0454946  64.8755932
  32.9231262  36.0552788  62.4693727  32.2207713  35.0209737  62.3917770
  32.7523208  36.9570851  63.4054518  33.3886957  37.7183867  63.5940027
  31.7312980  36.8537188  64.4386101  31.7518353  35.9491515  65.0464249
  31.9914269  37.9610133  65.5009031  32.0695424  38.9199138  64.9885464
  30.8130932  38.0721426  66.4734697  31.0616899  38.7516880  67.2886467
  29.9824214  38.5786486  65.9819984  30.4887342  37.1111584  66.8727207
  33.2954121  37.6994133  66.3017559  33.1450772  36.8315482  66.9438696
  33.9887595  37.4584937  65.4959488  33.9847064  38.8455701  67.0469475
  34.2071128  39.6674132  66.3663530  33.2400799  39.2253852  67.7465010
  34.9055457  38.5279655  67.5361156  30.3223133  37.0336890  63.8388681
  29.4306517  36.2447429  64.0853167  30.1737714  37.9490423  62.8409576
  30.8402658  38.6651540  62.5898218  28.9414406  38.0608916  62.0477057
  28.0951595  38.0864930  62.7341843  29.0117526  39.4249034  61.3975954
  29.1605997  40.1288843  62.2163439  29.8854518  39.4382381  60.7460070
  27.7481914  39.8262119  60.5828762  27.5275087  38.9815617  59.9302149
  26.5020561  40.1087379  61.4543867  26.7881608  41.0084438  61.9991589
  25.7365322  40.3113604  60.7053709  26.2436962  39.1912007  61.9830418
  28.1210327  40.9660053  59.6308947  29.0734267  40.6855154  59.1810322
  27.3798561  41.1689377  58.8578606  28.1977177  41.7727947  60.3598022
  28.6563802  36.7978644  61.2333965  27.5306845  36.3833761  61.1720085
  29.6878886  36.1454272  60.7129669  30.6015968  36.5436482  60.8762598
  29.5661235  34.9847555  59.8859262  28.7771773  35.1643586  59.1555738
  30.9986329  34.7739863  59.1608667  31.1265874  35.6429386  58.5153818
  31.7710114  34.7279811  59.9286032  31.2588167  33.6355376  58.2702494
  31.0701442  33.8293552  56.9342089  30.7071733  34.7476077  56.4966440
  31.3750124  32.8445172  56.0384607  31.3467789  33.1041121  54.9905014
  31.7044640  31.5570593  56.5119505  31.9336200  30.7348895  55.8501959
  31.9179296  31.3347197  57.8678656  32.2342157  30.3540015  58.1912136
  31.7040348  32.3721480  58.7703848  31.8739319  32.2232604  59.8264980
  29.0164042  33.7987971  60.6504583  28.1274414  33.0565763  60.2265882
  29.3637466  33.6888671  61.9075871  30.2289128  34.1885233  62.0557070
  28.9711666  32.7365446  62.9327250  28.8655448  31.6945696  62.6306820
  30.0527430  32.6690149  63.9817715  30.2848673  33.6761308  64.3280840
  29.7132444  32.1790838  64.8943615  31.4349294  32.0205355  63.3852720
  31.3295054  30.9557533  63.1773806  31.7942882  32.5513148  62.5036621
  32.4863529  32.1171427  64.4144106  32.8942323  33.1261587  64.4745684
  32.1191359  31.9016719  65.4178190  33.6536217  31.2091923  64.0769053
  33.4490728  30.4391527  63.4561777  34.8159504  31.2579870  64.6777821
  35.1309824  32.0684004  65.6217861  34.5426416  32.8298616  65.9285975
  35.9962153  31.9393682  66.1265898  35.7450080  30.4759121  64.2956209
  35.5351734  29.8478985  63.5329485  36.6858625  30.4739094  64.6628952
  27.7576828  33.1437182  63.6436367  26.9860101  32.2518897  63.9735365
  27.4503350  34.4410729  63.8125086  28.2295465  35.0630498  63.6510324
  26.1903358  35.0161624  64.2359543  25.7562733  34.4715595  65.0744629
  26.2750864  36.4917660  64.7326756  26.6714287  37.0965433  63.9170361
  25.0145316  37.2426605  65.1707125  25.3172421  38.2412148  65.4859018
  24.3763208  37.3621011  64.2952013  24.4634843  36.7127895  65.9476805
  27.2503424  36.4674258  65.7862186  28.0436659  36.3823843  65.2523613
  25.1497078  34.7780299  63.1863499  23.9241338  34.7642565  63.4452772
  25.5180240  34.4574451  61.9638729  26.5121937  34.5024633  61.7915392
  24.6192002  34.0472770  60.8935976  23.5760069  34.2477918  61.1378288
  24.9703169  34.7988629  59.5894241  26.0324240  34.9193478  59.3760920
  24.5275593  34.4087076  58.6729908  24.3342519  36.2114215  59.6113253
  24.8179960  36.7239594  60.4428291  24.7552252  36.9465446  58.3158493
  24.4080639  37.9796863  58.3018875  25.8411241  36.8826818  58.3855295
  24.2776060  36.5008998  57.4432755  22.8046727  36.3234711  59.7909737
  22.3733139  35.9077501  60.7015848  22.5219345  37.3755026  59.8283148
  22.3232055  35.8013749  58.9641094  24.6549487  32.5612116  60.7110786
  23.8033652  32.0354891  59.9991083  25.6207490  31.9042063  61.3363981
  26.0586548  32.4070573  62.0950031  25.8140516  30.4278326  61.3810539
  26.7526555  30.2479458  61.9052315  24.6116066  29.5728445  62.0374727
  23.7599254  29.4131017  61.3762474  25.0343013  28.5765147  62.1669102
  24.1532516  30.2167869  63.3441496  24.7739673  30.0456095  64.3569183
  23.0887604  30.9809303  63.3577585  22.8596783  31.4635301  64.2149115
  22.5331378  31.1708975  62.5359917  26.1703825  29.8728943  59.9811983
  25.8074617  28.7463355  59.5935965  26.9264269  30.6121159  59.1918612
  27.0684528  31.5534639  59.5291996  27.6142764  30.2217674  58.0189276
  26.9039917  29.6833444  57.3914719  28.1991363  31.4721012  57.2589731
  28.9404464  31.9803047  57.8756523  28.7632823  31.0333085  56.4359903
  27.2072840  32.5495386  56.9257021  27.4753571  33.8606358  56.5486622
  26.2973142  34.4144392  56.2994051  26.1634874  35.4085755  55.8991766
  25.3534746  33.5062575  56.4470243  24.3918204  33.5979342  56.1522055
  25.8909869  32.3722553  56.8434286  25.3930402  31.4292383  57.0142221
  28.6867619  29.1301298  58.2991934  28.9180541  28.7439895  59.4168758
  29.4265985  28.7302375  57.2181702  29.1086102  29.1045451  56.3356304
  30.5723596  27.8194737  57.1106148  31.1507201  28.0686641  58.0002785
  30.0419879  26.3680863  57.2343636  29.4050312  26.2266636  58.1075096
  29.5378351  26.1299753  56.2977552  31.1736512  25.2951097  57.2441053
  31.6159320  25.3128076  56.2480259  31.8343163  25.4901505  58.0888462
  30.7181764  23.8207865  57.4906206  29.5842791  23.4474468  57.8102255
  31.6423726  22.8939915  57.5513124  31.4064670  22.0307159  58.0195093
  32.6174402  23.0247593  57.3227501  31.4727259  28.1586194  55.9279442
  31.0264993  28.4110308  54.8542833  32.7774024  28.0165339  56.2351704
  33.0605674  27.9521585  57.2025251  33.7822485  28.1619287  55.1649952
  33.4308839  28.8754058  54.4196129  35.0573969  28.6989141  55.7825756
  35.3998160  27.9885268  56.5350437  35.8073974  28.8444066  55.0051260
  34.9155354  30.0636125  56.4815998  34.9331880  31.2329626  55.6811047
  34.9694753  31.2079597  54.6020079  35.0398993  32.4004531  56.3894939
  34.9343848  33.2936502  55.7916069  35.1136923  32.5403118  57.7878571
  35.1615763  33.7258029  58.4221029  34.8470902  34.4771194  57.9139423
  35.1983929  31.3074541  58.5615444  35.5044699  31.4650679  59.5851994
  35.0490379  30.1108098  57.8678894  35.1063848  29.1810083  58.4143162
  34.0347815  26.9175005  54.3831396  34.9692297  26.0821819  54.5009184
  33.1360483  26.7107177  53.4621525  32.4465132  27.4407339  53.3538914
  33.1396556  25.6410646  52.4771452  33.9100647  24.9119854  52.7281809
  31.7374492  24.8107004  52.4151278  31.7361236  24.0020752  51.6842222
  31.6504693  24.5515990  53.4703064  30.5210090  25.6969428  52.0153093
  30.7103610  26.8725324  51.5916157  29.3686390  25.1728201  52.0951986
  33.4439969  26.1544657  51.0249043  33.4948993  25.3838921  50.1180649
  33.6565709  27.4629164  50.8671379  33.6212111  28.0214453  51.7079067
  34.0464592  28.0584359  49.5407867  34.0235710  29.1157079  49.8049021
  35.5095816  27.7546120  49.0281820  35.6163645  26.6742110  48.9310741
  35.6953502  28.2022834  48.0518675  36.5971875  28.1099820  50.0704861
  37.3229551  27.0589018  50.6333065  37.4368024  26.1578369  50.0489092
  38.0879736  27.3227739  51.7816544  38.5899925  26.4719391  52.2180748
  38.0213833  28.5296059  52.4576569  38.7778831  28.6059237  53.6137581
  39.1149211  29.4727516  53.8516951  37.3228955  29.5879483  51.8252468
  37.2310686  30.5469227  52.3134422  36.5959215  29.4065475  50.6372213
  36.0007739  30.2048230  50.2189445  32.9864120  28.0260634  48.4348106
  33.2361102  28.0374980  47.2490931  31.7168689  28.0182958  48.9276123
  31.5638566  27.9420710  49.9230385  30.5126905  27.9234338  47.9992342
  30.8393478  27.5341368  47.0349503  29.4402695  26.9829226  48.6267090
  28.9791799  27.4526930  49.4955111  28.3241034  26.5967727  47.6328516
  28.1071281  27.4500537  46.9902563  28.6026025  25.7930398  46.9512701
  27.4311471  26.3106728  48.1886196  30.0269604  25.7932186  49.0850019
  30.4474783  25.9674430  49.9302292  29.8975515  29.3140483  47.6885605
  28.9163184  29.6890211  48.3831787  30.5042219  30.0513959  46.7432022
  31.1817765  29.5191407  46.2162018  30.2105951  31.4304852  46.3182068
  30.1324868  32.1595097  47.1247625  31.3579869  31.9833136  45.5138302
  31.2573123  31.4600968  44.5629311  31.2655258  33.0673623  45.4475355
  32.7495503  31.8149853  46.1942148  33.2956982  32.7676582  47.0658731
  32.7619290  33.6857271  47.2624445  34.5732450  32.5294662  47.5995255
  34.9153495  33.1752276  48.3947325  35.3381777  31.4214468  47.2567320
  36.2962461  31.2532115  47.7259922  34.8236489  30.5197430  46.3293839
  35.5037141  29.7319198  46.0408545  33.5802412  30.7429814  45.7939959
  33.2792473  30.0370336  45.0340939  28.9305234  31.6051507  45.4420328
  28.4278965  30.6583142  44.9527454  28.5489726  32.8304291  45.1869869
  29.0076065  33.6348701  45.5902672  27.3559833  33.1156731  44.3806982
  26.4744616  32.6462078  44.8172951  26.9779110  34.6123433  44.2651463
  27.9277945  35.1404619  44.1820049  26.3227344  34.6582937  43.3952427
  26.1211371  35.1649809  45.4980183  26.5412879  34.9578285  46.6423273
  25.1105309  35.8188605  45.2523947  27.4534535  32.5373912  42.9824400
  26.5289640  31.8357444  42.5597811  28.5579562  32.7523613  42.2876787
  29.2808938  33.3672690  42.6331520  28.8867354  32.0331550  40.9886456
  28.0675316  32.1080327  40.2735186  30.1679873  32.6838279  40.4577684
  30.4468656  32.3441339  39.4603062  29.9330473  33.7453318  40.3795576
  31.3354373  32.5527477  41.3261747  32.2450900  31.6064143  41.2091732
  32.1280885  30.7046318  40.6265020  33.2644629  31.9261503  42.1686411
  34.1171527  31.3870811  42.2178745  33.1164384  33.1148195  42.6830339
  33.8476014  33.7799597  43.6756134  34.8090243  33.4333181  44.0247726
  33.3146071  34.9515820  44.2812920  33.9759064  35.4571486  44.9693966
  32.0614910  35.5085421  43.7639713  31.6051960  36.3249898  44.3039799
  31.3324761  34.7848630  42.7949381  30.3654623  35.0630665  42.4026585
  31.8096232  33.5792351  42.2372150  29.0161729  30.5204201  41.1502075
  28.5866046  29.7809792  40.2374601  29.5841885  29.9919844  42.2206402
  30.0264120  30.5346274  42.9487038  29.4298291  28.5478997  42.5277662
  29.8227382  28.0906987  41.6196394  30.1529646  28.0565834  43.7874460
  29.6303201  28.3119702  44.7092485  30.5242395  26.6234636  43.7412977
  31.3467503  26.3060212  44.3822479  29.5865011  26.1400747  44.0153074
  30.7889390  26.3009548  42.7343130  31.4095998  28.6972427  43.8628244
  32.0557666  28.2233167  43.3341837  27.9526424  28.1217647  42.6327324
  27.5977731  27.0283270  42.2171974  26.9980097  28.9673519  43.1361341
  27.2921276  29.8887992  43.4268856  25.5536866  28.6105800  43.1497669
  25.5528331  27.5695133  43.4726906  24.9173164  29.4009972  44.2607355
  25.3604150  28.8989067  45.1207781  25.2154803  30.4493594  44.2722607
  23.4400392  29.3579054  44.4020271  22.9569888  30.1062679  43.7737608
  23.0177331  28.4181738  44.0461349  22.7226830  29.6103501  46.1194944
  23.5849833  31.2136364  46.4750910  23.8194799  31.1886764  47.5392771
  24.4593668  31.3652873  45.8421898  22.8303790  31.9566798  46.2170935
  24.8591733  28.7032318  41.7775440  24.1096687  27.7882338  41.3956976
  25.1323414  29.7367144  40.9799051  25.8590364  30.4144645  41.1606646
  24.3736339  29.8719859  39.7569346  23.3621049  29.5165181  39.9532866
  24.3568516  31.3187218  39.4676590  23.9917302  31.8983245  40.3155088
  25.3921533  31.6588378  39.4915795  23.8467932  31.9472718  38.1262565
  24.5841575  31.6347337  37.3868561  22.4248791  31.5937948  37.6106215
  22.1644211  30.5602074  37.8385711  21.6914892  32.2639346  38.0591226
  22.2451615  31.7410588  36.5456748  23.9111662  33.4732485  38.0612898
  23.6151195  33.7930822  37.0622087  23.1284738  33.8757682  38.7043095
  24.9064851  33.8604093  38.2793474  24.9615645  29.0909958  38.6646676
  24.3089652  28.8562417  37.6538563  26.2528801  28.6054325  38.7556195
  26.7828822  28.8992786  39.5636129  26.7458320  27.6293969  37.8159213
  26.3525605  27.8419590  36.8218112  28.2436681  27.7277732  37.6410699
  28.7460041  27.6624107  38.6062050  28.6555457  26.8988848  37.0653915
  28.7603927  28.9824891  36.8957901  28.4972692  29.8855877  37.4464965
  29.8452663  28.8769364  36.8932128  28.3822823  29.1366029  35.4284096
  28.5760951  28.2165337  34.8770380  27.3225045  29.3818855  35.3590703
  29.1598725  30.3309584  34.8595309  28.8801169  31.2372088  35.3966999
  30.1564360  30.1148295  35.2445650  28.8100910  30.6106615  33.4694815
  29.3628359  31.3653731  33.0887198  28.8380551  29.7653246  32.9174614
  27.8381181  30.8807540  33.4202099  26.2425566  26.2590694  38.1915498
  26.5179253  25.7536697  39.3019295  25.6915736  25.5334759  37.2499847
  25.5877876  26.0029912  36.3617897  25.6308150  24.1034985  37.2028732
  25.8436084  23.7540221  38.2131672  24.2420411  23.4951305  36.8297124
  23.9710617  23.7724447  35.8110023  24.4672060  22.4345350  36.7177343
  23.1661534  23.7137938  37.8654027  23.5596156  23.8254261  38.8757610
  22.6528478  24.6576595  37.6817322  22.1793556  22.5797296  37.9948568
  22.1644998  21.5947914  37.2758579  21.2143326  22.8030968  38.9035845
  20.4936099  22.1098161  39.0450931  21.3022709  23.7151551  39.3284583
  26.7218256  23.5726213  36.2541795  26.9101381  24.1045427  35.1679349
  27.3793960  22.6040745  36.6836691  70.5484962  46.0294724  35.6476259
  26.7241049  59.6883774  34.4919825  64.3459606  46.0329866  47.4997234
  28.6783550  16.9468982  40.7452440  24.2325068  55.5962276  25.4685545
  78.6769629   8.8478833  13.7878048  54.0975237  59.6246576  43.9664173
  68.1955330  70.2368472   0.2927435  15.9918475  58.2714367  49.9132633
  64.3819761  39.3835521  33.7500668  39.9948573  16.5060556  48.1512117
  76.9014035  59.6068497  61.0711699  49.3070785   1.5686567  34.6240973
  70.7762758  59.8262499   1.0917938  13.9568613  74.9439309  42.2988976
  14.7019480  75.5079577  42.5061405  14.2737244  74.3773220  41.5954960
   4.6889685  55.5956707  36.2557686   4.1947506  55.4334901  35.4522217
   5.5945156  55.3870127  36.0262383  19.8264978  57.3186753  28.7462795
  19.7008131  57.8459988  27.9573811  18.9567373  57.2701333  29.1430080
  80.5818311  70.6912158  16.4521587  81.2390129  71.0453699  15.8530605
  80.0369255  70.1269887  15.9035576  13.9113607   8.3820252  30.2750958
  13.8282718   9.1942077  30.7747925  14.7862281   8.0577521  30.4888237
  43.6501074  31.0756278  51.6131687  42.9552603  30.4219270  51.6912365
  44.3976545  30.6858778  52.0664930  25.7604541  19.9913030  30.5346478
  26.4020433  19.2820077  30.5732620  25.8037939  20.3045421  29.6311844
  32.6609315   3.5756021  13.7083042  31.7830791   3.8960175  13.9155186
  32.6780881   2.6833110  14.0543545   9.1692827  60.2901528   5.2098024
  10.1117561  60.1790879   5.0847233   8.7729595  59.8100493   4.4827116
  23.1176462  19.0145259  37.6994026  24.0148534  18.8172727  37.9683769
  23.1090393  19.9630837  37.5713718  62.8772346  68.0528615  44.0573967
  63.8299910  68.1448839  44.0529717  62.7188889  67.1832607  43.6900318
  13.7642374   2.7369885  54.4011391  13.4823217   2.9017453  55.3009213
  14.6428718   3.1136661  54.3526543  43.7340315  63.0745511  65.2646160
  43.7422379  63.1197040  64.3085194  44.5908459  62.7152150  65.4947853
  38.7511100   5.3527026  37.3491085  38.2234945   6.0561566  36.9709480
  39.6244993   5.7327704  37.4437988   5.3135067  67.1714735  60.3777838
   5.6076103  68.0738688  60.5019426   5.6995922  66.6908360  61.1100101
  11.4665506  71.4398906  24.7853458  10.8431242  72.0964144  24.4746197
  11.2621687  70.6555889  24.2761028  34.9120893  30.7366471  14.8479450
  35.0131216  29.9810176  15.4267777  35.0407638  31.4943414  15.4185284
  15.2418135  46.1566172  39.7310722  14.3375824  45.8834223  39.8858536
  15.4645346  46.6906432  40.4935921  21.5017460  60.5439804   9.9682749
  21.4472053  61.3005660   9.3844641  22.0473288  60.8419416  10.6961430
  53.9742088  36.3345122  62.7278852  54.6037292  35.8459187  62.1975946
  54.4853020  37.0483708  63.1092215  76.0416015  27.3017411  39.6313370
  75.4730638  27.8649812  40.1564682  75.4391011  26.7879395  39.0935410
  45.5644693  20.1038413  33.0044163  46.3244667  20.4758506  32.5569237
  44.9929037  20.8537202  33.1694115   4.7159209  12.7487140   5.1396692
   4.1340508  12.1856408   4.6291769   4.2186679  12.9512982   5.9320915
  74.9573223  45.2610032  18.4795559  74.9669830  46.1846302  18.2284630
  74.3260805  45.2146027  19.1976250  22.2699918   1.0568027   8.8202608
  22.3162736   0.2000957   8.3958281  23.1677951   1.2337832   9.1010845
  14.0853872  27.1430163  18.1770218  14.3309631  27.7278523  18.8938797
  14.9140110  26.7667537  17.8803051  63.5602442  54.9158213  40.1518524
  63.0278722  54.4159458  40.7706726  63.5270945  55.8147655  40.4790104
  33.0522813  27.7066998  12.8829182  32.9452123  26.7852883  12.6467693
  32.6127519  27.7897029  13.7291801  65.5883876  74.0508363   5.0282228
  65.0400798  74.2785833   4.2774094  65.9941379  73.2187484   4.7848595
   2.6013039  53.7386070   4.5999563   2.9526995  53.0451796   5.1584471
   3.0121563  53.5913036   3.7480581  52.8250647  34.5292997  57.1481895
  52.5262833  35.4357100  57.2215796  52.0824051  34.0625954  56.7649508
  79.7058002  74.9432562  28.1563271  80.0892488  75.8117221  28.0340088
  80.2043049  74.3762896  27.5678719  76.0217094  43.1157398  59.3056488
  76.3544559  43.2188177  60.1972151  76.8040752  42.9725981  58.7730646
  51.8152428  39.4454288  59.6272993  51.9291735  39.0253878  60.4798365
  50.8830595  39.6593046  59.5883322  51.4187088   9.4600682   9.2334116
  52.1692934   9.6350436   8.6657560  51.7806186   8.9514308   9.9590385
  70.1145546  70.0625417  26.9302643  69.5689241  70.6597135  26.4185036
  70.5321352  70.6216500  27.5854481   0.0330653  23.9985137   1.3453472
   0.4829611  24.5769219   1.9611967   0.3341617  23.1202035   1.5780342
  54.8267166  66.4275668  43.4151066  54.6905152  67.3469565  43.6440266
  54.2679993  65.9439395  44.0235222  46.1125459   5.4754500  41.0480202
  45.6828441   4.6957211  41.3996017  45.9729566   5.4201465  40.1026714
  52.1078102  67.3592828  41.6905106  51.1874978  67.6123164  41.6182030
  52.2758476  67.3336122  42.6325024  54.7785441  60.8633254   7.0645273
  55.4100172  60.1549695   7.1898687  54.6716873  60.9237430   6.1152304
  41.4305266  35.2146952  65.8449650  41.9421776  35.8876317  66.2939596
  40.6447037  35.1131766  66.3819981  37.8190875  18.2634163  58.2882452
  37.3478699  17.6297867  58.8292599  38.3253431  18.7823844  58.9132309
   7.9839104  16.5887511  51.8742609   8.3614039  15.7567430  52.1597290
   7.8801477  17.0939076  52.6806593  74.2388002  57.5482831   3.2415617
  73.8708297  58.2429610   3.7876881  73.7163965  57.5718186   2.4398363
  79.4515220  53.3186624   0.0538433  79.6582023  53.3424912   0.9881580
  78.5165254  53.1164453   0.0204504   0.3454779  39.0767601  25.0455463
  -0.5791523  39.2451569  24.8640621   0.5472992  38.2854294  24.5462502
  48.3207502   3.7043195   7.6047457  49.0705766   3.3428149   7.1321953
  48.5298957   3.5649686   8.5283649  14.9826525  44.1133139   1.9824589
  14.5061539  43.6895941   1.2685669  14.3410490  44.1852681   2.6891411
  60.4129354  55.9873221  23.3751095  60.2732221  56.5902755  24.1052902
  60.0164549  56.4264534  22.6226509   5.7507513  72.0062683  29.8727119
   5.1047275  72.7121852  29.8965252   6.4824245  72.3334429  30.3960121
  52.8856325   5.6292653  51.5198708  53.1317234   6.4774561  51.8889809
  51.9627476   5.5257851  51.7518520  63.2042448  24.2570994  22.2980679
  63.9987938  24.1193877  21.7823589  62.5695364  23.6431561  21.9286812
  10.9562681  61.0050199  11.7448605  10.2652023  61.1348722  11.0953987
  10.9367559  61.8000410  12.2775782  54.6884727  21.7178845  62.7685022
  54.2744207  21.0485196  63.3132458  54.2712259  21.6217804  61.9124079
  16.2118481  76.5907762   8.4650839  16.9664524  76.6235636   9.0530670
  15.7639788  75.7767580   8.6953438  16.9836042  50.4474387   7.1425617
  16.7064808  50.8652041   6.3271416  16.9791840  51.1546777   7.7875603
  71.6240986  75.0397224  40.6411695  70.9105500  74.5214351  41.0132790
  71.2064274  75.5695972  39.9621844  21.5726717  68.3524554  34.4489956
  21.7310961  67.5088351  34.0253949  22.4209793  68.5981905  34.8180842
  55.6918573   6.5535820  65.8917522  55.4538345   7.1756178  65.2042580
  54.8906279   6.4445579  66.4039803  64.3273981   4.8683457  23.9374340
  64.3060597   5.7442622  24.3228519  65.1637705   4.5011048  24.2235172
  54.3395678  67.4354956  40.0355137  53.7979190  67.3202846  40.8162678
  55.0387661  68.0268405  40.3142059  47.0461289  21.7451093   5.0539673
  46.1738936  21.8662498   5.4291523  47.0515887  22.3023162   4.2756880
  72.7886963  25.3695750  49.4263744  71.8429327  25.4170918  49.5660353
  72.8887177  25.3312516  48.4751892  13.8552521  56.1014531  41.2035645
  13.0975054  55.8964691  41.7513168  14.1921995  56.9238971  41.5589226
  10.4712818  69.8782227  18.5796154   9.7792862  69.6133349  19.1855991
  11.1862085  70.1700471  19.1452492  12.1876572  66.7671917  58.4171379
  12.0378254  66.2086842  57.6543415  13.0064056  67.2234032  58.2228363
   9.5215128  73.9245603   1.3439787   9.9354504  73.0633066   1.3999117
   9.9783657  74.3637417   0.6265963  63.4825770  61.4484427  11.7271507
  64.1776578  60.8184860  11.9175375  63.1935898  61.7534373  12.5872076
  22.3279188  57.9162762  20.5103577  23.1488655  57.5802372  20.1506889
  21.8387173  58.2212601  19.7462166  67.5595331  37.6738811  47.6011181
  67.8205585  38.0459809  46.7587137  67.4212122  36.7442489  47.4197769
   1.9048498  43.8284747   2.6621664   1.8696115  44.6545784   2.1799410
   1.0947464  43.8139073   3.1718290  14.9106644  71.1597417  18.0803955
  15.6031654  70.9198401  18.6961258  14.4583652  70.3365419  17.8960026
   2.3540924  70.5424211   1.4731348   1.7454431  71.2290642   1.2005508
   2.7195642  70.2074430   0.6543291  26.9105766  52.2099719  12.2542990
  26.1947201  51.6692469  11.9205225  27.3545597  52.5307367  11.4693058
  45.8766890   2.8719747  66.2301540  45.3027916   2.1370640  66.0138655
  46.7548609   2.5641781  66.0058451  71.6622353  29.0449691  34.8840332
  71.9413424  29.5909834  34.1490531  71.4089823  29.6695185  35.5637646
  25.7715883  18.2281165  38.0786026  26.2699976  17.5871091  37.5717247
  26.3371934  18.9996390  38.1113804  73.2539598  57.4629078  33.0962742
  72.4215595  57.0676956  32.8371513  73.0704776  58.4013818  33.1390942
  66.0222091   7.9184442   3.5474241  66.5895691   7.1475129   3.5486401
  65.8866443   8.1145959   2.6204002  63.1289911  45.9030819  44.6869040
  62.2680426  46.3213444  44.6794701  63.3963823  45.9216881  45.6058073
  24.3667505  61.7142508  34.9455727  24.8295925  60.8935521  34.7768677
  23.9685915  61.5918896  35.8073891   1.8621395  47.0696399  11.1589325
   1.4185999  46.9520877  11.9989861   1.5201662  46.3662932  10.6070364
  77.2446346  39.7270536  44.4408131  76.3370943  39.6177745  44.1568089
  77.2200632  39.5741367  45.3854036  60.1141920  18.1405883   8.9354742
  60.1024928  19.0423207   8.6145866  61.0375770  17.9614978   9.1130102
  60.1093880  60.7460830   6.3445938  59.6989814  61.1209152   7.1238888
  61.0416166  60.9360192   6.4499939  22.0174358  72.9017351   5.9743774
  21.6505859  73.0683468   5.1061094  22.9584978  73.0402730   5.8673990
  42.9698322  46.0038630   4.6483648  42.5211189  46.7981330   4.3585003
  43.6996887  45.9044562   4.0370834  64.2217016  19.1277492  51.1196232
  63.3057880  18.8498724  51.1304522  64.2230940  19.9277139  50.5939960
  63.4916917  57.2941158  14.4187630  64.1573087  56.6268943  14.2514217
  62.7094404  56.7972443  14.6584213  52.4105634  16.2142043  10.6669605
  51.5883960  15.7863288  10.9061277  52.2182264  17.1502738  10.7218540
  58.3683125  71.6575620  10.3736246  57.8283111  71.3457916  11.0998667
  58.6163394  72.5474141  10.6243742  46.0162274  67.5272486   8.6411036
  46.4264123  67.9231975   7.8722036  45.4992417  68.2341216   9.0274799
  22.6896427  52.8063152   8.5924233  21.9740246  53.2581399   8.1452311
  22.9878519  53.4281824   9.2561853  69.8652887  12.7914298  45.8932877
  70.0613832  13.0585098  46.7913103  68.9091873  12.7684736  45.8535957
  62.1412611  27.8073359  51.5665197  62.1280766  27.0112848  52.0978975
  62.6264668  27.5615311  50.7788754  15.9813497  76.3510440  59.5246780
  16.8973205  76.0747836  59.5548332  15.5136726  75.6853602  60.0290382
   2.6849784  24.0437989  10.2562893   2.1800103  24.5647578   9.6319140
   2.5597491  23.1390767   9.9698818   2.3240803  46.7320911   2.8203667
   2.4402616  46.8967340   3.7561119   1.4986227  47.1645913   2.6017511
  28.4526577  33.9734941   0.3308905  27.9750146  34.6789842   0.7672060
  28.0250873  33.1721740   0.6330479  61.5894032  37.6052570  66.1249065
  61.8522167  38.3417439  66.6769505  62.4141932  37.1973181  65.8611965
  77.8804914  73.6895035  18.2054222  76.9371645  73.5879848  18.0786884
  77.9721634  73.9527796  19.1211308  48.5914516  18.8115418  64.7279930
  47.8635168  19.3241429  65.0795412  49.2584515  19.4620407  64.5084667
   3.2581478  26.0543180  61.6279554   2.7813774  26.3834929  60.8660030
   3.2249886  26.7725253  62.2598648  35.2353515   5.0381665  37.2333801
  35.5632677   5.7804494  36.7257202  34.5681657   4.6411376  36.6735065
  52.8069915  19.7977214  21.6225136  53.2081070  20.1793485  22.4033440
  51.9056692  20.1197581  21.6345299   4.7247837  54.0533839  23.1548012
   4.0089128  54.6870563  23.2019604   5.0153206  53.9523659  24.0612305
  64.6814291  63.3723996  39.9832428  64.4467346  64.2841361  39.8103512
  65.5754296  63.2882068  39.6517170  36.4859486  41.9966984  66.4258432
  36.7231321  42.2338867  65.5293417  35.5333853  42.0866823  66.4533615
  75.8373014  40.2600790   7.9748810  76.2549726  39.9835207   7.1592224
  76.4037506  39.9126244   8.6638201  73.3254663  32.9539106  12.5094593
  73.1587450  32.7852915  11.5820969  72.7099649  33.6495010  12.7408541
  56.6894188  35.2680879   7.4421919  56.2410583  35.4216104   6.6105450
  56.8707218  34.3282227   7.4466217  46.9918871  16.5764356  55.3699446
  46.8492937  15.7175112  55.7676268  46.1411285  16.8137681  55.0010061
  67.9181862  26.8251514  60.7694101  68.7030697  26.7412424  60.2279758
  68.2141638  27.2949457  61.5491009  33.2102585   2.2764528  53.4018135
  33.2742476   2.6714408  54.2713690  34.0655684   2.4359496  53.0027723
  39.9084558  14.7454410  36.0107887  39.0998497  14.3125110  35.7370079
  39.6875467  15.1602559  36.8446720  16.7056233  25.8843994  62.7003527
  16.1148220  26.3057446  63.3245754  17.4808842  25.6630087  63.2162809
  77.5324718  55.1713178  36.4276779  77.7020017  56.0007272  35.9809387
  77.9083196  55.2880500  37.3002232  34.4671955   2.1307425   0.2257050
  34.8078289   2.7212005   0.8976877  33.5955038   2.4722581   0.0263203
  79.6403170  24.8175359  53.5093927  79.2621946  24.4031525  54.2849874
  78.9534521  24.7552180  52.8456402  80.2030094  23.5139804  11.7354763
  80.1156719  24.4649510  11.6701878  79.5907791  23.1719403  11.0840071
  27.2120998  27.7228008   8.5586298  26.8406055  27.9227839   9.4178331
  28.1476353  27.6053939   8.7236202  27.8268955  58.9450572  15.7558620
  28.1884334  59.7277353  16.1717117  26.8863342  58.9961837  15.9260357
  36.4021101  15.1234679   2.1746529  36.4428463  14.2200570   2.4883736
  37.1915807  15.2284436   1.6436613  74.3766212  25.0822520  65.4155588
  75.1060581  25.6407571  65.1468134  73.5943556  25.5649972  65.1486301
  37.3156967  36.3353496  24.4047153  36.7093696  37.0017962  24.0815342
  37.4114027  35.7241969  23.6742676  26.6236438  31.7381053   2.0227802
  25.7448663  31.9623857   2.3288572  26.4927902  30.9794192   1.4540041
   8.8935715  43.1221199  41.7493820   9.8107392  42.9455376  41.9587994
   8.7187248  42.5909424  40.9725237   8.0047796  33.0445109   6.5784920
   7.4703644  32.2766934   6.3757885   8.8125656  32.9118309   6.0824001
  20.7498922  28.7388759  35.3182972  19.7995987  28.7556701  35.4318512
  20.8821859  28.8955836  34.3833244   5.4377641  12.8398185   0.6411207
   5.4051985  13.3055787   1.4767254   6.2218346  12.2940879   0.7014931
  67.2745657   6.9965780  58.9264488  67.7400970   7.7509713  58.5653400
  66.8376541   6.6012102  58.1721115  45.0153494  62.5539684  56.9016075
  44.5926762  62.1366024  56.1510181  44.3019104  62.9931450  57.3645973
  28.4465971   5.5158000  40.0466717  28.7131633   6.3120656  39.5871723
  28.9887752   4.8257737  39.6643818  57.8216304   9.2922502   8.6490667
  57.7534046   9.2242818   9.6014107  57.2276058   8.6187797   8.3177078
  50.6765135  64.9242859  61.3622284  50.1485260  65.5602746  61.8449116
  50.0422152  64.4345241  60.8387470   8.2099102  31.9873539  55.3831566
   9.0539930  32.4371306  55.4213608   7.6188181  32.5438372  55.8902729
   5.5857982   6.3415055  19.4579304   6.3219847   6.4180045  18.8509644
   5.9344759   5.8407788  20.1954544  33.7680030  20.7020974  23.3003998
  34.5390344  20.6099272  23.8600850  33.0262184  20.6353235  23.9016724
  76.6366283  33.3161948  37.8638256  75.8558742  33.8141451  38.1061066
  76.2958471  32.5139246  37.4682701  66.7934465  13.7217140  65.2705336
  67.1656466  13.0600286  64.6875477  66.0440636  14.0713942  64.7884703
  12.9553690  16.3555102  12.0146692  13.7260570  16.2023883  11.4680183
  13.2755079  16.2612586  12.9118097   9.8350253  16.6749578  19.0657604
   9.8540320  16.4935403  20.0054157   9.0539565  17.2141891  18.9416874
  73.8625280  48.7328050  13.1156815  74.6863977  48.4301017  13.4975660
  74.1279976  49.3238638  12.4111212  27.2534806  27.3095512  54.6387005
  27.0955712  26.4043069  54.3706942  26.8365151  27.3813438  55.4973125
  72.1900503  61.9118116  26.4341629  72.8571216  62.0574830  25.7633293
  71.5311567  62.5857327  26.2670696  34.7289505   6.1549096   0.2883041
  35.6597271   6.0098081   0.1184834  34.6780099   6.3029723   1.2326086
  63.2686512  60.9107492   9.1025055  64.1656558  60.9696529   8.7736500
  63.3517448  61.0330389  10.0482166  64.7399751  74.0180037  21.1212433
  64.8468916  73.8833449  20.1796043  63.9545838  73.5195015  21.3468254
  66.3027525  40.5708694  50.7656431  66.1929464  40.9988165  49.9165058
  66.7253494  39.7368288  50.5606508  45.8405495  66.7343855  61.6341448
  45.9767866  65.9551382  62.1730757  44.9039221  66.9168758  61.7093801
   9.2016075  40.4678129  27.7605522  10.0205515  40.4102551  28.2527340
   8.8253687  41.3091216  28.0191505  70.9560641   4.0372567  30.3937328
  70.3747674   4.2609601  29.6669090  70.6367250   3.1898122  30.7037342
  18.0015371  67.7968929   3.7077034  18.1388996  67.0040200   4.2260826
  18.8833664  68.1296942   3.5407961  20.9237764  29.4980011  39.9404991
  20.9321545  28.8657449  39.2218769  20.5818174  29.0069328  40.6875885
  59.6215622  49.5562873   0.8389414  58.9489047  49.5150707   1.5186918
  59.3040220  48.9702914   0.1519096  10.5581186  76.6531751  32.7954853
   9.7121475  76.6439269  32.3477257  11.0879944  76.0136578  32.3195923
  15.3441236  43.1372152  28.7297142  15.6439588  43.9052770  29.2159355
  14.7236679  43.4860704  28.0897415   5.0829027  66.6411278  12.4739683
   5.7539699  66.7694543  13.1443680   4.7591112  67.5223730  12.2874201
  27.3569630  65.9535668  28.7139500  27.2932384  65.6142638  27.8211773
  28.2915447  65.9176705  28.9176739  63.8316218  76.2948821  25.8004368
  63.2457940  76.3231132  25.0439728  64.6870724  76.0729859  25.4327381
  63.1747246   1.2192794  40.6112766  62.7839565   1.9272833  40.0991631
  63.9599466   1.6077943  40.9969187  77.4968330  62.3860762   5.0679815
  76.7117969  61.9453619   4.7428310  77.7398626  62.9906748   4.3668211
   1.3549231  62.5721405  33.6321629   2.2791145  62.3608229  33.5000885
   1.0820482  62.9779361  32.8093040  50.7320849  36.1791738  12.6631010
  51.4556805  35.5580092  12.7455414  49.9596731  35.6304265  12.5271309
  45.0170374  12.4609625  54.8578215  45.9158516  12.1391129  54.7886992
  44.4774914  11.7325401  54.5503807  42.8998470  59.0011501  65.3009462
  42.9276752  58.5669756  64.4483328  42.1969271  59.6456385  65.2187061
  81.3323442  56.7165504  26.1893738  80.8545534  55.9404919  25.8966625
  81.1037532  56.8036590  27.1147907  14.0427103  15.2237515  24.3964851
  14.3284883  15.7277350  23.6345375  14.2854681  15.7659297  25.1470459
  11.3523529  52.0532511   9.9866283  10.7268045  51.8402753  10.6791294
  11.0841797  51.5093384   9.2460382  69.9905586  35.3290200  41.1431456
  69.2666101  35.4699373  40.5329990  70.7516527  35.1814032  40.5817413
  41.4886284  13.8294673  48.1703186  41.0817099  14.6919096  48.0875874
  41.3498163  13.5859430  49.0855551   0.3952748  44.7279406  39.7675037
   0.3894860  43.8314152  39.4321799   0.9859234  44.6983337  40.5201578
  68.7462568  12.7762139  32.6888657  69.6026134  12.4417698  32.9553795
  68.2319593  12.7880871  33.4960747   3.1681250  40.7730567  50.1234329
   2.8956411  39.9626450  49.6930683   3.3850000  40.5083109  51.0173595
  36.5740480  16.4863257   7.3416365  36.8908538  17.1702819   6.7516602
  35.6202879  16.5524678   7.2947491  55.6698465  33.8310623  53.8396120
  56.2013865  33.3666110  54.4861269  54.8733330  33.3058381  53.7625504
  57.9030848   4.5689866  58.0146742  58.2989836   5.0388706  57.2807074
  58.4269190   3.7723553  58.0995846  24.1529653  74.5433948  10.1345909
  24.0170048  74.7396515   9.2076433  23.8550041  73.6392210  10.2341879
  78.4243631  37.4485040  52.6740646  78.4930849  36.5230036  52.9085016
  79.3140459  37.7874064  52.7732706  69.0906906  26.9177032  53.6889648
  68.8598871  26.0551119  53.3441544  68.3674574  27.4843335  53.4204721
  64.2760181  25.7334542  60.0603628  64.0881300  25.1255298  59.3452740
  63.5473871  26.3540077  60.0448561  37.9501333  14.7129397  19.1833008
  37.5159540  15.2874951  18.5527409  37.5506630  14.9350457  20.0243271
  78.8344423  57.4465761  31.1147011  78.2978050  56.6551159  31.1576164
  78.3334629  58.1022320  31.5998447   0.5685288  71.5741158  56.2010431
   1.2933975  71.4517403  55.5880070   0.2551132  70.6878376  56.3813496
  49.6039724  45.2261257  66.2701225  49.3969870  46.0782480  65.8863497
  50.4295921  44.9719477  65.8578348  67.3754253  18.8512998  33.2410133
  67.8902759  19.3137937  32.5797546  67.9932632  18.2390122  33.6405266
  57.5656605   8.9850754  50.1948309  56.6791487   9.3389237  50.1232386
  57.9020882   8.9987487  49.2988062  46.4755390  72.1656773  44.3956841
  45.7074593  72.4672888  43.9105881  46.5351437  71.2319968  44.1934002
  13.3570725  69.7607756  57.8925133  12.4761826  69.4819450  58.1425476
  13.9383847  69.1386032  58.3297825  68.7389270  26.5869746  23.6417473
  68.9428417  27.5220833  23.6267937  68.6894075  26.3674817  24.5721233
  72.9534570  60.1678632  31.8325794  72.0716945  60.5363510  31.7783630
  73.0219452  59.5969794  31.0673130  49.1436138   9.8483806  17.4788464
  48.4539451   9.2795615  17.1367443  49.3702831   9.4665914  18.3268440
  70.6319086  56.4842103  48.3471668  71.1885921  55.9740815  48.9354694
  69.7696153  56.4716587  48.7625301  20.6932781  52.3148499  33.9884937
  20.1919601  52.8683005  33.3896530  20.9643553  52.9060505  34.6907986
  53.2842875  29.5276928  53.4739304  52.5411320  29.1861176  52.9766655
  53.9862299  28.8953042  53.3203220  46.7530678  64.6304534   8.6306036
  46.4763496  64.3527410   9.5038355  46.0663746  65.2314112   8.3415783
  36.7910431  55.9570382  16.8176258  36.0835789  56.5985773  16.7531574
  36.8141983  55.7183359  17.7443016  52.8330086  74.8912380  17.9294670
  53.5927055  74.3625257  18.1735123  53.1639717  75.4923675  17.2621239
  21.0107754  56.2296055  11.6050041  21.4026354  57.0218203  11.9725264
  21.7307327  55.5997203  11.5713156  32.0739021  20.1769500  16.1138809
  31.9160499  19.3161874  16.5017021  31.5182247  20.1941304  15.3346718
   0.7049797  66.9421575  41.6553009  -0.1015713  67.3980782  41.4147938
   1.3622902  67.2817562  41.0479725  17.0449199  -0.2739067  19.2825115
  17.7897300  -0.0591917  19.8441017  17.0714988   0.3837996  18.5875595
  68.0203533  29.5630884  52.4992514  68.4210491  29.0757322  51.7794228
  68.5574579  30.3509188  52.5833321  71.3166714  30.5748725  48.9563417
  70.8146524  31.3703728  48.7791872  71.4418888  30.1741290  48.0961323
  65.7389450  29.3031335  66.6187000  65.0140476  29.3246412  65.9939718
  66.5039062  29.0755725  66.0902262  29.6037434  59.3091724   5.1461113
  29.6650932  58.3636115   5.0105274  29.4767139  59.4080923   6.0896719
   8.9427088  56.4189456   3.9622677   9.8913429  56.3439546   3.8588274
   8.5968206  55.6046400   3.5968960  76.2742996  68.5481834  51.8851900
  75.3814507  68.2039452  51.9087124  76.4312267  68.7440491  50.9614801
   5.4496342  31.0903239  48.0906963   5.2029091  30.2759957  48.5291338
   6.4013153  31.1335874  48.1836987  51.9713449  43.9207077  65.3038120
  52.0422935  42.9724932  65.4137707  52.8649998  44.2429590  65.4211617
  63.8715972  12.6998382   9.8145235  64.5441761  12.1548610  10.2230251
  63.0696048  12.4892049  10.2927197  44.8837326  60.0515793  19.8882187
  44.4052360  59.5640943  20.5587662  44.4996307  60.9280751  19.9094284
  55.3098392  18.5363567  56.1653519  54.8215008  17.7131224  56.1585903
  54.8720169  19.0799356  55.5103207  14.6423680  29.8805189  51.4466047
  14.4421917  29.0131021  51.0948229  15.0171906  30.3583741  50.7067394
   9.0488774  52.5783587  55.8353567   8.6131913  52.3691893  56.6615868
   8.7626606  53.4689331  55.6324053  16.4581249  69.6351741  28.6057842
  16.2159965  68.9736150  27.9577530  15.6530569  69.7934649  29.0987766
  28.5693016   9.8678927  32.0222176  29.2416896  10.4943137  31.7543972
  28.1549587  10.2724938  32.7843559  34.9119701   3.9964299  33.4638680
  34.0273895   3.9954715  33.8295830  35.4587307   3.6293559  34.1585148
  51.9222393  18.3389287   7.3950422  52.6835384  18.0913405   6.8703068
  51.1756267  17.9710202   6.9223393   2.2237641  69.2915249  44.9555397
   3.1438881  69.4967842  45.1212835   2.2394329  68.4154177  44.5702839
  12.0562798  31.3005686  59.2972469  12.2849232  30.5362964  59.8262501
  11.3643414  30.9895277  58.7135506  75.5389357  37.1108270  52.9390860
  75.5098200  36.7138600  52.0685673  76.4714670  37.2390723  53.1127739
  12.1416805  54.8368142  13.6871040  12.2882173  54.7275064  14.6266926
  12.4303625  54.0094946  13.3018339  69.3978397  51.6025124  20.3964031
  68.5196821  51.4561389  20.7480324  69.7440139  52.3308203  20.9121120
  73.9016287  75.4985497  24.2843998  74.6169130  76.0676644  24.5684898
  74.1645185  74.6232555  24.5689762  77.2695446   9.2727482  64.4576168
  77.1751165   8.9977992  63.5456276  77.3217726   8.4538525  64.9504805
  24.1466194  34.8695540  53.7211084  23.4993893  35.1391053  54.3727684
  24.0040451  33.9287949  53.6168194   8.6164814  58.8617420  65.1786280
   8.8150936  58.2956600  64.4327497   7.6925427  59.0866947  65.0692368
  74.1022873  14.4428539  54.3494511  74.9472904  14.4883728  53.9020872
  74.1725731  15.0808120  55.0595903   5.1590878  42.2803259  64.4555998
   5.2454048  43.2274818  64.5636463   5.7564503  42.0655632  63.7391663
   8.8665825  17.7653372  56.2730646   9.6775585  17.9138136  56.7593813
   8.1994110  17.6494360  56.9495916  70.2876224  27.4490075  29.4104565
  70.5193080  26.6675572  28.9085663  70.5191745  28.1794553  28.8368118
  68.8766517  14.4561725   6.9440973  69.5991268  14.8499732   6.4550436
  69.1772689  13.5694270   7.1429480   3.7070503  17.5172334  21.4907539
   3.7843337  18.2013659  20.8257568   4.6078291  17.3496346  21.7677677
  36.1009254   1.5748291  14.7636593  35.2714672   1.0985737  14.8012627
  36.2672033   1.8380933  15.6688011  56.1339045  52.8345871  64.5280313
  55.2876902  52.8662205  64.9742985  56.2542629  53.7180758  64.1798973
  14.8149910   5.8905559   5.8570135  15.2460613   6.1390548   5.0392998
  13.8802566   5.9163098   5.6524504  14.2734422   6.3716607   9.4528997
  14.6938552   5.8420758  10.1304138  13.7613334   7.0186715   9.9380339
   7.1793364  65.9508465  42.4436558   7.6762484  66.7512725  42.2744549
   6.3341616  66.2583730  42.7712811  10.5972574  70.5466745  29.4853962
   9.9428318  71.2346623  29.3644417  11.3979624  70.9082911  29.1054810
  58.0123663  33.6048722  65.4581261  58.7499332  33.6085844  66.0682201
  58.1696081  34.3572617  64.8876762  23.2745216  62.5715254   4.8101795
  22.6774023  62.0133112   5.3082502  22.7801655  62.8118131   4.0265263
   4.3007523  21.7019010  51.4674902   3.4453446  22.0953393  51.6398907
   4.9263436  22.4077058  51.6309357  33.5104551   0.7576637   7.4695480
  32.7523698   0.1736073   7.4491108  33.1784858   1.5675216   7.8570498
  79.3536321  68.9839266  14.6734131  80.0981466  68.8983844  14.0779102
  79.1721765  68.0888794  14.9601067  46.8403093  75.3366611  24.8220051
  47.7501885  75.5941842  24.9704445  46.8393056  74.9562547  23.9436424
  16.6823250  53.0511999  50.0845766  16.8600518  53.8290071  49.5557451
  15.7333332  52.9376459  50.0321484  55.9130716  13.9986837  64.3270826
  56.4810514  14.7668028  64.3872976  55.3323507  14.1874087  63.5899448
  30.7169714   5.3046041   0.4894436  30.3768386   4.8083358   1.2339342
  30.4104461   6.1991839   0.6377733   1.0950561  44.0220838  21.4473904
   0.9655090  43.8298516  22.3760975   1.0568615  44.9769597  21.3928497
  32.4431519  74.5137022  13.8133610  32.2029916  75.3225849  14.2653168
  31.7024673  73.9263342  13.9637554  11.1014738  19.4660382  24.1959942
  10.2579608  19.3244271  23.7662685  11.4334549  18.5849242  24.3682087
  77.1432535  74.9998496   7.8574884  76.9641296  74.0998457   7.5852001
  77.9507391  75.2325342   7.3991621  78.5202446  20.0649409   7.3134268
  77.5749721  19.9307542   7.3819435  78.6132373  20.8251863   6.7393053
  56.9553232  18.3529055  53.0804348  56.8702936  17.4672997  52.7273035
  57.1716261  18.2228398  54.0037584  79.4350759  62.3560593  25.6371010
  79.8770277  62.7080558  24.8644436  80.1385442  61.9749305  26.1625660
  44.0522947  22.0183091   3.4535778  43.5295572  21.3560824   3.9057196
  44.4541111  21.5484099   2.7228439   8.8678978  59.1835902  29.2390335
   8.5255955  58.7741993  30.0336731   9.3165634  59.9702380  29.5490635
  69.4546604  48.6169863  61.6733980  69.8876429  47.9094267  61.1957788
  70.1726723  49.1516781  62.0122099  60.1907555  60.9695671  26.7962730
  60.9986416  61.3870046  27.0950974  59.6200077  61.6986678  26.5536011
  28.1494568   3.1121213  42.8447008  28.5921810   3.4043033  42.0479250
  27.2651050   2.8846557  42.5576401  75.8184958  41.9312239  42.8938341
  76.4600277  41.8716955  43.6017370  74.9847269  42.0841789  43.3384323
   1.5252548   9.0607619  52.3608589   1.7829472   9.7548544  51.7541742
   2.3031098   8.9114672  52.8983355  67.5057602  57.9827595  66.1070919
  66.7993593  58.0064821  66.7525959  67.1048832  58.3085918  65.3012609
  75.1894085  53.6354993   9.8717058  75.2038566  53.9451025  10.7773340
  76.0055439  53.1451485   9.7731674  68.4756843  48.7075672  22.8051651
  68.9180414  49.2287050  23.4752167  69.1868011  48.3062963  22.3056400
  65.0468413  69.6662877  13.7328613  64.2576758  70.1512645  13.9742077
  65.2798096  69.1792915  14.5232952   4.0547560  68.9598463  11.5546930
   3.6437414  69.6263788  12.1051777   4.6232365  69.4541476  10.9641636
  21.7749699  66.0020523  60.8406973  21.8485506  65.1956241  60.3303146
  21.6474875  66.6888808  60.1862907  77.8150789  75.9007738  33.0670822
  78.7111370  75.7557891  32.7632893  77.9164211  76.3490556  33.9067257
  64.3431701  21.4937358   1.1925114  64.1788807  20.7495456   0.6133593
  64.0025081  21.2154155   2.0426405  26.7024906  72.3304843  49.7601175
  26.2901314  72.9423486  49.1503525  27.6036890  72.6429810  49.8402309
  64.9882444   8.9721875  46.5948380  65.7913907   8.7565236  46.1208332
  64.9483999   9.9283700  46.5759457  65.5318689  47.6098633  62.1062565
  66.1498833  48.1133652  61.5763712  65.5976152  46.7171049  61.7672968
  59.2558861  28.5464048  60.0555229  59.9874020  29.1075492  59.7981596
  58.7436867  29.0830016  60.6604576   8.9609287  72.7677391  29.3725098
   8.6052320  73.1754372  28.5828865   8.4403465  73.1349156  30.0869358
  80.7080738  59.0326164   7.0190990  80.0742761  58.9253447   6.3098562
  80.4883281  59.8778723   7.4108732  53.0053939  30.3297095   4.4596518
  53.1332531  30.6576257   5.3497923  53.1145134  29.3817859   4.5356215
  76.5033388  46.4111471  59.3667316  77.0331621  46.2528753  58.5854053
  76.9267321  45.8940697  60.0520086   9.7383553  47.0493078  62.9223871
   9.0377766  46.7206717  62.3589802   9.4696289  47.9410601  63.1432867
  68.2317781  56.8918896  49.6489286  67.2758150  56.8697357  49.6921682
  68.4943676  57.4032640  50.4142904   7.3943573  65.9133482  48.3988094
   6.4768654  66.1212063  48.5755253   7.8785473  66.6735363  48.7211561
  32.9713621  43.5610490  17.7401341  33.5572233  44.2249494  18.1037796
  33.1989898  43.5236936  16.8111504  40.1531496  24.4753032  16.6163433
  40.8774223  24.4132428  17.2390926  39.5516052  25.1068215  17.0107544
  10.5342434  72.5911687   8.8592089  10.0155256  73.1357072   8.2670582
  11.2399862  73.1655214   9.1563213  46.1195507  20.4378037   2.2024334
  46.7338218  20.8897071   2.7809513  46.5598144  20.4198699   1.3526810
  37.1637811   5.5511384   2.1286142  36.6484203   6.0724931   2.7441013
  37.9870643   5.3837113   2.5873077  14.5157995  48.1728559  21.7925442
  14.0986242  48.6745934  22.4928749  13.7997236  47.6802258  21.3915623
  37.2735538  32.7468066   0.9730423  37.2480859  32.1137910   0.2554930
  36.3988247  33.1354146   0.9807718   0.5240907  13.0446677   6.6866816
  -0.0464116  12.7030187   5.9981764   0.7249441  12.2833590   7.2310150
  10.6260965  67.3714993  12.8418339   9.9346350  68.0205152  12.7118624
  10.5873869  66.8204687  12.0601070  26.5654514  59.7199104  24.2058075
  25.8780048  59.1111467  24.4760883  27.3746250  59.3292282  24.5357216
  27.8767480  23.3880334   0.0996435  27.7040901  23.7536387  -0.7679712
  27.6817789  24.1039472   0.7043636  30.6379308  23.7157302  23.9877022
  31.2208023  23.4100776  23.2926739  29.7584619  23.6195950  23.6222923
  79.0461302  43.7365580  64.2704630  79.0179014  42.7841806  64.1787624
  78.5062885  43.9192390  65.0395060   0.8149773  26.7156291  57.9383945
   0.1340824  26.1167192  58.2448530   0.8432347  27.4055219  58.6013269
  80.8999348  35.7234001  62.7235222  81.0027409  35.8605242  63.6652517
  81.7556190  35.9425569  62.3547506  10.2684933  33.4333754  55.0517273
  10.8039528  33.9163613  55.6812000  10.6690747  33.6209416  54.2028522
  47.2790289  13.9686334  34.3178153  47.0880222  14.4826341  35.1023865
  47.0603228  13.0692077  34.5616055  31.6922959  62.8536277  57.3357487
  31.5868147  61.9488316  57.0417261  31.3858517  63.3821838  56.5988970
  57.5588862  42.4678294   0.4449070  56.9275991  42.7090014  -0.2329885
  58.3624212  42.2692300  -0.0358450  70.7474081  50.8048628   5.0763453
  71.0891287  51.5542290   4.5885885  71.2978117  50.0706337   4.8039520
  63.4557692  72.4942849   1.4141119  63.2911531  71.6684792   1.8692816
  63.9678876  73.0121610   2.0352161  70.2498380  39.6999671   8.3797014
  70.5387441  40.1722684   9.1605318  71.0551349  39.5298389   7.8910387
  50.9164619  36.3551593  55.5188179  51.5333033  36.8167734  56.0868406
  50.2268505  36.9954753  55.3437233  54.8168659   0.7998505  51.9967651
  55.6779957   0.4096680  52.1465874  55.0049543   1.6491485  51.5973282
  39.0254829  62.8210304  14.1587914  38.8659809  61.8774650  14.1370476
  39.6445511  62.9427645  14.8786343   1.4565998   6.7162794  62.7603436
   2.1941906   6.1771250  62.4748707   1.8615776   7.5077313  63.1150579
  20.4541421  24.1424751  53.4768248  20.3043246  23.5544634  54.2171144
  20.5563307  23.5593605  52.7246523  36.1970766  63.6862390  63.4222794
  35.3362139  63.8706641  63.0465984  36.0427864  62.9644530  64.0317488
  19.4248891  11.9961548  61.9822121  19.8686802  11.8131483  61.1540890
  19.4463360  12.9499674  62.0597696  17.2091673  47.4505887  21.8650139
  17.2666309  48.1859080  21.2549007  16.2722538  47.3531423  22.0350922
  54.4023848  24.6674824  54.4895458  55.0565290  25.3634644  54.5522690
  53.7861061  24.9771285  53.8258076  70.4442120   1.7874271  58.9808989
  70.8012104   0.9679840  58.6384153  71.1996222   2.2389960  59.3572903
  23.9327000  54.2758439  19.7481907  23.6842440  53.8332114  18.9366615
  24.5507048  53.6773930  20.1679028  77.8143589  13.2983444   2.6870049
  77.1977274  12.9268477   2.0561398  78.6737911  13.1713507   2.2851503
  52.3952866   7.4878675  25.6056929  53.1759977   7.7536452  25.1198101
  52.7145529   7.3015916  26.4886427  42.8635315  49.2205963  23.7150658
  43.6786536  48.8745961  24.0785110  42.3284785  49.4275627  24.4813049
   4.6225792  14.8813510  52.2367001   5.1818806  14.2690063  52.7146626
   4.8100716  14.7070754  51.3143635  29.3771066   3.6810355   2.3584784
  29.5787038   3.3977036   3.2502831  28.4812822   3.3792214   2.2080219
  66.6911610  67.4280797  40.2645016  66.1205109  66.8033152  39.8169994
  66.6279610  67.1901964  41.1895132  76.4067117  40.2389322  14.2303646
  76.7959730  40.5400940  13.4093893  76.3060371  39.2940261  14.1152657
  77.1383238  30.6654501  42.3398781  77.2195816  31.4980435  42.8050900
  77.3717165  30.0036049  42.9908180  10.1533888  43.7654910   5.6386602
   9.7045324  43.5872845   6.4650953   9.4640301  43.7168399   4.9763525
  80.5867767  10.3923643  53.0908918  79.9068737   9.7593319  53.3216095
  81.3288307   9.8558843  52.8120184  70.7980005  50.7464979  13.2782114
  70.2229778  51.5040634  13.1701649  71.5987293  51.1061058  13.6599815
  64.5787970  45.3964416  13.6149252  64.5914666  44.7809825  12.8819311
  65.4366485  45.2953915  14.0273750  24.6692139  49.8057795  58.9380074
  24.5177799  48.8607264  58.9246178  24.4120842  50.1019382  58.0648470
  78.3186531  24.6471405  62.1585703  77.3681164  24.7382784  62.2249937
  78.6402130  25.5449915  62.0767450  39.1857193  62.2345088   5.8690393
  38.3861111  62.7587221   5.9143436  39.8610638  62.7941678   6.2523592
  29.6100712  20.0466943  39.8986101  28.8545895  20.3826356  39.4163036
  29.3178678  19.2032218  40.2441549  15.2722794  20.4063368  64.8756981
  15.4500538  20.4108524  63.9351654  15.3565079  21.3225269  65.1397753
   2.1932266  61.7682979  12.4747074   1.6204927  62.2459600  11.8746698
   1.8839214  62.0130704  13.3468617  53.7487833  58.1808803  29.8749435
  53.0547563  58.7915395  29.6266449  54.1654102  57.9422484  29.0468681
  39.0371845  46.4891944  17.1090782  38.9006851  46.6683254  16.1787498
  38.8289402  47.3154513  17.5451553  64.1146612  23.3182693  64.7852135
  64.4894648  24.1694784  65.0114822  64.7279644  22.9475617  64.1506577
  23.3366734   0.8331559  35.3466392  22.7614361   1.5979868  35.3272843
  22.9593426   0.2666449  36.0196328  69.1603947  20.9219837  26.4786267
  70.0389147  21.0773063  26.1317706  68.6383438  20.6862020  25.7117486
  63.1994915  23.1243682  48.3883286  62.7179003  22.9232526  47.5859261
  62.5814962  22.9313231  49.0933466  18.6207475   5.8738809   2.3005331
  19.0545501   6.6940646   2.0652807  17.8994646   5.7967191   1.6760099
  69.7894088  48.1552146  12.1368301  69.2211048  48.6067353  11.5128172
  70.2514402  48.8588259  12.5925577  65.7084600  63.8613937   2.4560059
  66.2258999  64.4720052   2.9810226  65.5470149  63.1204865   3.0401505
  26.6352232  69.1877948  61.7629385  26.7750080  68.4561103  61.1618328
  26.0658987  68.8318883  62.4451637  19.3502577  68.6557733  21.1843276
  18.4497174  68.3662074  21.3306618  19.8682841  68.1548773  21.8143916
  77.1581316  22.0623040  30.2385330  76.7313862  22.4321294  29.4656491
  76.4353609  21.7898273  30.8038592   1.9541548  76.3368104  13.9680470
   1.2046574  75.8843491  14.3550385   1.8102978  76.2741635  13.0237902
  55.7602978  19.0002513  38.7581921  56.6546345  19.1107297  39.0809822
  55.5538321  19.8335207  38.3347964   5.6878430   5.1795131  50.2477455
   6.6054398   5.3246814  50.4783773   5.6999546   4.3951598  49.6992254
  50.5230808  23.2413149   6.5242255  51.1337090  22.5160336   6.6558743
  49.7926092  23.0491447   7.1122015  70.8419609  18.5916567  48.1939888
  70.2399111  18.3731246  48.9053345  70.3366518  18.4357536  47.3961258
  62.2555931  68.8766979  56.7673635  62.7240666  68.7236165  55.9467983
  61.9421776  69.7785907  56.6995716  51.6626112  51.3652847   2.8951777
  51.7073194  51.3600478   1.9390381  50.9997312  50.7082341   3.1075562
  77.0100546  36.2441993  64.0289545  77.1182156  36.8470740  64.7645330
  76.2810135  35.6800795  64.2868280  52.3937273  31.1737943  65.8115339
  52.5048065  31.0123301  66.7484570  51.4811325  31.4484906  65.7223749
  66.5093533  40.4930464   0.6428946  66.6172401  41.4210678   0.8511436
  66.1162130  40.4875501  -0.2298271  58.2207108   2.6286292  65.9633636
  57.3838377   2.4132654  65.5516720  58.0942631   3.5092264  66.3166189
   8.4240625  25.6709943   5.0216425   8.0858372  25.3053794   4.2042339
   9.0466831  26.3429067   4.7439516  19.8462427  21.5040874  35.8344769
  20.6956959  21.4133000  36.2662363  20.0465250  21.4574051  34.8996305
  71.6697311  22.1188593  32.8988981  71.9798708  21.5964866  33.6386108
  71.7437124  23.0251336  33.1979465   0.6752108  71.7018745  23.9947784
   0.2453516  71.7769096  23.1428230   0.9485147  70.7859133  24.0453041
  73.5104895  22.7346134  47.9131889  72.6325274  22.9823875  47.6233149
  74.0748167  22.9355478  47.1666050  33.9713277   5.8626370   5.7060135
  34.3376007   5.8089309   6.5887297  33.7445011   4.9592357   5.4854429
  44.6638020  72.1822103  41.8999958  44.0555819  72.5466233  41.2569523
  45.3918227  71.8459486  41.3773727  16.1435850  55.9410017  10.3803062
  15.7785376  55.5684273   9.5777118  16.1972721  56.8805509  10.2053845
  51.0870790  17.6108670  53.7824011  51.6589165  18.3283198  54.0553331
  50.2948856  18.0437779  53.4642029  21.9122845   0.8682162  64.8954582
  21.0795933   0.4909554  64.6116829  22.5768715   0.3530908  64.4380665
  12.6649902  55.0944791  20.1217068  12.8393696  54.2144773  19.7879112
  12.6337240  54.9881695  21.0724724  11.7676113  67.8880046  32.4551189
  11.1258552  68.2237218  33.0809582  11.2537334  67.6748226  31.6761959
  60.3768078  70.1561187  16.6373623  59.8868291  69.7774480  15.9074486
  60.7266633  69.4001029  17.1088112  23.5483931  45.2247576  18.1997002
  24.2700527  44.7874329  17.7478397  22.8377054  45.2386174  17.5586403
  73.4507275  18.6643863  57.1718693  73.9480019  17.8748167  56.9584894
  72.9712725  18.8696933  56.3692427  77.7557508  61.6851518   7.7880991
  78.6723701  61.6861508   8.0638636  77.7853767  61.9071458   6.8574703
  48.1862982  71.4856558  64.5439196  48.3600815  72.4102353  64.3673325
  48.6524542  71.3060211  65.3604126  24.5799979  64.6434646  21.9338918
  24.4921597  65.5772965  22.1248746  25.4897984  64.4392889  22.1502471
  34.8147533  55.6837330   1.2349833  34.1142128  55.8531103   1.8648899
  34.3703125  55.2962897   0.4809320   0.0680977  41.1744356  13.5025775
   0.6915528  41.2865162  14.2201960  -0.7043689  41.6686106  13.7770236
  81.0100357  75.2399800  15.1365650  80.2130119  75.6463073  14.7961414
  80.7213966  74.7597931  15.9126652  80.2369301  61.4834426   8.0914629
  81.0861580  61.9164894   8.0047739  80.2435819  61.1180780   8.9761627
  12.0802544  47.2995118   9.1447866  11.5913341  46.4895079   8.9995897
  12.9488323  47.0084957   9.4224775   7.4401234  37.3720824  23.0990780
   7.4005602  37.2127365  24.0420902   6.5631626  37.6807918  22.8713310
  51.5019131   8.5699487  44.3913937  50.5790949   8.3158726  44.4007540
  51.9589663   7.7997911  44.0534687  46.0705527  75.7769396  52.4011278
  45.1164301  75.7007066  52.3929882  46.2988098  75.8283545  53.3292913
  66.9863548  13.1092410  22.8281105  66.2241211  12.5302463  22.8289402
  67.6916256  12.5762038  22.4611176  51.5446518  40.9402088  19.4827259
  51.8131111  40.0240738  19.4130028  50.6690166  40.9632395  19.0967739
  18.8856028  41.7548574   8.6967552  19.8314188  41.6081090   8.6854446
  18.6286829  41.7322827   7.7749575  59.1522739  73.4419844  20.1723183
  59.3649052  73.8391302  21.0168827  59.3606708  72.5145076  20.2845276
  20.7301384  19.0792549  58.0619669  21.3853794  19.5339942  58.5912085
  20.9919697  18.1591594  58.0951834  56.7739725  18.3930326  62.2253895
  56.7155266  18.8413811  61.3817072  55.8637762  18.2713747  62.4955320
  69.1335591  75.0511167  28.9125896  68.5588368  75.5047052  28.2960033
  69.3169793  75.7006870  29.5913005   7.7637623  39.3289082  13.3439386
   7.4961183  39.7333992  12.5187195   6.9995592  38.8241301  13.6221874
  20.0773102  15.4992735  59.7097826  20.1094204  15.7538354  58.7876129
  19.1440159  15.4029620  59.8993158  74.7941359   2.3523860  30.8413494
  75.5528339   1.7880158  30.9899891  74.3508895   1.9640737  30.0870407
  50.2614260  15.2999949  22.9312015  49.6032763  14.6260846  23.1012440
  50.8171129  14.9250889  22.2479105  33.7598093  70.3251480  63.9138317
  34.7039326  70.4168283  63.7855577  33.4558781  69.8620765  63.1331778
  25.1049278  66.9669674   9.7511089  25.5838488  66.8223760   8.9350403
  24.1863439  67.0096967   9.4853867   2.9800659   9.6875137  61.3429451
   2.0749432   9.6774453  61.0316896   3.4775883   9.2587620  60.6466103
  44.2167664  19.2423069  65.2275133  44.0093374  19.8443508  65.9421778
  43.5902548  18.5257125  65.3285408  34.3765018  24.2744897   8.7988222
  34.4769905  23.3285127   8.6927069  33.9656303  24.5645497   7.9843987
  60.0365933  76.0139968  65.0754118  59.4021710  75.4714996  64.6069717
  60.8103379  76.0183260  64.5119095  15.9429024  42.2837386   4.5731628
  15.1967762  42.7670888   4.2183388  16.1117599  42.6930571   5.4217995
  32.4338005  41.0059459  28.2791412  33.2557056  40.7640631  28.7059677
  32.6939342  41.6091592  27.5829399  78.3150283  29.2640577   5.8864725
  77.7386467  29.8010204   6.4302433  79.0193597  29.8573981   5.6255138
  73.7923439  63.9965372  54.1141558  73.8966759  63.0504136  54.0131760
  74.6201714  64.3632798  53.8035965  29.0698574  13.2664678  34.9988449
  28.5429523  12.8995774  34.2889202  28.8040684  14.1848967  35.0444019
  71.3935558  58.0274723  19.3989933  71.0086576  58.6651561  18.7977875
  70.6472532  57.6735935  19.8827637  76.8255321  71.3702820  35.3036297
  76.5966026  72.2461555  35.6145466  77.6980774  71.4715884  34.9233330
  77.2641555  28.8073877  44.6119011  77.1601717  28.6835668  45.5553520
  77.0465938  27.9556642  44.2331398   1.6632801  13.8065195  45.4738331
   1.3672501  14.6463156  45.1226330   2.5301701  13.9904141  45.8356571
  60.7430172   4.6639821  50.4358816  59.9230146   4.1992128  50.6026793
  61.4147377   4.1194406  50.8463621  48.5756588  31.1536789  62.6633120
  48.1688261  30.3272104  62.9234457  49.0513611  30.9439373  61.8595982
  51.4168119   8.3000696  52.6807547  51.4398861   8.7847018  53.5058784
  51.2089968   8.9611465  52.0204353   8.1138800  61.8781827  19.6394718
   7.4551485  62.0054720  18.9567554   8.9448116  61.8378661  19.1660202
  72.4593918  53.4543703   6.3567484  73.1985466  52.8628955   6.4983023
  72.3224203  53.4440968   5.4094589  53.5671298  67.3001859   2.5709141
  53.6167018  68.2536862   2.6388205  53.4453646  67.1326301   1.6363943
  13.8459394  69.9259303  25.9675205  14.4833515  70.3682444  25.4068935
  14.3331430  69.2003820  26.3579548  66.8005133   6.9069421  36.3319802
  66.3313580   7.5933784  36.8062472  66.6894245   6.1241955  36.8716097
  56.4930065  71.9103371  43.9016342  56.4271363  72.6130812  43.2550716
  55.7773503  71.3141440  43.6811304  19.4639069  20.2836823  24.9195337
  19.1609818  19.8059821  24.1473508  20.3124100  19.8917258  25.1260424
  72.5548307  28.4617994   2.7708948  72.0512144  29.0492640   2.2074354
  73.4427587  28.4909789   2.4145687   3.8149697  33.5716152  37.8683925
   4.0385491  34.1385674  38.6065078   4.0563637  34.0800476  37.0941424
  40.1641846  28.8750291  65.5683136  40.5682135  28.2531190  66.1734724
  40.1198864  29.6944261  66.0611200  41.3462170  65.5626028  55.6717062
  41.4672955  65.5600279  56.6212130  41.7825993  66.3618629  55.3767776
  30.8406353  21.8273020  65.4140091  30.1594281  21.3218188  64.9705219
  30.5431652  21.8851280  66.3219738  69.6089029  34.2415595  58.9701223
  69.5562696  33.6895895  58.1898737  70.0707436  35.0270963  58.6770916
  71.3629349  55.7714598  38.1976032  71.5926464  56.5892976  38.6387444
  71.8413552  55.8036177  37.3691607  65.4349375  18.4163404  28.4094429
  65.4023647  17.4605966  28.4509587  64.5346403  18.6942303  28.5781860
  80.1464748   4.1483557  13.6042964  80.8573723   3.5460925  13.8236749
  80.5318356   5.0191844  13.7011600  45.1766060  42.7494762   4.7731531
  44.7331951  42.0591012   4.2801989  45.8720920  43.0518828   4.1891325
   2.6206833   9.9890965  41.0458040   2.2241646  10.6399941  41.6248894
   1.9747120   9.2842275  40.9998655  71.9840908   3.7088224  24.2874932
  72.6611423   3.2594442  23.7816358  72.0275688   4.6179852  23.9912415
  42.6205585  60.7867334  16.8829620  42.8022621  61.5878937  16.3916767
  42.4575565  60.1252363  16.2105835  27.1285389  35.5136643   1.8536079
  26.1994694  35.6678633   1.6825045  27.5457046  36.3596415   1.6907394
  24.9616184   2.2187762   9.0076149  25.7253208   2.2797255   8.4337891
  24.3697347   2.9016023   8.6919296   8.0799435  58.8459156  15.3389442
   7.2172592  58.7884042  14.9282253   8.6971949  58.7190984  14.6184242
  61.0084343  16.7961371  45.1100254  60.6802082  17.4969172  44.5466375
  60.3016710  16.6419017  45.7368660  27.9536198  49.5533095   5.5042971
  28.7953709  49.1516791   5.7196606  27.7135418  49.1688929   4.6611965
  60.6536579  28.0340242  63.7721014  61.5089655  27.7156830  64.0607834
  60.3402042  28.5715866  64.4994259   1.9459399  60.6017547  41.0504055
   2.2054180  60.0045376  40.3488111   1.2806114  60.1196616  41.5414810
  51.8589075  67.6727133  62.7112818  52.7109440  67.7455365  63.1413555
  51.7634209  68.4936350  62.2283697   9.0829466  35.1757456  15.1100815
   9.1073273  36.1320574  15.0768364   9.2113970  34.9648864  16.0348881
   1.1213452  16.1713135  43.7704039   2.0269829  16.4408326  43.9234257
   0.6039196  16.9555998  43.9531374  17.3795563   7.9789156  62.2177315
  17.3492390   8.7787640  62.7426672  18.1860501   8.0572671  61.7081738
  55.7385969   6.2768817  53.1544113  55.1967382   6.9484627  52.7401686
  55.6693220   6.4578080  54.0918016  58.0023670   9.6311712  28.0848217
  58.0751467   8.8236320  28.5935593  58.3714819  10.3067219  28.6536932
  78.2422352  48.6382818  39.1474819  79.1758537  48.7194443  39.3424344
  78.1430578  47.7449274  38.8183737  76.1591053  17.7435851  61.8515396
  76.5657234  17.9664886  62.6889229  75.5710363  17.0167577  62.0567894
  27.6435326  72.2417758  25.6813801  27.7635715  71.9848678  24.7671497
  27.8479240  73.1767819  25.6962383  43.3611669  11.2628417  22.9226864
  43.4433069  10.3094487  22.9456318  42.6347627  11.4262490  22.3211277
  12.6325566  12.5997508  55.5738926  12.5557858  11.7211962  55.2017593
  13.5127789  12.6248348  55.9491491  30.8266972  34.5939542   3.6467827
  31.3272045  33.8084344   3.8674343  30.9379242  34.6910281   2.7010382
  12.3267124  50.9385286   3.2268751  12.5645063  50.2412663   2.6157177
  12.1375940  51.6924629   2.6682652  52.1650465  76.4933071  45.8200979
  52.2430762  76.0814038  46.6806078  51.8037756  77.3609049  46.0017252
  31.2988796   2.0362954   1.1958921  31.3527669   1.4073639   1.9154585
  30.5313196   2.5700479   1.4012945  58.4653083  60.9382985  19.5987022
  58.2133905  60.9628747  20.5218304  57.6407305  60.8144806  19.1286266
  22.3179680  11.3235509  50.6114960  21.8952805  10.9747040  49.8267221
  23.2551247  11.2583661  50.4278469  39.6685169  62.7465937  23.1776321
  40.2784298  62.0308659  23.3564270  39.6021030  62.7718661  22.2230709
  57.4563456  75.6277561  19.2018175  58.0282593  75.0756693  19.7350550
  56.6920424  75.0795984  19.0240741  33.7266453  72.3468529  50.4453754
  32.8932532  71.9249358  50.6543541  34.3399580  71.6212039  50.3291225
  32.2581146  65.8598898  19.6346939  33.1417034  66.1787794  19.4508446
  32.3484943  64.9074171  19.6640099  61.2919855  28.9665914  36.5285206
  61.0083103  28.1420064  36.9232631  61.6117859  28.7192559  35.6608891
  72.6053476  32.7279544  29.6452641  72.5962114  31.7827249  29.7958899
  72.6546144  33.1096816  30.5216694  80.7630579  45.1587639  15.9481037
  81.6045324  45.4713676  16.2804211  80.1894132  45.1549492  16.7143620
  53.7922619  76.3021872  13.1819046  53.2728241  75.6942818  13.7080849
  54.6208427  75.8455060  13.0365551  77.0180273  40.2531862  53.0343580
  76.7005444  39.6836019  53.7350750  77.9070234  39.9446154  52.8591347
  70.5348722  52.8799711   8.6137522  71.2731735  53.1175254   8.0527628
  70.4276935  53.6298583   9.1989124  21.3654763  28.4223509  65.1374531
  21.6160923  28.1716967  64.2482948  21.2828022  29.3753624  65.1033354
  48.1168888  64.3572304  25.1716126  47.7221439  63.6326668  25.6568134
  48.6040447  64.8503015  25.8317650  71.2620783   8.1761605  25.4134440
  70.4615736   8.4136373  25.8814526  71.6025209   9.0078533  25.0838757
  28.2478942  11.3363557  42.0587528  27.6891746  11.2298636  42.8286350
  28.2579221  12.2800355  41.8987740  24.8433445  59.1997955   8.6752689
  24.6907709  59.6336816   9.5147312  24.0301464  58.7266920   8.4988916
   5.7883793  43.8093901  57.7697039   5.9575230  44.2895317  56.9590950
   5.6258637  44.4906616  58.4221506  71.7426968  37.1432710  47.6261234
  70.8504009  37.2239447  47.9630661  72.0199680  36.2659431  47.8900433
  56.5977573  32.6736474  63.3734608  56.9720459  32.8589511  64.2347383
  55.6983900  32.4019217  63.5565758  39.7977295  13.8577228  12.8173245
  40.0703420  13.1372743  12.2491110  39.0289440  13.5216670  13.2780540
  13.6277483  70.2691911   6.7886818  13.8541363  71.0984895   6.3676775
  12.7017115  70.3596375   7.0134342  51.6178703  42.2169971  61.4685583
  50.8664608  41.8367481  61.0135603  51.5337896  41.9070816  62.3702908
  65.7756424   4.6698216  63.5442400  66.0861063   3.7660563  63.5994768
  66.5349865   5.1656282  63.2379675   9.4023655  45.5156688  23.3723534
  10.0004671  44.9085436  23.8081348   9.6043680  45.4239491  22.4412239
  55.3050079   5.9841065   0.3708637  55.0679435   6.4533143  -0.4290544
  55.6497135   5.1456838   0.0635183  20.2134226  52.9202304   4.1758764
  19.4485090  52.4262641   3.8806761  20.8408640  52.8422246   3.4572208
   7.9691750  43.6019611  62.7084923   8.4148175  43.2053709  63.4570599
   7.5684601  42.8636551  62.2496271  49.9222374  37.3921442  66.0830021
  50.5458355  37.8296804  66.6625881  50.2071381  36.4784074  66.0706997
   5.9739167  28.1196117  59.5865297   5.0544792  27.8612137  59.6504211
   6.4591938  27.3594093  59.9072027  35.4228391  30.1014714  12.2063625
  35.6014480  30.2155166  13.1398142  34.4681778  30.0632958  12.1480883
  61.4139938  36.8541861  61.1791801  60.4899311  36.6057944  61.1537361
  61.8700933  36.1230922  60.7624006  74.1209078  37.5582957  65.9807634
  74.8971176  38.1032681  65.8514071  74.4625616  36.6665506  66.0463142
  73.9295912  21.1530614  42.5515270  74.6385670  21.7917967  42.6263952
  74.2792130  20.3587341  42.9553127  56.8081951  35.0202250  61.8533802
  56.6773844  34.1471267  62.2232676  56.5457296  34.9338746  60.9369278
  47.9309662  75.8847663  47.3687696  48.7262305  75.3839645  47.5503731
  47.3722561  75.7316522  48.1307650  61.0539569   2.8978162  27.2331322
  61.6660633   3.3448224  27.8177155  61.5018215   2.8776603  26.3874138
  26.2055347  62.7159808  11.2707413  26.2663696  63.0627439  10.3806341
  25.5657862  63.2805798  11.7045391  78.5132257  56.9716618  42.2516048
  79.0085546  57.3060343  42.9993141  78.1541053  57.7540050  41.8330277
  27.7322759   3.7398915  16.0639942  26.8747463   3.3807044  16.2917316
  28.1162490   3.9936070  16.9032944  18.0837105  64.2590688  19.7174919
  18.6278532  64.0225170  20.4686153  18.3845232  65.1333306  19.4696796
  12.3788220  30.2705073  44.5345259  11.4594799  30.4864740  44.6907091
  12.5896698  29.6212292  45.2055073  55.2664993  29.8978404   6.6799200
  55.5190132  29.6032897   5.8048714  54.5656345  29.3003682   6.9407833
  75.3320495  57.4264679  10.1923407  74.7154514  56.7838142   9.8415745
  76.0895483  57.3745487   9.6094740  37.0648279   9.4749694  15.2520741
  37.9191675   9.8951774  15.1532925  37.1927681   8.8335567  15.9509743
   0.1596306  50.6668577  22.3940647   0.6319759  51.4923165  22.2857273
   0.1042507  50.3047428  21.5097416  77.9635668  36.7808223  28.3639860
  77.9385328  37.2537732  29.1958070  77.4563313  35.9852839  28.5254312
  79.9805212  44.6375990  50.0213718  80.1853371  45.4248333  50.5259037
  80.5468750  43.9611006  50.3926134  67.5211374  67.8100107   9.3566692
  67.4613468  67.9271362  10.3047932  67.7884714  68.6674998   9.0257919
  19.0818936   7.5638431  54.8127937  19.0555149   7.1273571  55.6642723
  19.1955715   6.8525374  54.1824341  33.9719723  75.3469203  21.0193337
  34.1589592  76.2852595  20.9913147  34.0353058  75.1176617  21.9465149
  59.9338102  59.5617008  29.0339351  60.1920938  60.0640011  28.2611370
  59.8432255  58.6632729  28.7163639  14.7714184  54.3106101  26.0247314
  13.8494823  54.5563934  26.1012161  14.7824285  53.6278639  25.3539360
  18.8052138  76.3326383  27.0842290  17.9424198  76.4080916  27.4918151
  19.4213684  76.5315485  27.7892256  76.5570305   5.2624805  53.8398314
  77.2023342   4.5563323  53.8057661  75.8571575   4.9207408  54.3962717
  42.2438622  19.9475479  45.5039072  42.1436024  20.2647138  46.4014530
  42.3326731  18.9987159  45.5936861   8.0361134  74.5685244  60.2520084
   7.3463684  73.9708138  59.9635077   7.7299553  74.8974371  61.0971785
  33.7107650  73.3867715  11.4211834  33.3816812  73.8679598  12.1803892
  33.2961539  73.8115571  10.6702602  70.8916187  39.4595766  49.1056299
  71.7778540  39.8075795  49.0070915  70.4248524  39.7697449  48.3296442
  25.7009639  21.2694936   6.3160646  24.9426546  21.0556512   6.8596352
  26.4376154  21.2826257   6.9271267  49.4957972   7.8970617  40.4670048
  49.7382879   7.0243561  40.7765436  50.2732086   8.2122678  40.0060129
  75.0206614  47.1412849  50.7045841  75.2128172  48.0724621  50.8151436
  75.7005119  46.8254566  50.1093674  41.7285623   5.9518437  13.6581982
  42.6445283   5.6792026  13.7120903  41.2306394   5.1420789  13.7703503
  23.5523413  47.7820204  21.9227779  23.2810018  48.1780581  21.0946739
  23.2529543  48.3974037  22.5920284  26.2070606  46.0340969   0.1924027
  26.0312603  46.8967775   0.5680454  26.7818497  45.6084661   0.8285511
   2.3888729  52.3068080  24.4747818   1.9023989  52.5473509  23.6862934
   3.3075855  52.4314974  24.2367638   3.6142776  57.6490555  40.8952320
   4.1822813  57.7811561  40.1361836   3.9030502  58.3068238  41.5278328
  61.6209831   9.6075540   2.9013527  62.4022045   9.8881965   2.4247349
  61.9564762   9.2605691   3.7279594  62.3854637  56.6208935  64.1419792
  62.7504444  56.6629410  63.2580948  61.8756866  55.8107996  64.1523218
  13.7798413  58.1121247  58.7676859  14.0846070  57.2118943  58.8814068
  14.5695027  58.6063259  58.5476065  77.1334553  29.0442419  57.0481014
  76.9971609  28.4530044  57.7884388  76.2721729  29.1151786  56.6365242
  39.9106302   8.5585837  24.2257965  39.3075409   7.8210549  24.3183601
  39.6199598   9.1897445  24.8841084  77.9326248  34.1320133  47.4433136
  77.9157543  33.3465672  46.8964815  77.0332861  34.4589806  47.4206686
  20.4990814  55.6305740   4.0962351  21.4444874  55.5412970   3.9759386
  20.1757000  54.7302423   4.1287506   9.3663651  33.9449453  27.9564714
   8.9965397  34.0931296  27.0861268   8.6060292  33.9087915  28.5368180
  60.3574959  55.5693171  37.3739708  61.3118331  55.6329677  37.3362434
  60.1787345  54.6294592  37.3432243  53.2496405  32.2409940  53.0465746
  53.2069206  31.2981176  52.8872156  52.7079487  32.3773074  53.8238955
   2.6342342  18.8061390   3.0997456   2.1491335  18.7854336   2.2748316
   2.1933840  18.1614039   3.6530960  59.5846176  40.1662159  54.0468407
  60.1776457  40.8411551  53.7166786  59.5445061  40.3232574  54.9902201
  11.0463713   5.8484767  18.8351906  11.5359972   6.0644171  19.6288288
  10.1946161   5.5491541  19.1532314  67.6697159  60.1709604  58.1425667
  66.7929125  60.2165747  57.7612972  67.7004862  60.9013462  58.7604856
  16.5011166  72.7381823  50.3481281  16.1531876  72.5722239  49.4719875
  16.6129492  71.8677280  50.7302750  60.8524742  15.0490861  12.8806770
  60.3554668  14.3508582  13.3069361  60.1849212  15.6428437  12.5370825
  39.8069141  73.3406160   9.7334898  39.3916653  74.1473625  10.0383842
  39.1061352  72.8638075   9.2887486  30.6793449  54.9898956  27.4690521
  30.0097607  55.0842974  28.1465424  30.5701397  55.7627819  26.9150246
  54.2770243  22.5115633  40.1804018  53.3910751  22.2052145  40.3739738
  54.1567183  23.1844616  39.5103526  14.6445996  34.6983719  51.9461966
  14.7054058  33.7866068  52.2311878  15.3419739  34.7935510  51.2974691
   1.9750172  22.3174286  56.6467237   1.9031578  21.8888640  55.7938480
   2.8760010  22.6391268  56.6779661  71.9566202  18.5705173  44.7518492
  71.1172771  18.5235918  45.2095938  71.7413616  18.3867526  43.8374519
   9.6198078  14.9260859   9.1845310   8.9152046  15.1075034   9.8065031
   9.7773071  13.9856868   9.2686403  36.7946384  13.1509502  60.8244944
  36.8267582  12.4984843  60.1248646  35.8884666  13.1279952  61.1319971
  63.1829013  36.6693025   4.7675884  62.3320903  36.6538291   5.2058924
  63.1069603  36.0140471   4.0739763  61.0209312  19.9179893  31.4236248
  60.4609146  19.7794061  30.6598080  61.6900100  20.5323510  31.1217487
  47.7141466   3.7188678  25.4848469  47.2751274   3.5711150  26.3224972
  47.6117601   2.8930383  25.0118149   1.8199633  64.2496608   5.0943745
   1.6792057  64.3225239   4.1503895   0.9811733  63.9428089   5.4386223
  69.7579040  15.9589915   2.3518742  68.9007129  15.6443315   2.6389921
  70.3404083  15.2087169   2.4702108  54.0151731  40.7907703  13.1257284
  53.2313434  40.6044170  12.6088942  53.6983744  41.3165192  13.8602055
  65.4142608  19.1683631  20.6470860  65.5942478  18.2444530  20.8209408
  66.2758865  19.5549874  20.4910362  12.5559948  62.6130507   5.3539312
  12.7935169  63.4370229   5.7792414  11.9266365  62.2081659   5.9507692
  52.3033619  30.5475330  55.9490347  51.6481590  29.8872733  55.7232094
  52.9277849  30.5231166  55.2239656  19.4774054  68.0255411   0.6347740
  19.0936087  68.5233519  -0.0871098  18.9025972  68.2018945   1.3795746
  67.9650164  53.6915970  61.4748764  67.5167418  52.9064035  61.7891121
  68.6929369  53.8120461  62.0846701  12.1329306   4.4017894  60.9518671
  12.7580545   4.0485961  61.5848827  12.6597116   4.9624355  60.3822994
   3.9788681  67.8586006  64.1756630   3.1637055  68.2393932  64.5023727
   4.2429882  68.4362936  63.4596014  77.9409782  63.8853476  21.0017002
  77.9110424  63.2799456  20.2608765  78.3118574  64.6897195  20.6388462
  70.3717613  42.9859114  50.3154659  69.8872662  43.7428570  50.6449080
  70.6309557  42.5064659  51.1023521  46.2734747   3.5575813  58.9972448
  45.5857086   3.5021704  58.3338118  45.9919214   2.9543769  59.6850681
  20.5283775  10.3731732   2.8031767  20.1200332  11.1059384   3.2642019
  21.4619245  10.5845408   2.7968061   3.2853411  53.9238165   1.9877995
   4.1091154  54.0728865   1.5236843   2.7880571  53.3425365   1.4124287
  81.1077690   2.6839438  25.1523662  81.9794178   2.5679773  24.7741842
  80.5093861   2.5722390  24.4136596  40.1296606   7.1551375   4.7621048
  39.2034330   7.3649697   4.6424902  40.2584304   7.1715598   5.7104624
  28.6733826  70.5322908  51.8074799  28.3102854  69.8891371  51.1985874
  29.4850167  70.8237707  51.3921213  20.6509205   1.8240218  10.9313143
  21.1539169   1.6658859  11.7301929  21.3118072   1.8978171  10.2428282
  55.6759079  63.4710293   4.9862939  55.3211888  63.6699503   4.1197839
  55.1055344  62.7814942   5.3260678  19.9422081  50.0554698  33.1427169
  20.3305205  50.7990067  33.6038017  19.8142584  50.3691213  32.2474623
  77.6693193  70.8173249  13.3859194  78.2014743  71.6126750  13.3643711
  78.2949917  70.1152871  13.5645569   9.5836026  13.9236665  58.8833094
   9.0081650  13.9141107  59.6481705  10.4102093  13.5602605  59.2009258
  29.8858879  53.9341376   4.2418707  29.7042702  53.3503351   3.5053766
  29.8835895  53.3606920   5.0082815  25.8285195   0.9809487  50.0740814
  25.8565670   1.9376349  50.0600624  26.6639191   0.7225225  50.4633856
  29.2810867  56.3710842  10.4445065  28.4800575  56.8426726  10.6729591
  29.3221806  55.6502817  11.0729874  51.2702179  19.0110433  47.2486782
  50.7993603  19.8091245  47.4886560  51.4233923  19.0970802  46.3077402
   6.3565499  23.8476896   4.4238794   6.3521248  22.9176354   4.1975787
   5.4666477  24.0241504   4.7291207  72.5412560  34.6999097  24.6401167
  73.1132078  34.4372988  23.9189100  72.8828382  34.2291236  25.4003215
  81.3404274  17.8230476  55.5647182  81.7427063  18.6714542  55.7507610
  80.4049587  17.9645073  55.7100582  73.8125610  20.4112554  38.8799214
  73.7983608  21.3659143  38.8116932  73.9944887  20.1101875  37.9897022
  41.4121197  71.4182923  22.1641434  41.9854496  71.9432447  21.6056145
  40.6386230  71.9665334  22.2959030  22.6830355  70.6947012  63.1304848
  21.9240205  70.1129360  63.0895668  23.3945672  70.1381941  63.4471142
  65.1105976  34.8562241  44.3122435  64.5459461  34.4837308  43.6350060
  65.9835577  34.8622084  43.9196396  43.8854074  13.4710157  62.7321863
  43.6127472  12.9649293  61.9668293  44.7633553  13.1469500  62.9332495
  54.5161255  75.1415806  29.8410106  54.7031411  75.1178718  28.9025569
  53.8149746  75.7872021  29.9292684  48.7862778  14.1032243  51.4798689
  48.6714554  15.0248039  51.2480545  49.3064117  13.7390804  50.7635689
  14.2774342  75.0051663  38.6799038  14.4170521  75.7240675  39.2962730
  13.6233995  75.3395007  38.0661476  61.6373070  73.2289281  63.6244535
  62.3518093  72.8592264  63.1057596  61.8428048  74.1618738  63.6845636
  46.7543068   8.3858924  19.8793495  46.2875309   7.5606732  19.7475613
  47.5627412   8.1350617  20.3262795  63.7868643   5.8338517  31.1349654
  64.6523619   5.4776996  31.3357282  63.9414072   6.7656660  30.9798193
  74.5835495   0.4980310  58.8770723  74.0147352   1.2637380  58.7972307
  74.4382620   0.0064039  58.0687237  77.9726831  49.1969822   1.6215599
  78.7346546  48.8730405   1.1412514  77.3433200  49.4341777   0.9404791
  43.3443687  65.8243177   1.6125763  43.5250519  66.7433045   1.8101824
  42.4961517  65.6535862   2.0219791  24.3446157  44.6145008   9.2404974
  24.7798822  43.9347050   9.7549379  24.9049948  45.3843657   9.3380249
   5.6852776  31.5653396  39.4913292   6.1056381  31.4182878  38.6440349
   4.9454361  32.1401072  39.2951083  65.9743698  70.5660348  51.4410114
  66.7382153  71.1305665  51.5596628  65.7532795  70.6539493  50.5138493
  14.1879040   8.1445473  43.8800335  13.9190155   7.8455025  44.7486544
  13.7032658   8.9591199  43.7465096  36.5530594  70.4586851  25.9148145
  36.0103329  71.0369205  25.3787875  37.0829161  69.9733084  25.2824426
  19.0207680  64.0837066   9.7662652  19.4726523  64.0159052  10.6073558
  19.5296915  63.5285156   9.1755104   1.6195828  15.7164609  12.7313781
   2.2693211  15.1864576  13.1930804   0.8020550  15.2271986  12.8236508
  70.1388788  35.3683615  30.4897904  70.1581001  36.0861158  31.1227942
  70.4507875  34.6079278  30.9803843   9.2429207  43.1137688  28.2276905
   9.1605804  44.0160100  27.9188049  10.1082037  43.0782298  28.6354435
  54.6249237   8.0473285  24.2491901  55.5087890   8.2701354  24.5413483
  54.5235290   8.5107379  23.4178055  62.5924015  20.9132576  58.1102610
  61.8405199  20.9084892  57.5179005  63.2680941  20.4214358  57.6435900
  75.4078341   8.9317942  27.3439527  75.0452185   8.3200413  26.7032480
  75.8227015   9.6138114  26.8157816   3.5130745  33.5055399  57.7647591
   2.7906185  33.4287548  57.1415472   3.2951599  32.8864551  58.4615231
  51.4809569  38.4736579  62.1603155  51.3449772  39.2882841  62.6441813
  51.7296513  37.8361767  62.8296423  18.2627636  18.1106329  60.5840063
  18.1830269  18.6181581  59.7763586  18.2488495  18.7662876  61.2812519
  14.0145816  10.1796775  35.0366581  14.8949041  10.5106025  35.2148426
  13.4793653  10.5262713  35.7505596   6.4030766  35.1848722  63.0795956
   6.0924566  34.2823100  63.0079651   5.6815064  35.7141757  62.7398825
  35.6915698  72.4145410  24.1584194  36.3215272  73.0292700  24.5345676
  35.7393525  72.5698397  23.2151115  55.8419435   8.7544875  30.7773197
  55.6550016   9.3307023  30.0362003  55.7095989   9.3056970  31.5486038
  55.2799670  61.7436192  42.1056545  55.2290217  61.5157387  41.1773766
  55.1926653  60.9071610  42.5627602  35.8466146   2.7513368  52.2833586
  35.7406561   2.1317870  51.5614414  36.7062817   2.5460965  52.6508951
   0.9978618  35.9856849  43.9157665   1.7219081  36.0016732  44.5416439
   1.3608470  35.5574040  43.1404865  77.2101442  50.8046983  19.3413055
  77.8880636  50.9506724  18.6814964  76.4464752  51.2761317  19.0084351
  15.8814549  38.6219883  51.1752653  16.4110565  38.8393593  50.4081249
  16.2953758  39.0984845  51.8948889  48.8215925  27.5612264   3.1253469
  48.4979077  27.1053462   2.3484076  49.5055904  28.1431251   2.7940262
   7.1004405  35.8317761  17.3513878   6.9420828  34.8897128  17.4119556
   7.8637185  35.9826808  17.9089439  76.2178957  33.0491424  52.2483015
  75.6857538  33.6152792  52.8073597  76.0435384  33.3581853  51.3593006
  23.7639689  43.9122820  65.5570030  23.9104795  43.0531359  65.1612234
  22.8813028  43.8597393  65.9235716  54.6488873  54.0228901   4.3069733
  54.0102092  53.5955463   4.8776758  54.1236846  54.5891354   3.7415016
  78.1649764   8.3529859   7.5459040  77.9632576   8.2864146   8.4792364
  79.1209849   8.3281379   7.5051153  20.7410049  32.7398729  56.7575455
  19.8157096  32.5082803  56.6773796  20.9284544  32.6572323  57.6925659
  58.4947387  75.1935671  28.5155571  58.3009712  76.0946820  28.7737740
  59.4451706  75.1189564  28.6012733  13.6722139  76.0176156   4.4067562
  12.9751054  76.6720197   4.4517887  13.2318286  75.1860736   4.5823372
   2.4179687   3.6223369  41.1698044   2.0067801   3.4653144  40.3198040
   2.5960555   4.5627742  41.1796463  28.8208307  71.8504689  22.9401005
  29.2498506  71.0005090  22.8414047  28.6958169  72.1612165  22.0434177
   7.6472869  34.0971713  13.0558527   8.2264127  34.5817237  13.6441124
   8.2090511  33.4286742  12.6637209  41.6946125  31.7485142  63.4888077
  41.7199755  31.7454243  64.4456673  42.5205755  31.3423729  63.2260036
  12.6503172  28.5214715  24.9220646  12.5346603  28.5960011  25.8693302
  12.8241815  29.4165664  24.6308506  35.6937603  69.4449613  17.8007496
  36.5658883  69.1515301  18.0644215  35.8569811  70.1140568  17.1359909
  66.5631294  61.6034460  64.6395922  66.6035175  60.6681633  64.4399738
  65.7200098  61.8875217  64.2864847   7.3513029  70.7176826  10.6351889
   7.4222038  70.8770464  11.5763605   7.9810522  70.0177644  10.4626692
  75.8566268   5.3981881  34.2906559  76.5581210   5.3166060  33.6445320
  76.0625370   6.2022071  34.7675121  31.9359333  74.2688606  36.4756287
  31.2883926  74.0057681  35.8216370  32.2318629  75.1318619  36.1859978
  35.6522749  71.4588425  10.9665001  35.5890654  70.7013366  11.5482367
  34.8973850  72.0007680  11.1960400  71.1251012  73.7803910  12.2951878
  70.2894441  73.4663031  12.6405228  71.7321054  73.0545805  12.4400270
  25.6364336  12.4141936  12.8099049  26.3252678  11.7638736  12.9471148
  24.8413887  11.8972020  12.6800621  22.2628393   3.4271626  35.3433502
  22.1396865   3.8686137  34.5030010  23.2012357   3.5006480  35.5172527
   8.3887066   9.4090991   8.1468666   9.2221727   9.5082431   7.6867188
   8.0484666   8.5660939   7.8471888  11.9051017  38.9652162  21.6689098
  11.3394918  38.7594800  20.9246052  11.3233485  39.3840556  22.3032368
   5.1059618  30.0723605  21.0347164   4.3524828  29.5390372  20.7816017
   5.5887832  30.2071195  20.2192677   8.1655850  17.7803855  32.5621880
   7.8384771  18.5494189  32.0954693   8.9880242  18.0712132  32.9561985
  70.2790674  27.9872422  11.6848457  70.2676686  27.0725589  11.9667280
  71.2065407  28.2237964  11.6766346  66.5460869  28.2127767  54.1769970
  66.7945011  28.3267074  55.0943554  67.1742161  28.7467914  53.6906708
   7.4013414   7.7567916  31.5359676   6.4712324   7.9811196  31.5644348
   7.8473439   8.5445695  31.8469704  57.6506488  65.6226561   9.6150673
  57.0957033  65.5622719   8.8374937  57.1205036  65.2461550  10.3175056
  75.2736044  20.5976486  54.1601276  74.4080400  20.3140330  54.4543886
  75.0949049  21.2797928  53.5128403  24.3107947  68.5685461  55.9790897
  25.2334174  68.6952775  55.7578707  24.0996798  69.3028848  56.5556383
  43.9619474  55.9191904   2.7284754  44.0767590  54.9773011   2.8545559
  43.0730156  56.0082386   2.3848188  65.4942814  59.8531435  12.3600615
  65.8779589  59.0534828  12.7200163  66.2447659  60.4204414  12.1834839
  44.6805410  34.3394698   3.5659922  45.3329257  35.0125716   3.7597931
  43.9975909  34.8009259   3.0793036  12.7728140  18.5620630  30.3395057
  13.5325551  18.5878205  29.7578192  13.1054151  18.1786966  31.1510706
  43.7945382  68.2898996  13.8759125  43.3519224  68.9114163  14.4538773
  44.5123831  67.9409240  14.4042576  54.6248428  75.8689783   1.8491734
  55.2790729  75.2170251   2.1005142  54.3228213  75.5849455   0.9864224
  46.9276571  23.4956145  52.4444771  46.0841227  23.0494857  52.3693132
  46.7030287  24.4241667  52.5041771  45.1083008  64.4025467  11.0101021
  45.1757280  63.4937475  10.7172335  44.1699938  64.5450828  11.1345804
  30.6386883  46.1121402  21.0147846  30.6471665  46.7965988  20.3456963
  31.4925678  46.1836533  21.4414013  53.0168144  40.8791245   2.9083479
  53.1448881  41.2903134   2.0535076  52.8835599  41.6122294   3.5092056
  61.0808531  75.8154366  29.7238434  60.5509464  75.9939549  30.5007446
  61.8136875  75.2923725  30.0487984  73.8157225  26.7319012  60.0869036
  73.6374617  26.2959003  60.9201860  73.8690042  27.6613379  60.3094864
  57.4463336  65.7487772  42.6178349  57.5408951  64.8154137  42.4277676
  56.5016452  65.8833382  42.6932610  65.9146090  14.4551377  19.5648659
  65.6010302  14.8883300  18.7709797  65.1594957  13.9592795  19.8813427
   9.5956268  17.1888690  21.8681133   9.8041644  16.6705279  22.6453293
   9.4628300  18.0765252  22.2007645  10.3042158  66.6125624  53.8410759
  10.9211238  66.7056870  53.1151390   9.6511110  67.2957288  53.6895132
  56.0090248  53.0279873  19.2751587  56.7928569  52.7869985  18.7814320
  55.2847354  52.8566573  18.6732567  34.9552917  28.3448362  62.5850391
  34.7415638  27.7685547  61.8512487  35.0935984  27.7514029  63.3232403
  71.3433552  16.3686299  55.5887842  70.8934593  15.9625280  56.3296652
  72.2250605  15.9966946  55.6108809  59.6329443  32.0296840  15.9889973
  60.5687062  32.1929906  15.8710564  59.2151705  32.8631929  15.7723034
  79.2824968   8.1364875  36.2489784  79.9592384   7.5172286  36.5224255
  78.4786518   7.6173930  36.2244118  71.4349405  51.8612371  29.6764839
  70.6118433  51.4163897  29.4743622  71.5363447  51.7590115  30.6227959
  25.4037283  52.9378639  21.6751373  25.8371081  52.1721921  21.2980927
  24.9722866  52.6054690  22.4622810  77.4627582  51.5922497   5.3531635
  78.1874601  51.9298003   5.8795631  77.6267854  51.9324968   4.4736422
  62.1034833  62.6838856  41.4843893  62.9689797  63.0638831  41.3335609
  62.2811689  61.8435674  41.9069099  59.0324489  25.9391794   3.0191839
  59.9451439  25.6540344   3.0629194  58.5363833  25.1333056   2.8752459
  68.8308756  39.1061638   1.1007298  68.0296270  39.5584684   0.8368099
  68.5258142  38.2894148   1.4958179  32.7551204  53.3046534   6.3161827
  31.8056065  53.2305625   6.2204338  33.0785781  53.4099248   5.4214645
  30.7127084  39.6200948  22.4825275  30.4016103  38.8090043  22.8845013
  30.6640281  39.4547896  21.5409649  15.4472063  60.6555817  23.2390488
  15.0980471  59.8279259  22.9084385  16.3657616  60.6526110  22.9698265
  35.4922438  58.8753128  61.5928411  35.0422764  59.6251154  61.9821453
  35.8832884  58.4177780  62.3371363  77.9116424   5.0352244  32.1762836
  78.8141592   4.7379069  32.2916115  77.6928838   4.7932153  31.2763966
  13.4562292  27.4835258  12.0964802  13.2101764  26.7432408  12.6511562
  13.0609264  27.2880511  11.2469185  16.1101204  10.0749230  25.6629157
  16.8187672  10.2461636  26.2831759  15.3203160  10.0481403  26.2030363
  80.2221624  45.8766911  31.6431511  79.7185365  46.3310383  30.9677494
  81.0213129  45.5955467  31.1975563  50.5096139  -0.1235647  32.0008743
  51.3116111   0.2934699  31.6860474  50.1911249   0.4594283  32.6900185
  59.9387447  65.5721519   1.8542660  60.2620618  65.0281070   1.1361349
  59.1897742  65.0885413   2.2026861  46.9667105  70.3968189  59.4826878
  46.2820355  70.8120392  58.9582432  46.5164642  70.1020978  60.2742947
  77.2900995  33.8756089  16.7121399  77.2797879  34.7954898  16.4476669
  78.2136710  33.6265998  16.6768826  42.3047487  58.1215582  17.8053463
  42.1567969  59.0189860  18.1036175  43.0905859  58.1763778  17.2615803
  67.5205270  64.4268487   9.9720419  67.2114984  64.9801705   9.2547071
  68.4744493  64.4455955   9.8951567  56.4500817   4.1182570   7.5418318
  55.6312250   3.7932734   7.9161203  57.0351001   4.2150550   8.2932413
  33.2585287   7.5173694  56.9269371  33.4237576   7.2291601  57.8246403
  34.0996528   7.4110425  56.4826012  12.1886537  72.9437397  35.5191792
  12.8086565  73.4071801  34.9561012  12.7233599  72.6076005  36.2384403
  18.4310712  13.9011006  52.3085392  18.2057132  14.3117385  53.1432903
  19.3620958  14.0904813  52.1920765  42.4260370  47.3064575  17.7538002
  42.4327020  48.2564596  17.6368225  42.0536331  47.1751098  18.6257446
   0.3139160  76.2979291  41.8123711  -0.1606466  77.0402906  41.4383019
   0.0524471  75.5507777  41.2742031  49.2327004   0.4589133  42.4628532
  48.5563882   0.5277066  41.7889870  49.0957506   1.2259727  43.0188263
  80.2244480  12.3936896   4.4796551  79.3835147  12.5914626   4.0674055
  80.8151110  13.0745702   4.1575468  73.4626468  26.9207768   7.6304281
  74.2041548  27.2112803   7.0993889  73.7186833  27.1230273   8.5303009
  17.8007497  18.9275413  32.8965557  18.5209646  19.5244985  33.0994404
  17.8126134  18.8534884  31.9422997  58.9990950  40.4534769  56.7545176
  59.0058613  39.5404148  57.0417500  58.5378504  40.9203482  57.4513102
  13.7389221  12.1787982   5.4099644  13.1871070  12.0161920   6.1750114
  14.3163337  12.8933864   5.6786526  54.6705645   2.6548820   2.6733339
  53.8807836   2.1145587   2.6503122  55.1606460   2.3306470   3.4289301
  73.5707422  13.1577735  37.5156868  73.0071958  13.6908965  38.0764282
  72.9731520  12.7658133  36.8789089  53.3042351  69.4395850   0.3164852
  53.1050340  69.3580935  -0.6162083  54.2511717  69.5757411   0.3481520
  28.6500382  54.0681648  62.5889254  27.9780960  54.7432089  62.6840115
  28.2669210  53.2901239  62.9940224   4.6401308  51.8895064  37.1685875
   5.2007006  51.5987442  36.4492500   5.2089069  51.8704376  37.9382408
  55.2766456  20.9894042   5.0336874  55.1911869  20.1173358   5.4189432
  55.8942356  21.4446216   5.6060446  57.3324362  56.5241323  22.5951469
  57.8210346  57.0211146  21.9390190  57.2617809  55.6440792  22.2253597
  62.0519773  68.6350630   7.4504412  62.5778786  68.3108208   8.1815565
  61.1492435  68.5876057   7.7651680  12.1282925   0.4805260   3.1136883
  11.3576903   0.1411443   3.5689056  11.8281641   1.2942080   2.7086247
  71.3622876  11.6635566  17.0369232  70.5573984  12.0789914  16.7274178
  71.9934042  11.8094163  16.3321960  39.6899366  12.9118645  54.4055319
  39.9207664  13.5740817  55.0570107  40.2792931  13.0829167  53.6709356
   9.3375204  44.2049823  15.3965939   8.4512756  44.5661936  15.4146755
   9.8062036  44.7517810  14.7660530  41.4882173   4.1476302  39.4857777
  42.0640411   3.4023957  39.6569050  40.8074274   3.7973170  38.9112843
  57.7304023  50.4622126  61.5269995  57.8455394  51.3679743  61.2396431
  57.7479261  50.5101156  62.4828386  45.8134786  71.6753361  12.2070158
  46.2175242  70.8622549  11.9039000  45.7843832  72.2327373  11.4293993
  62.9126861  11.9742923   6.9595373  63.8085111  12.3040633   7.0300901
  62.3655941  12.7020221   7.2550476  64.5437447  64.0171740   7.6664675
  65.2780835  64.1742060   7.0729006  64.9537627  63.8394354   8.5129440
  39.4988012  19.8673677  55.3051090  40.0342655  20.2103758  54.5896673
  39.0070486  20.6254268  55.6209517  21.5612926   4.8898177  19.7560394
  20.7868042   5.4412513  19.8670280  21.2190237   4.0605168  19.4223488
  21.2522163  36.3644080  33.1292427  20.2956237  36.3820558  33.1000126
  21.4608469  36.2076144  34.0501774  78.1813614  25.7264803  14.1984451
  77.6166765  25.8296583  14.9644173  78.7614528  24.9994800  14.4247139
  47.8558683  40.1590824  63.0450678  48.0045700  39.2977643  62.6548719
  47.6823092  39.9769139  63.9686060  80.9679196  43.5714626  58.8719177
  80.5843431  43.5409307  57.9954672  81.5014278  42.7786875  58.9276266
  15.7800235   6.1123424  54.1614616  16.2318601   6.1658006  55.0036037
  16.2423172   6.7360978  53.6015976  31.1900544   5.8078164  63.2639503
  31.4237905   6.5014195  62.6470900  30.5403471   5.2816683  62.7978182
  18.0455730  73.3385608   5.0088299  17.5036190  73.7211368   5.6988705
  18.1144569  72.4131940   5.2437389  65.3915946  62.0123670  14.8595226
  65.4174534  62.1822736  13.9178741  66.1181108  62.5240753  15.2152718
  43.7605433  44.2559729   9.3010414  43.9384488  43.4040681   8.9024961
  44.3886236  44.3196432  10.0205505  41.1209468  69.0801714  19.7389114
  40.8465246  69.9780271  19.9254120  40.5017690  68.5348008  20.2241219
  50.2163076  28.7343526  55.5166101  50.3285742  27.8584814  55.8860397
  49.5297909  28.6302137  54.8577595   3.8204000  36.4628776  18.0368221
   3.5799931  35.7088838  17.4983681   4.5645426  36.8555816  17.5804508
  72.5545367   0.5422072  11.1997879  72.7417656   0.3020720  12.1072662
  73.2733568   0.1586800  10.6973589  16.7106970  72.3999276  43.6405659
  17.4016913  72.8783988  43.1824970  16.3431271  73.0375366  44.2525959
  56.7016307  69.8891518  24.3799866  57.3157374  69.3583057  24.8872459
  56.7377273  70.7537506  24.7891319  64.9395267   7.8456504  49.0246439
  64.7697679   8.3044345  48.2018852  64.0707223   7.6174743  49.3553162
   1.2538526  53.2329724  22.0500649   0.4711912  53.4098313  21.5281475
   1.6380117  54.0957890  22.2056282  64.3691985  41.8479634  38.8574207
  63.8513652  41.3589598  38.2179249  64.6648757  41.1861489  39.4825638
  35.9976234   0.6009679  24.6139038  36.2458744   0.6705813  23.6920727
  36.7672863   0.9079747  25.0930584  79.0525492  34.8706965   1.5577972
  79.5382508  35.5378633   1.0728109  79.0010532  35.2132182   2.4501265
  15.5878439  24.9612622  20.1642788  15.8244409  24.1808705  19.6630466
  16.2089052  25.6294827  19.8744572  56.3094250  73.5788844   2.7956045
  57.0576755  73.4359906   3.3752049  55.6098739  73.0444334   3.1713999
  47.1993637  42.7498960  62.9805708  47.3719597  41.8085098  62.9958725
  46.4908075  42.8737879  63.6121035  27.2459698  24.9747467  50.1828003
  27.5638103  24.6462631  49.3417835  28.0067730  24.9267244  50.7616806
  63.2526533  72.8864119  37.8153885  62.4209277  72.7930281  37.3509110
  63.8612882  73.2140682  37.1532429  57.2870671  18.3737712  47.8268421
  56.9949995  17.8822093  48.5945023  56.4788326  18.6077075  47.3704899
  66.0225960  31.7535596   1.6202295  65.8866330  32.6822095   1.8082512
  65.1923450  31.4612870   1.2440718  12.8255119  25.3213410  22.1142281
  13.3464613  25.8391385  22.7280033  12.2468962  25.9580522  21.6946590
  67.3276083  68.1319068  18.4033955  68.2673685  68.0091212  18.5376061
  66.9190542  67.6773761  19.1400898  69.1361562  64.8164699  12.9703177
  69.6010391  64.0424202  12.6525724  69.7185556  65.5473778  12.7633942
  24.6212626  62.7242374  60.1130724  25.5335879  62.9356003  60.3111124
  24.3539429  62.1335840  60.8172703   6.6142462  74.2168806  24.1932762
   6.5552853  75.1285050  24.4790924   6.3373230  74.2347071  23.2771767
  33.2386231  16.6847539  63.4540319  33.3746266  17.6305437  63.5107374
  32.2880197  16.5771472  63.4857559  81.1844770  34.4671322   3.5458649
  81.8407671  35.1389174   3.3608664  80.5016414  34.9273393   4.0338982
  76.6650303  40.6338649  17.2947872  76.4311846  40.5404286  16.3713062
  77.2867378  41.3614755  17.3120010  25.7975338  70.0021146   4.6164692
  26.7020748  70.3064463   4.6900785  25.7207964  69.6954057   3.7129868
  22.9302063   9.7263579   4.0576208  23.6736431   9.9338536   4.6237267
  22.2466697   9.4303660   4.6587837  20.1961412   8.9669757  25.9065998
  20.2585544   9.8348765  25.5077446  20.2859392   9.1280227  26.8458736
  56.9944326  60.3805921  15.5887783  56.1812059  59.9432967  15.3364552
  57.5697796  60.2718208  14.8315609  76.0599748  54.9260161  26.1880768
  75.2866022  55.4896984  26.1683453  75.7139293  54.0506003  26.3616646
  10.2770329  42.6998425  54.2809486  10.2187097  41.7463923  54.3423033
  10.9689319  42.9376888  54.8981476  80.1291982  63.3924577   5.9248722
  80.5658952  62.7184484   5.4040611  79.1962949  63.2555387   5.7600344
  44.4526052  21.7325902  53.5329151  45.2523851  21.3984370  53.9390373
  44.5409775  21.5052485  52.6073170  11.8268979  19.9021494  62.7199030
  12.5318968  20.5317998  62.8707314  12.2701752  19.0558207  62.6610327
  24.4300880   0.2589588   5.6982601  24.0231313  -0.1438327   4.9312008
  23.9861335   1.1020045   5.7899845  47.4318663  76.3594005  33.6968124
  46.9493715  76.1724923  32.8915203  48.0888240  77.0056222  33.4378994
   7.5859060  12.5999026  13.1526888   6.9348850  11.9736676  13.4692944
   8.0455412  12.8870587  13.9416779   6.5082024  55.1774559   1.1549795
   6.0802267  55.8891056   1.6310299   6.6083429  55.5117605   0.2636660
  66.6762086  13.3208423  30.9297359  65.7544847  13.3509116  31.1861599
  67.1347316  13.0298476  31.7179668  17.5762882  13.1812100  22.4174488
  18.4067001  13.2894902  21.9538391  17.5258674  12.2434430  22.6026142
  51.0219002  46.7131758  63.3595943  50.3942490  47.0412970  64.0035105
  50.5285263  46.0701990  62.8502893  47.5088167   6.5407163  59.7316217
  48.4181023   6.6753912  59.4646215  47.1938753   5.8378905  59.1632175
  34.5412054  33.2543569  22.7992619  35.4600420  32.9993539  22.8825844
  34.2364826  32.7989869  22.0143974   0.2215527  38.8070743  11.2962997
  -0.2604248  39.5415913  11.6763151   1.1153171  38.9127863  11.6222466
  13.1286563  11.9619994  28.2307327  13.6459150  12.2861533  28.9680279
  12.4637594  11.4025693  28.6322105   1.6708626  34.1993623  22.3153103
   2.4580493  33.7548833  22.0006454   1.0982861  33.4916501  22.6111687
  38.1497812  35.8758879  58.7578297  38.5028410  35.6173038  59.6091270
  38.8571692  35.6927729  58.1395245   3.8165949  47.1912710  20.2800644
   2.9949425  47.4218533  20.7135857   3.8334845  46.2342975  20.2922428
   5.7863583  50.3467278  12.5014008   6.1618151  50.3349214  11.6209925
   5.2318992  49.5672231  12.5358093  63.1886045  59.8156665  23.8503349
  63.2480971  59.8846576  24.8031891  63.6070720  58.9798496  23.6441219
  70.5354067  23.9954619   9.7209061  70.1329430  24.6930175  10.2382744
  69.8032745  23.5869603   9.2590178  45.3710403  27.9374700   7.8707636
  45.9383239  28.2105641   7.1497620  45.0932159  27.0523648   7.6348913
  14.0043773  13.4901528   2.9006374  13.9526691  13.2583194   3.8278950
  13.5635700  12.7705340   2.4488915  10.7085607  55.2136204  60.1927174
   9.9545858  54.9674413  60.7285870  10.3654621  55.8656667  59.5816982
  80.1888506  72.0593999   3.7203730  81.1251632  71.8614123   3.7392319
  79.8111526  71.4954469   4.3953074   3.9540020  51.5779066  45.2832127
   3.3453959  52.2723293  45.0310087   4.5060143  51.9760036  45.9562922
   7.5929163  63.3280347  47.3111141   7.4102018  64.2504404  47.4900425
   6.7684935  62.9825995  46.9687164  31.5136280  14.1367869  35.7455433
  31.0868492  14.9796967  35.8991421  30.7976617  13.5438924  35.5172909
  23.3102979   4.4476562  28.6277569  22.9830398   4.3762355  29.5244301
  22.5566806   4.2289500  28.0796135  49.8798262   8.7070279  25.7692612
  50.6691041   8.3418183  25.3693951  49.4707104   7.9643302  26.2134064
  10.6516171  40.1456833  57.0401525  10.4766250  41.0254145  56.7059660
   9.8073059  39.6976471  56.9888496  18.2213487  47.5061707  46.3414467
  17.8418722  46.7875199  45.8357132  19.1543045  47.4822431  46.1287392
   9.8449371  70.1811168  39.5670784   9.9205110  70.3708432  38.6319149
   8.9286707  69.9317930  39.6876038  45.0945473  16.3474238  53.0068970
  44.4879484  15.8002162  53.5057259  45.3484774  15.8045399  52.2605562
  22.3880909  53.3179162  16.8955887  23.0091331  52.6802037  17.2475231
  21.7451332  53.4370492  17.5946129  38.2746687  11.1493974  19.6259392
  37.4005212  11.5359550  19.5742310  38.4453048  11.0676913  20.5642498
  10.8875932   2.0510201  12.9568708  11.2356748   2.4062018  12.1389998
  11.2868013   2.5888829  13.6406601  71.0070173  64.1464708   5.0899876
  70.7520620  64.7784565   5.7621611  70.6454174  63.3141039   5.3943575
   2.6334188  34.8528136  25.8214844   3.4168432  34.4487087  25.4484165
   2.4521730  35.5977980  25.2484406  12.8126047  42.0001201  15.1198853
  12.0836542  41.3797460  15.1180923  12.8362940  42.3444153  14.2270649
   1.3560293  62.1424482  14.9017704   2.2599600  61.8321870  14.8481358
   0.9846256  61.6704724  15.6471050  23.5512199  10.7789426  12.1974600
  23.8030662   9.8577218  12.2619904  22.7018489  10.7646995  11.7563284
  29.2181659   4.2036062  62.1287489  28.5639954   4.0327504  61.4511776
  29.9892497   3.7115404  61.8467331  67.7405683  21.8499837  41.1629189
  67.6389066  22.3904727  41.9463528  67.1369068  21.1191783  41.2961281
  19.7287631   5.9156162  57.2872591  20.1038837   5.9343171  58.1676960
  20.2900505   5.3120476  56.8005419  66.5300318  18.8145833  49.6668327
  66.3142200  18.9225917  48.7405575  65.6860729  18.8595252  50.1162136
  26.7729900  57.2592256   8.3678186  26.4955948  56.3570366   8.2086266
  25.9858177  57.7821896   8.2158030  67.2107631  19.7687030  57.2869205
  67.6062185  18.9281797  57.5179291  67.8576738  20.1903677  56.7212915
  71.7335884  68.2284115  48.7657345  70.9647028  67.7174566  49.0186584
  71.5508548  68.5080478  47.8687084  20.5049696   0.8170753  60.0272358
  20.3285493  -0.1144190  59.8952282  19.9854936   1.2569504  59.3542660
  51.1443653   3.0300288  11.9598473  51.2229909   2.2296147  12.4788702
  50.9970655   3.7208610  12.6058186  74.1556509   6.1338382  21.1980808
  74.3015011   5.5339723  21.9295967  73.2268794   6.0349088  20.9887302
  61.8740312  59.2350004  13.3309401  62.2663848  59.9889586  13.7712086
  62.4130193  58.4919760  13.6023033  44.4972293  71.6153834   3.5975588
  43.9610306  71.0295031   4.1318501  45.3820256  71.5178726   3.9494932
   3.9996137  37.9107766  14.2436874   4.6780028  37.4964242  13.7104595
   4.4836535  38.4110455  14.9007023  10.8762228  23.5686898  57.6080465
  10.8519304  23.3267736  58.5338497  10.6212997  22.7705693  57.1451712
  40.2154819  59.3690512  15.1225174  40.5042903  58.4595821  15.0470818
  40.0050644  59.6287034  14.2255486  17.6434173   9.1463475   3.5328091
  17.3088970   9.9165301   3.0733002  18.5403909   9.0477662   3.2134998
  68.6788054  15.2599387  21.8830765  67.9748722  14.7216182  22.2449101
  69.4749077  14.9186091  22.2904385  46.2472105  31.7721152  57.2039461
  45.8279181  31.6417384  56.3534021  47.0531225  32.2479939  57.0032549
  65.9761898  53.0755399  12.3846996  65.8185665  52.9939828  11.4440954
  65.7640545  52.2119448  12.7388657  23.2340717  65.9602308  63.2149887
  22.8074455  66.2085676  62.3949003  24.0912366  66.3845730  63.1771326
  21.3360538   0.5592709  31.6136349  20.8385553   0.8100443  32.3919952
  22.1221151   0.1353698  31.9580925  52.6026432  52.5908766   5.5189837
  52.7821366  51.9182704   4.8620117  51.6599194  52.5296197   5.6730974
  63.2018415  52.7889250  21.6624439  62.4393837  52.8589747  22.2368897
  62.8326360  52.7120958  20.7826698   9.0599122   1.0101252  32.3954857
   8.1062522   0.9561996  32.4575985   9.2233195   1.3655095  31.5218533
  24.2895593  16.3515620   1.9097078  24.5032062  17.2712522   1.7523563
  24.5492115  16.1973672   2.8180206  78.9946492  33.7475352  13.7610615
  78.0537589  33.5767894  13.8035381  79.0598830  34.6639066  13.4922970
  47.0163910  71.6428302   8.9859999  47.9434768  71.7186425   8.7601746
  46.5883235  72.3292372   8.4743012  65.7156992  65.8486366  66.3871336
  64.7598028  65.8930063  66.4100027  65.9126520  65.3250360  65.6104183
  42.7751684  25.4592991  57.9751778  42.3153114  25.8520484  57.2332144
  42.0957661  25.3303623  58.6370039  14.8177089   8.6297183  64.8191250
  14.8766079   7.7201848  65.1115501  14.2754926   8.5933261  64.0311516
  74.6503496  16.2418127  56.3408422  75.2437162  16.0199273  57.0584154
  75.2155495  16.6338956  55.6752205  46.1977949   2.7048449  22.8218449
  46.5399255   2.1433263  23.5174549  46.8543520   3.3947997  22.7262962
  79.1511496  29.3614345  20.8221806  78.7366231  28.8593059  21.5237988
  78.5017427  30.0236850  20.5856979  49.2242946  17.8173833  27.5944603
  48.7413063  18.4680848  27.0850075  49.1974630  18.1480985  28.4923161
  74.4413749  72.5073931  32.5954426  73.5573093  72.8161690  32.3971546
  74.7479669  73.0893038  33.2908619   0.9516754  41.9396310  16.8498409
   0.7067432  42.6801496  17.4046982   0.2242508  41.3236861  16.9375885
  19.0314305   4.6764088  63.9679480  19.4561768   5.1096332  63.2275867
  18.9496315   5.3614104  64.6315098  41.1484756   8.8426642   2.7799547
  40.4419126   8.4668832   2.2547997  41.3026609   8.1979136   3.4704292
  53.2138379  17.0389323   4.6671570  53.3449948  16.2291245   5.1603544
  53.7609268  17.6837687   5.1156128  26.9214286  12.3656564   6.0622633
  26.6708316  12.8873305   6.8246925  26.5333547  11.5054660   6.2225807
  27.2411718  15.3844123   0.0195635  26.4783611  15.7695918  -0.4116976
  27.6388349  16.1120706   0.4976929  70.2037613  16.5483577  62.6817131
  70.7491247  15.9100826  63.1415129  69.4500248  16.0435302  62.3763180
  33.8993587  13.1468968   3.1774796  33.0762043  13.4956174   2.8353680
  34.0771188  13.6735587   3.9567507  12.8325905   2.4588780  27.7420319
  12.8673114   3.3705335  28.0317009  12.3148479   2.4828153  26.9372929
  71.5723171  14.4187074  11.0828150  72.2168197  13.8464313  10.6664551
  72.0889892  14.9819760  11.6590202  28.3790443  61.1783216  11.4497793
  27.6364372  61.7319796  11.6910875  28.3665512  61.1645935  10.4927576
   0.3816277  67.9359674  29.5978975   1.0360295  68.1292725  30.2691841
   0.5397564  67.0209169  29.3657160  27.8577795   1.7140346   4.4068993
  27.8603782   1.1370616   3.6431397  27.0473041   2.2166257   4.3246353
  29.2275810  71.8445015  58.9405727  29.6337986  72.2893047  59.6844625
  29.6297336  70.9759235  58.9321375  58.7424103  66.1460254  38.2564915
  59.3382708  66.6572974  38.8040150  58.3306281  66.7920635  37.6826466
  16.0005416  57.8588967  15.3726566  15.8217659  57.2307305  16.0724342
  15.7683601  57.3942666  14.5686424  47.5523899  65.3610847  16.1847294
  46.7933128  64.8297093  16.4248932  48.2892082  64.7505281  16.2080753
  69.3741790  64.6436451  19.3830002  69.6567337  65.0542591  18.5658157
  69.1823904  65.3780077  19.9662293  22.4254407  13.5427766  12.8265226
  21.8463506  12.8971629  13.2315767  23.0500354  13.0213265  12.3223389
   1.9872806  74.9411581   0.4231012   2.9200504  75.0313804   0.6181086
   1.8187664  74.0011714   0.4883898  79.3167432  24.6289735  36.3583363
  79.4282397  25.4251056  36.8779266  79.0576132  24.9427466  35.4919422
   9.5741643   4.7174935   7.3863256  10.4772987   4.8196034   7.0860756
   9.1175117   4.3243270   6.6426075  69.4766422   5.8812146  15.2503288
  69.3719884   6.6517501  14.6921623  69.4782885   6.2297063  16.1418427
  81.0768445  10.1525979  10.6362093  81.9111021  10.0966268  11.1021650
  80.8205851  11.0716205  10.7133902  79.7906907  34.2841153  10.2434481
  79.7317274  34.9116187   9.5230377  78.8804611  34.0922122  10.4690302
  37.9057852  46.6939000   0.9288347  37.8980033  45.7381085   0.8775127
  37.4542574  46.8934033   1.7489279  25.8669271  40.6145053  30.9572304
  26.4765920  40.1540236  31.5338505  25.0932254  40.7673030  31.4996994
  64.1231823  37.2046161  65.3973103  65.0228024  37.4449229  65.6190443
  63.9171362  37.7332711  64.6263981  17.8670635  24.9685721  34.2114723
  18.1285038  24.3235402  33.5543430  18.6927452  25.2871327  34.5761574
  67.2281225  47.2912602  14.3835247  67.6038476  48.0929952  14.7472466
  67.7174552  46.5847688  14.8050201  26.9856443  21.9038777   4.0501535
  27.2510757  22.7866702   4.3079508  26.4540853  21.5903335   4.7818411
  49.7982311   7.1459889  49.8859072  49.9834061   6.5373039  50.6010628
  50.5683517   7.7132332  49.8487234  12.6767101  16.0344558  20.8222282
  13.0680170  15.1640944  20.8969391  11.9817962  16.0419469  21.4804543
  30.6089630  16.5748172   4.1850460  29.6788206  16.4270072   4.0141190
  30.6305875  16.9963174   5.0441731  18.4642067  16.0408931  14.2159451
  17.9409589  16.0809140  13.4154165  17.9466571  16.5181594  14.8644722
  42.1548700  52.4179411  63.5123920  41.6415644  52.9917002  62.9435778
  41.6446161  51.6095114  63.5604525  74.8553316  75.2689526  13.6531914
  74.2999403  75.1048515  12.8910625  75.1908628  74.4058106  13.8953388
  30.3082252  57.2477770  61.8135881  30.3177071  57.9417515  61.1543894
  31.0162234  56.6591501  61.5518808  23.5738458  31.1563497   4.9961031
  23.7550296  32.0015864   4.5850361  23.9960327  31.2115436   5.8533943
  39.8320627  63.7088490  60.7414818  38.9202404  63.9990759  60.7654953
  39.7915483  62.8210402  60.3859758  78.0833761  63.9713571   2.9991234
  78.0041973  64.9251340   2.9826487  77.4660913  63.6682413   2.3333061
  73.7065943  25.9489779  30.0456036  72.8328117  26.0081677  30.4319180
  74.3032273  26.1036973  30.7779491  78.0786022   2.3869185  20.8817947
  77.4383362   2.0179372  21.4901913  77.5947078   2.4986892  20.0635136
  51.6095400  71.6364098  58.6278963  51.4768839  70.8399916  58.1137419
  52.3996162  72.0310163  58.2587099   8.1562414   5.7878642  25.8926189
   8.0022516   4.9050097  25.5563343   9.0412058   6.0048776  25.5994022
  12.5700869  47.3880391  25.7213486  12.9707279  46.9467454  24.9723709
  11.6729297  47.5689321  25.4409588  11.8850189   1.3424958  34.0226841
  12.6244408   0.7892627  33.7708378  11.5885216   1.7345238  33.2013226
  45.5330801  32.5669503  54.6105099  45.1446772  32.9361057  53.8173532
  46.0948992  33.2641339  54.9489260  61.7371861  49.5188651  11.3500488
  60.8519165  49.2407022  11.5848911  61.9957272  48.9251290  10.6451595
  70.3851644  62.9296015  11.7294014  71.2687771  63.2567404  11.8980492
  70.1169674  63.3691786  10.9225071  34.2431140  61.3851500  56.5748787
  33.8238597  61.7938948  55.8176565  34.1306829  62.0198631  57.2825050
  59.5712519  18.3658981  62.5794172  60.1158333  18.4858036  61.8014193
  58.6808920  18.5481369  62.2789526  54.1372108  61.1867428  60.0930691
  54.7770500  60.9289598  59.4294548  53.8701868  62.0698595  59.8380423
  77.6582138  52.4769650   2.8571356  77.5494329  51.8259273   2.1639145
  77.2583143  53.2717738   2.5041569   2.6247229  10.7147126  11.8985737
   2.9072656  11.5921597  12.1564329   3.1189813  10.5289035  11.1001909
  77.3597479  44.7678995  49.3225098  78.3006334  44.7809601  49.4980097
  76.9566202  44.6677208  50.1848793  32.5527467  28.1573205   7.3316038
  31.7848243  28.7253909   7.3934114  33.2687606  28.7472920   7.0960367
  60.6497661  76.2689231  22.8093422  61.4114014  75.7149694  22.9804504
  60.0064079  75.6775615  22.4186886  41.6802110  22.3405318  14.8568237
  40.9651746  22.9639344  14.9846066  42.3767366  22.8552299  14.4491947
  30.8159437  58.3300118  15.5652226  31.0795440  57.4723248  15.2318752
  29.8879232  58.3991914  15.3411282  18.7636375  65.7295275  58.0678749
  19.3205011  66.0774422  58.7643576  17.9818630  65.4141521  58.5213041
  60.8668937  28.6099725   9.2792500  60.8884945  29.5529895   9.1165293
  61.7242469  28.4122519   9.6561754  45.9812689  69.4399977  53.7032366
  46.9102669  69.2805529  53.5365820  45.6569481  69.8344326  52.8936243
  27.4062528  19.8557572  17.5598896  27.2046938  20.5512290  16.9338501
  27.2979488  19.0458875  17.0612705  67.7757998  25.5098777   4.5327032
  68.5879024  25.2147727   4.9445713  68.0451103  26.2272553   3.9590538
  46.0789680  27.1030283  64.8068619  45.2454424  26.7673254  64.4770575
  46.2383699  26.6034627  65.6076431  51.3941889   3.4960036  24.7230614
  51.8336109   3.2827239  23.8998688  51.1537107   2.6466708  25.0932491
  27.1432638   9.7319770  65.6134701  26.4756012  10.1263165  66.1746788
  27.2686219   8.8531882  65.9715843  10.7246643  61.9107914  53.9815664
   9.9991947  61.3020372  54.1206217  11.3101631  61.7591047  54.7234631
  69.5975773  70.9031365  36.7448891  68.7956325  70.5405710  36.3685120
  69.7179023  71.7383669  36.2930668  20.6713094  18.9700608  14.0154636
  20.4208459  19.5682721  13.3114470  19.9870576  19.0778022  14.6760929
  77.7302321  10.3067403   5.6942118  77.8668221   9.5348840   6.2435902
  78.1146296  10.0708489   4.8499239   5.5828204   0.3364091  50.1945293
   5.2110638   0.4420166  49.3188084   4.8792924  -0.0619717  50.7069481
  34.9575128  32.3553758   7.0248068  35.7986202  32.1411948   7.4284065
  35.1133384  32.2660403   6.0846127  59.9632947  30.2330501  65.4018259
  59.9410454  30.4533488  66.3330650  60.4991309  30.9203059  65.0058556
  18.9372577  18.8957982  36.8772877  19.1767492  19.6250396  36.3053787
  18.0773582  19.1350131  37.2230900  28.5782709  40.4623275  11.2343967
  28.4476986  39.5162492  11.2986267  29.3543615  40.5600886  10.6827152
  30.1699867  22.8130155  11.1564672  30.2415790  21.9921308  10.6693781
  29.3037405  23.1512980  10.9297169  13.3136747  74.5313881  12.1392000
  13.5121868  73.6060236  11.9959438  12.3793600  74.5465896  12.3466909
   3.3325018  10.4274755  30.8529652   2.6990308  11.1401324  30.7689369
   3.9375462  10.7237725  31.5329445  35.7580175  -0.0892539   9.9912775
  35.7556667   0.2453904   9.0944803  34.9119510   0.1793818  10.3493822
   0.8784739  57.7784655  45.9308994   0.8239524  56.9244871  46.3598335
   1.0087434  58.3988450  46.6481102  46.0885994  34.7596873   0.8353127
  45.7957582  33.9810593   1.3088263  45.5795423  34.7526411   0.0247324
  75.3073104  40.7694249  34.9429501  75.4816993  41.3182788  34.1783703
  75.1810535  41.3907723  35.6600369   5.8574476  21.2218575   3.8905800
   6.3483872  20.7400899   4.5562447   5.4740347  20.5417829   3.3367527
  76.1941345  27.3968844   6.7120111  76.9734867  27.7393203   6.2743176
  76.3779457  27.5021796   7.6454771   0.1589813  28.6045127  28.1042278
   0.6792392  29.1622071  27.5258339   0.7690467  28.3373265  28.7917316
  76.4435466   4.1298728  29.6399963  75.7256540   3.8443284  30.2050865
  76.0825880   4.0877871  28.7544621  67.8054913  37.6980119  26.2952698
  68.4744402  37.2824292  26.8393600  67.3035367  38.2393603  26.9045437
  75.4802044   8.2874398  12.1383036  76.2894209   7.8366952  11.8969954
  75.3527983   8.0726342  13.0623520   9.3576827   9.1304498  17.1858967
   9.9234976   9.8559813  16.9219101   8.5167994   9.3185620  16.7690456
  75.2219907  55.6333492  38.3325661  75.0844328  55.6085620  37.3856247
  75.8864204  56.3104091  38.4604347  49.2226114  21.3294940  11.5354956
  49.1770639  20.7023768  12.2572172  48.7417593  20.9093432  10.8224142
  45.7761097  35.3572798  59.9392748  46.6975689  35.3993130  59.6835947
  45.3435946  34.9207067  59.2054033  55.8991051  39.9961042  61.6685724
  55.4631948  39.2570424  62.0928383  55.7176208  39.8781013  60.7361698
  31.7927064  38.7641244  31.3287914  32.6735820  38.5387092  31.0296524
  31.8421735  38.7081485  32.2830666  56.5097801  75.7395003   6.1206282
  56.9830839  76.1643121   5.4052628  55.6313841  76.1181400   6.0847891
  30.3210115  59.1598606  59.8225451  31.0922670  59.6055365  59.4721651
  29.9308562  59.7937584  60.4243612  18.4193601   8.7806897   6.1986387
  18.2325639   8.8709979   5.2641953  17.6625862   8.3115106   6.5499199
  34.9327612  23.3421159  58.4879112  35.6532669  22.7123499  58.5102415
  34.7936630  23.5795283  59.4047070  17.5674619   5.6618981  32.4103821
  18.1473102   5.7470279  33.1671894  17.8941621   6.3081937  31.7844379
  13.2663431  49.7851186  23.4043587  12.7546348  49.7307782  24.2114723
  13.7111225  50.6309323  23.4592426  45.6507874  70.2207947  64.4780874
  46.1734962  71.0197639  64.4098282  46.1910677  69.6246958  64.9967337
  46.3931608  62.4777460  65.5976534  46.1842489  61.9219112  66.3484049
  47.3472214  62.5534964  65.6138420  69.0861225  61.2510633  63.8439846
  69.7601128  61.9155407  63.7009954  68.3097696  61.7487240  64.1005850
  39.7832765  35.9054952   1.2707842  40.5331411  35.8307891   1.8610037
  40.1139631  35.6051784   0.4242123  43.6353874   1.4357138  57.5583649
  43.7122059   0.9207105  58.3615494  44.4598103   1.2834446  57.0964384
  63.3839504  69.9793003  48.9130104  62.6964561  70.4966209  49.3324936
  62.9307214  69.4912884  48.2255066  31.3045158  35.8086066  22.6260269
  30.5159082  35.3534083  22.3308552  31.0009422  36.3816457  23.3300865
  60.0041501  57.8427861  32.8897560  59.7365729  57.3227070  32.1320236
  60.5176775  57.2384582  33.4257591   4.3218229  75.8917520   8.7729586
   3.3999393  76.1291979   8.8728941   4.5495413  75.4631231   9.5979727
  72.1898643  62.3842619  36.4543045  72.0194761  63.1832288  35.9554565
  71.6138069  61.7288206  36.0608757  37.2155595  13.5350335  52.3494434
  36.7152953  12.7817631  52.6633739  37.8443933  13.7132108  53.0487680
   6.6354424   5.6192738  52.7516031   7.3814827   5.8581191  52.2015095
   5.9859616   5.2754527  52.1382570  68.6171277  22.4532895  13.2505167
  68.0573793  21.8443875  13.7323368  68.8475986  21.9836431  12.4489248
   2.2259297  15.0266128   0.4086102   2.4224295  14.1152005   0.6252802
   1.2754144  15.0468163   0.2975071  50.0185861  13.4252267  44.0008534
  49.5975866  12.6026826  44.2506874  50.1400508  13.3542066  43.0540550
   6.7211141   0.5546002  14.1499794   7.1502389   0.6935577  13.3057154
   7.4241247   0.6434827  14.7934902  33.5248937  34.1603379  26.5804089
  33.4214058  34.5932679  27.4278152  33.6991729  34.8738580  25.9666145
   9.3109852  64.0037632  64.3671942   8.7855583  64.3484354  65.0892496
   8.8515431  63.2095432  64.0944862  61.4968745  40.3646781  12.0642794
  61.3280503  41.2948469  12.2143305  60.7462088  39.9186903  12.4564875
  46.7309370  21.7937379  24.6582592  46.1024370  21.0988193  24.4625462
  46.3812103  22.2195058  25.4409683  30.2166929  43.1969361  21.0070026
  30.4114809  44.0955358  21.2730969  30.1274767  42.7172761  21.8305290
  20.6441488   1.1556153   2.3400248  20.5164041   2.0216613   2.7271641
  20.0697412   0.5802994   2.8452957  16.3742532  14.8529487  41.4065159
  17.2713031  14.5243030  41.4658916  16.0510530  14.8310809  42.3072422
  79.3305055  34.5913107  26.2437523  79.4923393  35.0910536  25.4435719
  78.3836404  34.4512174  26.2512768  72.1558332  23.0581760  36.5149641
  71.9467592  23.7303114  35.8663082  72.1589899  22.2394681  36.0190415
   4.0448799  21.0681872  25.4179943   4.9959530  21.1286645  25.3283871
   3.9078774  20.3538518  26.0402477  20.8243012  67.9946136  51.4681673
  20.8106399  68.8051748  50.9592104  21.7192078  67.9370499  51.8029213
  11.3464727   7.5897698  16.4591587  10.6482710   8.2203822  16.6354359
  11.3097467   6.9796424  17.1957958  28.4725036   1.5014081  37.0632351
  27.7975263   0.8262353  37.1324146  27.9923334   2.3272233  37.1240414
  25.4592504  41.0056548  20.6024349  25.4899206  41.9219022  20.8777321
  25.7937517  40.5180745  21.3551701  49.4125048  68.2369993  41.8867100
  49.6868936  69.1489861  41.9827545  49.1097490  67.9848287  42.7590454
  19.2366074  71.3207839  21.5187729  19.3954466  70.3886960  21.3697327
  18.4240005  71.3474915  22.0239342  73.7759678  65.0103996  17.9811848
  73.6075346  64.1490553  18.3632172  74.3661539  65.4367612  18.6025799
  61.1342849   7.8385596   0.1562536  61.7124977   7.7066808   0.9075916
  60.9311618   8.7738328   0.1715982  36.5618219  19.2578416  49.2048538
  35.8627548  19.5609288  49.7842300  36.8160142  18.4065776  49.5611656
  77.5628519  49.1842079  56.8538761  78.2493925  49.8182201  57.0610571
  78.0147791  48.4899569  56.3742828   2.8483055  75.6215379  24.7165001
   3.0360887  74.8274539  24.2160976   2.5332497  75.3027652  25.5622852
  16.3059702   9.0930228   0.1563156  17.1528806   9.5380597   0.1865662
  16.4457740   8.2789521   0.6400288  19.7612276  19.1567473  21.4270771
  19.0720024  19.1565900  20.7628525  20.5723896  19.2648177  20.9305180
  17.0887889  21.6715007  14.5290554  16.5091791  21.8358188  13.7852276
  16.6151800  21.0361676  15.0659740  12.8229775  22.7216201   6.4935673
  12.1436610  23.3958774   6.5052403  12.3908534  21.9402604   6.8385065
  16.6652097  41.1152272  43.5291279  16.5220918  40.5789285  44.3089569
  17.6156082  41.2181954  43.4803761  13.8201131  32.1669774  18.8067520
  14.2743959  31.7148499  19.5176971  13.7110462  31.4994483  18.1294525
  33.5576725   8.4355807  61.9412279  33.9661670   9.2410231  61.6240120
  34.2887044   7.9047513  62.2575235  38.1278076   8.5286384  17.8273285
  38.6280765   9.1971116  18.2954300  38.7737503   7.8583245  17.6044834
  70.7816641  73.4344862  22.5099552  71.2745802  72.6401804  22.7157295
  70.7364790  73.9099715  23.3394802  16.2142601  21.7869191  21.8608463
  17.0923032  21.9935374  21.5405548  15.7822599  22.6373248  21.9409550
  11.1210440  26.1620528  63.4474564  11.1100290  26.0599334  64.3991280
  11.0274742  25.2712543  63.1098795  38.2452321  53.0587292  65.9796381
  38.1426144  53.1598759  66.9259310  39.1778827  52.8813410  65.8574629
  54.2855549  43.1142092  63.4125328  54.3083715  42.9740334  64.3591356
  53.7629700  42.3866510  63.0751991  10.2688136   6.8375783  48.8662041
   9.4511976   7.1852069  48.5099876  10.8084502   6.6582875  48.0962170
  22.2900047  28.7149529   5.5751503  23.1428279  28.4683757   5.9330881
  22.3496379  29.6613173   5.4445017  44.8890533  26.1371045  35.2274693
  43.9657535  26.3878160  35.1976288  45.0771370  25.8105903  34.3475521
   5.3516044  35.2624516  20.2879704   6.0245027  35.9113173  20.0820339
   4.5257606  35.6997781  20.0806988  62.6947753   9.1167457  44.6743393
  62.7844016   8.8006694  45.5733919  61.7854826   8.9269550  44.4432592
  71.9220583   5.8256633  61.5653658  71.8031589   5.7534129  60.6183290
  72.6049320   5.1870258  61.7704391  37.4775209  13.1368642  14.2638958
  36.8373003  13.8472514  14.2227066  37.4226465  12.8168969  15.1643646
  75.8400305  23.2434325   4.7579515  75.7528289  22.8921084   3.8718355
  75.7245215  24.1878896   4.6535910  72.1098423  52.5733232  59.9410868
  71.7603493  51.7768717  59.5414019  71.4674330  53.2501125  59.7277832
  68.4959412  17.7529883  58.2503414  69.2128181  18.1218600  58.7663412
  68.9213610  17.3939741  57.4716520  71.0144234  50.0027752  59.1237164
  70.8659315  49.0645742  59.2418718  70.1695681  50.3439093  58.8303232
   1.1623238  12.6246268  61.5489721   1.5252636  11.7399986  61.5930557
   0.2925156  12.5078876  61.1668301  33.7491121  25.9250598   6.7180193
  33.2344093  26.7109971   6.9013632  33.3587446  25.5633073   5.9224213
  18.4014263   7.0551877  25.9217442  19.0208377   7.7799373  25.8362949
  18.9452114   6.2687592  25.8763588   1.4353599   6.3269763   2.5931871
   1.3449874   5.8081632   1.7938793   1.1917486   5.7262521   3.2974709
  31.9884944  67.4092197  58.6424685  32.2843218  66.8383026  57.9334068
  32.7838421  67.8480101  58.9443254  21.4605321  20.1261144   9.9055708
  20.7477321  20.6765704   9.5813025  21.9125070  20.6732755  10.5478848
  55.5794430  10.4769373  63.1422186  56.2509441  10.7419634  62.5136662
  54.9493742  11.1975110  63.1376696  30.8453560   5.8588850  52.0265436
  30.1635766   5.4112160  51.5255451  30.6751919   6.7899537  51.8837595
  68.8404036  12.8135777  52.2883177  69.3528080  12.2749567  52.8912830
  69.0940905  12.5062847  51.4180040  24.5304370   5.7142562  55.5851507
  24.3577480   6.5135574  55.0876331  24.9002385   6.0223293  56.4125395
  12.3189171  58.2128005  38.2403111  12.6866468  57.3594122  38.4699512
  12.6848110  58.4068995  37.3773623  24.2555579  62.9073243  53.3685160
  24.1779335  63.6991720  53.9006662  23.3539160  62.6859980  53.1355190
  66.8499056  59.1348169   6.2083138  67.4364368  59.5166776   5.5553282
  66.2643639  58.5704801   5.7034433  44.8553514  13.0079710  59.1670465
  45.0195360  12.2477937  58.6090088  44.1972733  12.7073491  59.7937775
  45.9839066  65.1005047  20.3484631  46.7261275  65.6486349  20.0937247
  46.2806328  64.6471660  21.1375546  12.4955237  75.5532494  -0.1941549
  12.9928219  74.7445097  -0.3160917  12.9187238  75.9850708   0.5479086
  18.0802735  53.0665057  63.7362909  18.1117686  52.5161546  62.9537582
  18.5529526  53.8613575  63.4892702  60.8622185  55.9831891  15.2531231
  61.2274686  55.1047228  15.3585804  60.8453528  56.3435850  16.1397255
  37.9879022  12.2872233  57.6411533  38.2096744  11.3952780  57.9085112
  38.4994125  12.8466415  58.2256508  73.3283178  38.5895106  23.1841457
  73.1435434  37.7004972  22.8812492  73.5701505  39.0674184  22.3908222
   8.2679447  73.5815962  47.0492649   8.6528929  74.3236882  47.5154686
   9.0093740  73.1625479  46.6123295  34.1709137   8.2948554  31.7823410
  35.0958824   8.1966937  31.5564489  34.0450168   9.2395687  31.8712115
  76.3376548  53.8782614  57.2617054  76.2673142  52.9323881  57.3905706
  76.2625529  53.9972322  56.3149023  38.3813477  22.4652100  53.7789774
  38.0321336  21.6489744  53.4211540  38.3019996  22.3642039  54.7275209
  11.8358453  44.5100014  57.4909735  12.4742421  44.8111360  58.1375027
  11.3301643  45.2924578  57.2712469  55.4917041  29.6114770   1.0975683
  56.2780515  29.1837589   1.4366043  55.6155030  29.6227817   0.1484764
  34.5875595  45.0286291   3.3098257  34.7647331  44.1393624   3.0031574
  33.9113377  44.9210463   3.9786995  30.5920148   1.8179719  64.2251396
  30.3689003   0.8903578  64.1477823  30.7500863   2.1021786  63.3248758
  79.9108831  46.9312451  21.4488876  79.3592111  47.2105316  22.1795643
  79.3439571  46.3675014  20.9225643   0.4820433  26.8245173  64.0052271
   0.5289248  27.3356652  64.8131657  -0.3185048  26.3075113  64.0950108
  16.2584923  31.4650921  12.1147526  15.6312416  31.0731135  12.7223194
  16.1226032  32.4082325  12.2055948   4.6458944  72.8880050  56.4755154
   4.9618634  73.7914245  56.4906311   3.7422856  72.9554318  56.1670113
  19.6409663  70.9754544  45.3660774  18.8844784  70.6606268  44.8712635
  20.1491316  71.4803999  44.7312307  30.8223510   4.6969485  54.7313833
  31.6588449   5.1186591  54.9280310  30.5699444   5.0515139  53.8788557
  59.6050215   0.0238077  35.4270983  59.5465755   0.3931883  34.5459771
  59.2849445   0.7202404  36.0004783  42.1916771  13.1607020  52.6075697
  42.3287964  13.7555635  53.3448410  41.9647026  13.7345326  51.8758345
  18.0092476  61.2078927   7.5074041  17.6330326  60.5794904   8.1236876
  18.3260534  61.9235370   8.0585135  63.9959049  39.5516872  60.2310896
  63.1085634  39.7047162  59.9063730  63.9446878  38.7074089  60.6792021
  24.3164778  19.1823137  61.0102177  24.0165520  18.4246683  60.5079746
  24.8867345  19.6590030  60.4070568  58.2436766  23.3146088  54.3921900
  58.8316878  23.5546820  55.1083183  58.5899063  23.7810319  53.6313963
  62.2338359  57.8051112  27.0471466  61.9484369  57.1820996  27.7154625
  61.4889590  57.8736613  26.4499081  29.0835426  58.4448860  13.0468643
  28.5297916  58.3502338  12.2718609  28.4665344  58.5616181  13.7692917
  70.6803848  68.3542805  41.6258764  70.0823726  68.4615057  42.3655462
  70.6839385  69.2089616  41.1949015  53.6319828  16.8275940  63.6788368
  54.0694904  16.7442083  64.5261097  53.4536743  15.9259224  63.4115839
  62.1947090  66.1674521   3.8846815  61.4290063  66.4134214   3.3656157
  61.8485634  65.5853961   4.5611609  22.6935506   9.3080735  60.3455877
  22.7297235   8.8913560  59.4846201  23.4766626   9.8574895  60.3788519
  65.3325989  62.2385960  28.1340790  64.9925007  63.0722337  28.4590602
  66.2647130  62.2593766  28.3507872  21.2336659  35.2766776  63.2294464
  22.1890354  35.2458739  63.1789064  21.0426140  35.2552795  64.1671419
  42.0182228  32.9597712  59.0158987  42.1014023  33.2357478  59.9286699
  42.0498466  32.0037341  59.0509081  70.4494133  71.8661966  49.5259380
  69.9155714  71.9751315  48.7389374  70.9963550  72.6512109  49.5549059
  65.3977966  17.2273600  63.3113146  66.0469675  17.2974336  64.0112448
  65.8752918  17.4665439  62.5169468  49.1201870  58.6144874  23.4391583
  49.3784992  57.8242526  22.9647816  48.6902444  58.2892559  24.2301071
  35.7645726  13.7076092  57.5943899  35.0993395  13.0193985  57.6022625
  36.5963697  13.2373571  57.6510477  81.6012804  46.2722854   5.3806580
  81.3794414  47.0447085   5.9006393  80.8774130  46.1850951   4.7604597
  42.6020765  34.5950603  56.9521999  41.6832685  34.8629165  56.9356012
  42.6528788  33.9575362  57.6643896  71.4642270   3.0548339   1.8436802
  72.1553381   3.3233743   2.4490583  71.6733022   3.5063796   1.0259903
  33.8474337  47.9161237  18.8864410  34.0354160  47.0472590  18.5315216
  34.6276156  48.4319589  18.6828220  18.6939524  58.6710952  18.1664360
  19.6341274  58.4923408  18.1477917  18.5574005  59.1501401  18.9838112
  42.1302414  10.8746493  51.3166523  42.0769978  11.7366433  51.7294025
  41.2185907  10.6016290  51.2137794  69.2905470   0.3723507  16.7408073
  69.5399757  -0.0130434  17.5807369  70.0833662   0.3175406  16.2072647
   9.1271885  47.3049395  54.7507000   8.6522325  48.1266468  54.8749828
   9.9259599  47.4094408  55.2676868   1.4336727  64.2809389   2.3075569
   1.0077188  64.9398706   1.7592752   0.7831142  63.5840891   2.3936213
  74.1581241  67.0299838  15.7316769  75.0815431  67.2818659  15.7227791
  74.0896694  66.3959644  16.4455212  61.3310949  36.3429660  10.1090086
  62.1407096  35.8327537  10.1300514  60.6342928  35.6887607  10.1610983
   0.5739689  22.3108768  44.5652866   0.7144386  22.2552943  43.6200857
  -0.1537792  21.7126656  44.7348642   6.1972827  13.3786917  45.1466894
   5.6579286  12.7764952  44.6341562   5.5693305  13.9761376  45.5528498
  42.4675598  14.0726666   5.5272377  42.4705305  13.1236320   5.6519497
  42.6063575  14.4299321   6.4043510  69.6786690  31.8483996  57.3736572
  69.0851450  31.9318652  56.6273403  70.0709057  30.9812021  57.2719288
  39.5235229   6.7072213  57.9965067  38.8109255   7.2304499  57.6295376
  39.2795062   6.5796888  58.9132500  22.0375832  70.8778959  56.0204792
  21.2590178  71.4342861  55.9982681  22.1532925  70.5915885  55.1144600
  52.0798389  76.4524172   3.2513464  51.3766209  76.0516761   2.7403486
  52.8615753  75.9525988   3.0161751  68.0294051  51.5531986  34.3761611
  68.2296290  51.1901586  35.2389169  67.7274837  52.4437111  34.5552206
  57.5921122  51.0673926  16.0384644  57.3804490  50.3594957  16.6469944
  56.7426674  51.3660906  15.7137287  47.5657320   1.9600856  49.5553493
  47.1535444   1.9187936  50.4182673  47.6670408   1.0447706  49.2942619
  10.5603409  22.7017236  26.9513035  10.9049177  22.0307827  27.5406551
   9.8329937  23.0940986  27.4342537  29.4926476  10.7539070  39.0674400
  30.0854492  11.4680779  38.8333941  28.6254811  11.1587667  39.0859890
  60.5000019  23.6914349  43.6246347  61.1296463  23.2902122  43.0256367
  60.0754452  24.3734789  43.1042528  58.8188903  71.0398720  21.5352810
  59.5796053  71.2134121  22.0897472  58.8214890  70.0902055  21.4154709
  29.6118903  15.4204297  54.4303465  29.1168451  16.0452914  53.9005232
  30.3144479  15.1208949  53.8533545   6.5573168   6.6665387  42.4839211
   5.8264983   6.0797650  42.6784277   6.3573140   7.0188791  41.6166878
  53.2346455  44.9586395   0.9312284  54.0283934  44.6659909   1.3790644
  52.9017822  45.6721846   1.4755524  19.3093642  63.0902677  39.9702382
  20.0851591  62.7514987  39.5234656  18.5931548  62.9408496  39.3530273
  38.2188467  32.8164891  13.6517704  37.3153023  32.9765944  13.3793629
  38.2076208  31.9283704  14.0086258  15.0940235  60.0792640  55.1974297
  15.7642516  60.5348115  54.6880198  14.3550833  60.6873195  55.2190161
  32.6071886  15.8571098  22.6825226  32.0815666  16.1627815  23.4217918
  32.7201919  14.9197910  22.8403175  29.2709740  63.9796584  65.5576229
  28.5793980  64.2535334  66.1600780  29.7559985  64.7829514  65.3686810
  17.9906809  14.5281434  54.8433495  18.6817443  14.0749907  55.3263760
  17.8112268  15.3127098  55.3614998  30.9483194  10.5692303  65.0663519
  30.7338238   9.7818494  64.5660973  30.1216173  11.0480869  65.1254082
  10.5290969  75.6582619  60.9202671   9.7444852  75.1868718  60.6402493
  11.0494026  75.7525413  60.1223803  56.5040827  26.5588450  55.0801039
  56.8530178  27.4217391  55.3034639  56.6061163  26.0445952  55.8809566
   1.4660929  67.4283931  19.3474377   1.6465042  67.2867010  18.4181297
   1.2148140  68.3502386  19.4048012  75.9726373  57.0212291  21.0631073
  75.0526611  57.2725687  21.1450184  76.2127058  57.2779474  20.1727760
  65.2390911  65.2841668  45.6887484  64.9523272  64.7987263  44.9152184
  65.6580164  64.6257513  46.2430239  14.4259880  46.2272505   9.9924934
  14.8593138  46.3176147  10.8411921  14.3680714  45.2821062   9.8525656
  30.6422758  16.0480094  63.5018587  30.4863715  16.0105324  64.4455338
  30.2221084  15.2596045  63.1581879  76.2926380  54.6073137  21.8850697
  76.2631790  55.5123780  21.5748776  77.0018284  54.2051814  21.3835037
  48.2401983  52.1401689   9.4048489  47.4352972  51.8334947   9.8223627
  48.2633225  53.0790196   9.5899284  36.6834964  -0.2885265   5.9528339
  37.3956480   0.3504829   5.9799994  36.0102930   0.1259022   5.4131306
  59.6852986  61.8888567   9.0767420  59.2079918  61.3982842   9.7458876
  59.7044484  62.7872775   9.4064463  53.0978775  32.6763391  43.8574839
  52.9765797  31.9651151  43.2284546  53.2707977  33.4472013  43.3170176
  35.8679936  20.7709418  25.1791180  36.2077604  20.6173167  26.0607040
  36.6443626  20.9636305  24.6534241  69.9396793  59.7661541  23.0708015
  69.4858448  59.6924017  23.9103401  69.9386493  58.8759635  22.7189625
  48.6511056  34.8690084   1.8482578  47.7449886  35.0758673   1.6193665
  48.9766804  35.6607307   2.2765196   6.2462505  61.3236730  25.2781487
   6.4516576  60.8005862  24.5032811   5.6711133  60.7637053  25.7995725
  58.7446833  24.0776920  59.8612881  59.2007637  24.8303485  59.4848204
  57.8343630  24.3633318  59.9385071  80.8898266   2.2452359   2.4214495
  80.9440811   1.3221984   2.1738899  80.0547894   2.5416379   2.0593823
  29.0071034  15.5613363  32.5031018  28.6800289  15.4245329  33.3922267
  28.8848066  14.7163963  32.0702600  52.3780870   9.4712186  63.0996466
  51.4761114   9.3194318  62.8174543  52.8603840   8.7083352  62.7808475
  62.3978917  59.0089391  21.1251820  63.0486457  58.8539670  21.8098248
  62.8430239  58.7681339  20.3127087  19.2465303  48.7944982  18.6146820
  20.1579664  48.6546467  18.3578575  18.7946794  48.9945064  17.7948845
  65.5093900  28.0409274  21.1517990  65.6910054  27.5459442  21.9507015
  64.9948804  28.7920932  21.4471996  46.0983324  30.7594228  59.7203922
  46.0312271  31.1380053  58.8438082  46.3718748  29.8545241  59.5701790
  37.3276623  68.5981952  57.8773928  36.8301733  68.1097268  57.2215414
  37.1743782  69.5173698  57.6586342  15.6326556   6.5264595  17.0895815
  15.3676260   6.1776400  16.2385142  15.0098133   7.2321397  17.2636902
  60.0871372   1.6953440  64.3060589  59.4528437   1.9628111  64.9711657
  59.6248388   1.8073913  63.4754229  65.9196417  36.9087123   3.7247026
  65.7201807  37.2345147   2.8470362  65.0867693  36.9587954   4.1937912
  59.7592036  73.8634441   2.8191269  59.7909943  73.0052421   3.2418669
  59.6663539  74.4834492   3.5424555   9.5483587   5.3437717  65.8971643
  10.0971792   4.6356590  66.2342215   9.6686027   5.3090102  64.9481821
  40.6043577   3.1790113  58.6947727  39.7801638   3.4936011  59.0662241
  41.0762405   2.8068626  59.4397974  80.8459451  72.8077873  45.7232809
  79.9439051  72.6916524  45.4248333  81.0705211  73.7016623  45.4648542
  13.7791928  67.4409859  63.9708805  14.4798954  68.0685835  63.7937784
  13.4153756  67.7190833  64.8114347  55.6369940  52.2176585  22.6562775
  55.8893243  51.3247738  22.8914822  54.8103825  52.1165107  22.1843517
  48.7494294  56.6979931  13.3974875  48.2227389  57.2046659  14.0156448
  49.5706026  57.1847937  13.3272684  64.2116944  68.4989784   9.6858347
  65.1673857  68.4452818   9.6862734  63.9215461  67.6030991   9.5142305
   7.4511510  11.6544604  56.5138578   8.1348258  11.6098559  55.8454037
   7.7149051  11.0090208  57.1696568   7.1793914  17.9682887  49.5506287
   7.2280771  17.6681721  50.4582596   6.3572311  17.6046658  49.2219019
  53.9440052  60.7770536  13.0604923  54.3401829  60.7297442  12.1904171
  53.2536236  61.4343999  12.9738892  22.5798396  65.4007504  14.1393650
  22.9036928  64.7832082  14.7951019  21.7435638  65.7064650  14.4906700
  50.9280968   7.6692289  65.4917812  51.2920856   6.9235808  65.0145435
  50.9914923   8.4007025  64.8776484  79.4405071  51.0992131  14.8323143
  79.4386903  50.6201563  15.6610096  80.3672353  51.1926089  14.6116817
  17.2767170  73.6685436  25.0890946  17.5880202  74.4461793  24.6258402
  16.9102438  74.0070774  25.9059954  47.7031946  28.7025619  53.4074068
  47.1295881  28.3066034  54.0634727  47.1956158  29.4338512  53.0555344
   3.9466904  43.2600010   6.3449228   4.7039650  43.8183955   6.5208853
   3.1927250  43.7912539   6.6009319  72.2105815  56.6461461  45.3289080
  72.9562130  56.1573642  44.9805450  72.4096801  56.7562466  46.2586784
  20.1068783  22.7023697  55.9828091  20.5439925  22.7586079  56.8325138
  20.0184822  21.7631578  55.8206320  73.6611597  40.0685800   2.3690641
  73.5376875  40.5404712   1.5454710  72.7789203  39.9821789   2.7301920
   5.3866194  52.8573642  18.3665264   5.6875894  53.7648139  18.4132278
   5.8870314  52.4038337  19.0448559  37.3408461  24.9100375  63.7423801
  37.6318669  25.7933474  63.5158730  37.7916265  24.7125006  64.5633602
  10.8591461   8.1762111  32.9497266  10.4650426   7.4685282  32.4397278
  10.1134849   8.6767179  33.2809591  69.4065523  20.4307222  63.2763910
  68.8946724  20.7618141  64.0143490  70.3021574  20.7145429  63.4596109
  17.0216799  26.8287873  38.7952375  16.9059861  26.5596724  37.8839612
  17.3153198  26.0357785  39.2437291  18.3127364  68.4699677  52.5126266
  18.5670098  69.2683797  52.9753542  19.1354330  68.0002808  52.3755169
  19.9154305  31.5805292  26.4606619  20.2944112  32.2093177  27.0748520
  20.2877331  31.8204045  25.6120872  51.4446942  61.4552377   3.1919516
  50.8273260  61.9346926   2.6394928  51.0573308  61.4862511   4.0667236
  71.1091320  22.9574595  20.8425701  70.3153221  22.4265788  20.9078777
  71.7870227  22.3414836  20.5645931  32.7589011  23.7947941  43.7921572
  31.8785048  23.6029816  43.4691334  32.7381968  23.5342979  44.7129965
   1.8288610  72.3563049   7.4507225   1.5975616  72.6462028   6.5682877
   2.0147083  71.4222167   7.3549450  65.8880615  14.9732566  47.7330971
  66.3877344  15.2238762  48.5101080  65.6405210  15.8049119  47.3289824
  -0.1984694  52.9129682  17.9199303   0.7207392  52.7674363  17.6960934
  -0.1898672  53.0982754  18.8589848  54.4331924  55.6974218   1.5298737
  53.7465302  55.1797555   1.9502867  54.6054474  55.2423606   0.7055700
   1.6307495  36.7215172   3.1717337   1.5966413  37.6027721   3.5438335
   2.4721668  36.3707005   3.4635914  70.5216551  24.0715599  61.6968298
  71.0207939  23.5623693  62.3354387  70.1122427  23.4144902  61.1339140
  52.3063993  16.1268950  56.9293261  51.9475126  15.7323730  57.7241755
  51.6329908  15.9816551  56.2647486  69.4517523  25.2702975  32.0379829
  68.5688990  25.5195308  31.7646956  69.3851906  25.1538754  32.9857421
  29.8705220  12.0834446  22.1321440  30.2723551  11.4494574  21.5381551
  30.2195024  11.8582582  22.9945445  12.0314630  65.2080815  55.9257793
  11.6471370  65.6509834  55.1692343  12.9412897  65.0498371  55.6739807
  42.1663666  34.4814682  54.0515566  42.4824476  34.4863391  54.9550486
  41.2126732  34.4639730  54.1315460  46.4426144  64.8341863  63.8071966
  45.9988459  65.4395228  64.4012260  46.4173468  63.9917152  64.2608881
  72.8073859  29.1385818  53.8899851  72.2148448  29.8856878  53.9734125
  72.6634186  28.8169169  53.0000162  74.3816797  45.0832132   1.6362036
  74.6148483  44.2729268   2.0893038  74.4132892  44.8556433   0.7069862
  79.8870589  72.0716571  65.3729820  79.6525123  72.5100159  66.1909437
  80.7955792  72.3286124  65.2155066  68.2682123  57.6013093  30.7215834
  67.8502931  57.9380255  29.9289942  67.5681426  57.5877981  31.3742352
  74.9789931  58.3903830  63.4690142  74.1374304  58.2929759  63.0234623
  75.6278064  58.3530514  62.7662516  46.2575483   5.6111228  38.2875896
  45.3636742   5.9508634  38.2451391  46.1506414   4.6782884  38.4736609
  50.4578884  59.2853015  41.6281605  51.1892851  59.7999637  41.2869692
  49.7451695  59.4420569  41.0087347  35.5876136  15.0034654  45.3163052
  36.1007786  15.1981843  46.1005068  35.5818605  14.0476561  45.2650499
  11.4620026  70.7640945  60.8235025  12.3562415  70.7255887  60.4842615
  11.2731059  69.8683255  61.1030531  63.0696746  47.2418778  60.2948618
  63.8411840  47.7412026  60.0271320  62.7489920  46.8441980  59.4853878
  59.0442276   3.2449129  16.6944730  59.4612646   3.1936875  17.5545239
  59.6093702   3.8288534  16.1886489  61.3811509  44.7221533  10.3548992
  60.8718983  44.2566226   9.6914471  61.6320268  45.5432651   9.9317349
  79.3936871  34.8278713  52.0244837  79.6606083  34.9498248  51.1133766
  79.1447498  33.9052582  52.0796871  44.3221378   5.6896806  45.5690718
  44.2687368   5.9509003  44.6497536  43.7500715   6.3057333  46.0267305
  76.9081545   9.6166843  46.3204479  76.8511057   9.7654730  47.2642899
  77.2457981   8.7247640  46.2385559  61.3696814  18.7894952  51.3537550
  60.7738590  18.0419040  51.4021015  61.6618872  18.8043380  50.4423666
  79.3986456  31.0060970  17.1630943  79.8088781  30.1909147  17.4519241
  79.6889011  31.6590575  17.7999867  33.2414842  17.2843599  46.5132332
  33.9865017  16.6843557  46.4789629  32.4740243  16.7181826  46.4314890
   6.7809723  54.6164069   7.3077286   6.0416696  54.0086720   7.2897137
   7.5274465  54.0777884   7.5702084  63.8783375  54.3210981   3.2023562
  63.5369269  53.4365199   3.3334816  63.7174431  54.5051906   2.2769106
  77.0674440  18.7999737  64.1703653  77.0327282  18.6711717  65.1182222
  77.7310365  19.4783211  64.0449762  46.1308861  23.5984206  22.5975251
  45.6791210  23.0388093  21.9658804  46.4246559  22.9978013  23.2824969
  48.8728809  26.7795396  50.6898546  48.1897163  26.6494536  50.0321341
  48.5262203  27.4630713  51.2633038  45.4624824  44.4855759  11.2877596
  45.1028041  45.1693455  11.8528498  46.3194100  44.2884717  11.6659916
  56.8415785  20.2492929  58.4527588  56.5746450  20.9827709  57.8986979
  56.6770601  19.4727612  57.9178190  65.1078870  68.6616342  55.1585293
  64.7042598  69.0089696  54.3631220  64.9303760  67.7215885  55.1263428
  60.6102387  26.8469177  29.1853226  61.3140909  26.2173555  29.0288818
  60.8481805  27.2724030  30.0090874  60.7038355  21.3621807  66.1977768
  60.2579832  20.5151892  66.2050486  60.3336668  21.8212414  65.4438066
  58.0466358  57.1128199  15.7645405  58.5764782  57.8906725  15.5900562
  58.2735697  56.8645213  16.6606892  20.5317916   4.9307876  11.3858068
  20.6774559   4.9632125  10.4403103  19.8795261   4.2402940  11.5041149
  38.9809559  51.2147103   2.1736706  39.7775791  51.0012958   1.6877926
  38.7055729  52.0613585   1.8221319  69.7365324  71.5710447   2.5389708
  69.4972316  70.8835743   1.9173992  69.1651336  71.4222524   3.2923592
  60.6484238  65.0120304  12.8643215  60.5762283  64.7440288  11.9482458
  60.3257863  64.2595146  13.3601606  36.2758756  37.7440524  58.0858088
  37.0546150  37.1981549  58.1943989  36.0415697  38.0068350  58.9759111
  49.5013158  56.6732977  16.5938652  48.7504617  57.1092472  16.1908806
  49.1727749  55.8083818  16.8392551  13.0864427  58.7799475  26.7690361
  12.9140566  58.4866808  27.6637543  13.7625645  58.1835029  26.4475716
  21.7569351   9.1023523  56.2916088  21.9254732   8.9871436  55.3564310
  22.4735022   9.6584648  56.5973902  34.1804131  75.2514200  23.5988522
  33.9110955  76.1131241  23.9169216  34.7194346  74.8934645  24.3042231
  52.8145313  29.3065262  48.3668613  53.2559919  29.3155718  47.5175905
  52.9876804  30.1725268  48.7360430  74.2595998  67.6974795  12.5811995
  74.1206161  68.3069656  13.3060730  74.8771373  67.0523689  12.9257429
  52.2647516  54.2416737   2.3792589  52.0324580  53.5043476   2.9437244
  51.4532534  54.4559644   1.9190634  19.5476053  22.3802564  18.8236321
  20.1355598  22.8090344  19.4454849  20.1293943  22.0127723  18.1582726
  64.1643858  27.7701855  39.6890879  64.2852497  27.9101586  40.6282520
  63.2412863  27.9703045  39.5339513  12.8670166  29.4946454   3.4303892
  12.5720737  29.2158250   2.5634993  13.5648916  28.8793323   3.6553181
   5.4128168  60.0883696  13.8936127   4.5994327  60.4024766  14.2885483
   5.1566837  59.7943900  13.0194223   2.7203216   3.6375003   6.1559523
   2.6559772   4.5920711   6.1857832   2.7552428   3.4288554   5.2224243
  42.5821733  10.1375234  61.9031763  42.2749996  10.5985391  62.6837826
  42.2758627  10.6740689  61.1720657  71.7969751  18.7360668  64.0060186
  71.6856241  18.2015133  64.7922039  70.9241295  18.7712336  63.6146927
   3.3414044  20.0115781   5.5511272   4.2158141  19.6332316   5.6432570
   2.9963364  19.6241527   4.7467268  59.4617748  21.8775058  61.1240768
  58.8461733  22.0381689  61.8392324  59.3075228  22.5949883  60.5095339
  74.6361637  14.3883622  59.8664856  74.6331549  15.0030124  59.1327095
  75.2840567  13.7273300  59.6225548  10.7246778  43.9936791   2.4850357
  10.0820826  43.5426251   1.9374407  10.5802248  44.9231360   2.3076189
  76.9407646  57.8175328   3.0638588  77.0603601  58.1945524   2.1922052
  76.0132925  57.5833473   3.0983294  49.3524122  41.0507727  60.7674170
  48.8937187  40.8154774  61.5739346  48.6654663  41.0819292  60.1015568
  10.6160386  74.8937439  55.7936907  11.1284645  74.1215705  56.0332727
  11.0440358  75.2304257  55.0064802  30.0968933  18.5665762  43.1653309
  29.5186806  18.0997157  42.5620556  30.7869267  18.9246571  42.6068830
  72.2967339  15.2338791  63.9955664  72.1584511  14.9486816  64.8987675
  73.1713581  15.6227911  63.9984465  61.5062284  30.0837398  49.6839809
  62.2793150  29.9137163  50.2221870  60.8922243  30.5170298  50.2768517
  14.2953489  68.9540861  32.0060337  13.4537838  68.6205552  32.3170937
  14.4988153  69.6791384  32.5969112  63.7790108  31.2168097  42.1069050
  63.7757397  32.1707606  42.1856451  64.3968105  31.0370994  41.3982010
   3.4392323  14.0634351   7.1480692   3.4789290  15.0154357   7.2394455
   2.5746550  13.8264613   7.4836052  15.9110880   8.7517565  47.8525972
  16.0037386   7.8704345  48.2144260  16.1806476   8.6648446  46.9382572
  36.1094703   2.2724299   7.7278221  35.8336248   1.4823585   7.2631443
  36.9030704   2.5534253   7.2723330  56.5244404  54.0661595  11.3536442
  57.1204440  54.8131404  11.4087284  56.6341297  53.6101911  12.1880854
   9.8575018  70.9078214   0.0932491   9.4625137  70.5349729   0.8814133
  10.7614563  70.5932973   0.1065958  60.1120424   9.4034940  63.4602261
  60.6630802   8.9614451  62.8143311  60.0054979  10.2906978  63.1170797
  30.7302274  14.9940543  19.5556438  30.2171268  14.5195250  18.9015854
  30.1524486  15.0532393  20.3164948  20.2615690  35.1009393  46.3317251
  19.3567896  35.1506853  46.0232925  20.2432895  35.5135870  47.1952152
  42.4085919  76.0123894   5.5784214  42.0349137  75.2582739   6.0343874
  43.1237356  75.6470773   5.0575102   5.4278372  66.9441293   7.8506554
   5.0176189  66.5382240   7.0869864   5.0869415  66.4503429   8.5964430
  43.1596746   1.4220195  20.1888168  42.7947034   2.0783095  20.7823647
  42.6408662   1.5075641  19.3889702  26.6435097  33.2939539   5.8107651
  27.3297451  33.7210713   5.2980507  26.9663570  32.4033771   5.9481371
  79.8513738  70.2165625  27.4660194  80.4067794  69.4672487  27.6811588
  79.0035812  70.0065682  27.8576649  60.5522633  30.5828643  56.9904375
  61.2948561  29.9788857  56.9902039  60.8298779  31.3039994  56.4255238
  60.3081743  72.3259971   6.4695156  61.0266654  72.7961943   6.0465229
  60.7074038  71.9210313   7.2394789  78.9919035  42.0339201  16.8273914
  78.9850132  42.9660396  17.0449722  79.5059387  41.6287331  17.5258339
  35.7333493  27.3570204  65.5914736  34.8535919  27.6591158  65.8172989
  35.6723499  26.4020824  65.6160831  25.7217399  67.1751712  17.3811710
  25.9826853  67.2790954  18.2962406  26.5447409  67.0409773  16.9111813
  57.1339766  53.0294035  37.5994385  57.0462958  53.5558973  36.8048656
  56.2330739  52.8542862  37.8713596   0.2851055  61.3761542   1.5381372
   1.1346386  61.6973160   1.2358416  -0.3475763  61.7712233   0.9382523
  48.4176159  34.1442728  61.0221767  47.6844263  33.6382675  61.3723612
  49.0332699  34.2104506  61.7521191   3.6583000  33.2234573  48.9804649
   2.8559643  32.7302551  48.8094330   4.3310410  32.7700567  48.4724569
  62.3348093  25.2051044  41.7056704  62.8371572  24.3969512  41.6018915
  61.8595839  25.2993965  40.8801413  28.1691766  13.1457400  54.7943497
  28.3575726  12.4597263  55.4347610  28.9354801  13.7185395  54.8245144
  30.4220588  52.1968935  26.0449017  29.5665752  52.4170945  26.4135349
  30.8870764  53.0324981  26.0029972  33.7494874   5.9861243  51.6501617
  33.6153555   5.0398070  51.5979576  32.8669310   6.3552743  51.6176939
  61.9768572  43.2157850  63.2621861  61.0385275  43.0538607  63.3599091
  62.0310593  44.1025686  62.9059505   5.3985419   4.7212605  11.6317213
   4.9391760   5.4598861  12.0312822   6.2710347   5.0610452  11.4328945
  30.2805758  23.2391047  42.5784349  30.0857329  24.1220593  42.2643375
  29.4962835  22.7318883  42.3690271   4.4123997  47.8538745  17.3839736
   4.3409028  47.2694319  18.1386578   5.2731862  48.2619016  17.4777210
  71.5391914  46.8132494   5.7254780  71.2419645  47.5133208   6.3066757
  72.3688308  46.5231893   6.1046827  23.4045482   1.9503304  51.4349461
  24.0993214   2.5141582  51.0949183  23.3456874   1.2345950  50.8021069
  52.1512604  13.4294200  52.4769735  51.5101576  13.9545834  52.9559517
  51.8704987  13.4832931  51.5634632  51.2948275  28.7037325  64.2116451
  51.7094994  28.5607457  63.3608627  51.7495251  29.4636297  64.5750189
  12.9935416  58.8339870  61.4660692  12.2747811  58.3081715  61.8169737
  13.1613882  58.4625690  60.5999804  42.9490948  15.7551563  59.2036581
  43.7089825  15.1764500  59.1411734  42.9162598  16.0085964  60.1261091
  10.9362314  73.5749982  20.1352489  10.4242371  73.6135838  19.3274105
  11.7227266  74.0863369  19.9450005  11.9298299  70.0991707  51.7044210
  12.8153165  70.0889378  52.0677948  11.6477044  69.1850113  51.7352486
  21.5561700  13.7521100  42.3314190  22.2291183  13.9053488  41.6681767
  21.4727449  14.5902884  42.7860975   7.3481272  48.7178443  14.2856491
   6.8007563  49.2633102  13.7207783   7.7222774  48.0628166  13.6964310
  35.4524493  31.9710159  26.5501595  35.0189161  31.2038612  26.9239974
  34.7868776  32.6584697  26.5757704  66.1737863  56.1736164  26.2529362
  65.5555908  55.6989262  26.8085754  65.7954518  57.0486603  26.1669624
  68.5830061  51.8689690  10.3088463  69.3348400  52.0593593   9.7478378
  68.7962524  52.2845719  11.1443317  55.6794310   7.4508190  57.1760082
  55.3635883   8.1701815  56.6292048  55.3646040   6.6604495  56.7373371
  38.8510456  26.2133222  18.1762589  38.0809440  25.6449370  18.1865204
  39.1823711  26.1839824  19.0737999  71.3918992  36.9954543  25.6661022
  71.6910704  36.1627965  25.3008450  71.8017038  37.6606278  25.1130760
  57.4849176  16.4717197  37.9046607  57.3953915  17.3994672  37.6867127
  57.1562815  16.0114682  37.1323943  51.8135834  45.0592899  60.5745077
  52.1973324  44.1948318  60.4272556  51.1585379  44.9173069  61.2578726
  51.0973589  43.8796369   2.9384077  52.0206920  44.0623019   2.7642859
  50.9066621  44.3577538   3.7454212  73.2592344  25.7464552  62.5169373
  72.4138212  25.3512502  62.7298164  73.3040333  26.5276766  63.0682230
  47.2108881  66.5441320  23.9038551  47.0829014  67.1498869  24.6338642
  47.5783841  65.7575534  24.3069351  73.8228885  76.7661999  15.8747376
  73.3651821  76.1188934  16.4111412  74.3433801  76.2454579  15.2630604
  75.7459346  42.4178071  32.8545845  75.0622074  42.5301740  32.1941937
  75.7056848  43.2172642  33.3794487  63.7756809  14.9555688  15.2771366
  64.7139974  15.1250987  15.3611362  63.7029829  14.3844895  14.5124043
  40.8886011  75.0169851  59.3228388  41.1774977  75.4396627  60.1316118
  41.1015852  75.6467480  58.6341667  57.7291441  41.8052530  63.4334803
  57.7745819  42.7554131  63.5401106  58.5589266  41.4846277  63.7868786
  71.6303817  70.0630710   4.8125065  72.0120327  69.3340705   5.3015221
  71.4520685  69.7017715   3.9442337  32.6256514  21.5846539  50.6311226
  32.6470566  20.7660913  50.1354122  33.3168983  22.1193242  50.2405643
  60.6970207  58.0444226   1.8128431  60.5500738  58.4607575   2.6621378
  60.6198279  57.1067784   1.9891918  61.5666628  22.6984453  46.3255882
  60.8727455  23.3069515  46.0717583  61.5101051  21.9898105  45.6845951
  31.7916193   4.2760949   7.8010500  32.1639432   3.8402753   7.0344580
  32.5346651   4.3970828   8.3922184  76.2486688  72.4393676  14.9877537
  76.2981598  71.7003749  14.3813885  75.6461612  72.1478079  15.6720055
  59.4625632  63.0589435  14.1851986  58.5086195  63.0390332  14.2615212
  59.7308842  62.1469662  14.2971504  14.3565311   4.2854552  15.2125061
  13.8143816   4.4723515  15.9789074  14.6228208   3.3728652  15.3242767
  68.6806146  61.7027853   2.0827091  68.1399814  61.9372437   1.3284052
  69.3559019  61.1271522   1.7237270  23.2412002  70.1520727   5.3867138
  23.1048820  71.0590956   5.1129282  24.1773603  70.0007317   5.2565802
  16.6301765   7.2903209  23.5467518  17.0613088   7.7222114  22.8093136
  17.1237936   7.5780492  24.3147362   9.2410340  31.0029559  15.7396591
   8.4229531  31.0998111  15.2522171   9.9027290  30.8408933  15.0672520
   1.8426321  57.2789357  33.5521305   2.4480436  56.6752265  33.9825237
   1.7432449  56.9280718  32.6671112  15.5253456  70.9628103   4.4977892
  16.0400246  70.5316828   5.1800383  15.1011179  70.2447603   4.0280331
  54.6064250  67.2938416  12.5245607  55.0244395  66.9718096  13.3231819
  54.5931880  68.2453344  12.6280964  26.3445616  11.9224274  58.3134365
  26.5167928  12.8443241  58.1219292  27.1322060  11.4653480  58.0186081
  18.4606455  59.1116641  15.0846184  18.6843536  59.0516041  16.0133732
  17.7140758  58.5219119  14.9794663  58.3457383  72.8797342  49.4764948
  59.2893990  72.9239445  49.6306992  58.0386933  73.7762093  49.6117258
  77.3940659  19.7112358  51.1018705  78.3052206  19.5120931  50.8865213
  77.4452448  20.4746008  51.6770935  12.4745226   1.3135771  57.6704597
  12.6672316   2.2403525  57.5283909  11.7411518   1.1287560  57.0837355
  51.7426825  51.7376804  64.0675879  50.9549093  52.2457170  64.2613602
  51.8572998  51.1726999  64.8317194  52.3942413   1.9813447  16.2082470
  53.0127563   1.2525730  16.2589252  52.8604974   2.6574616  15.7166183
  17.3731460  19.1813426  20.2100075  17.1284141  18.2731967  20.0322235
  16.7255630  19.7014432  19.7342289  73.0637161  40.6048101  11.5108908
  72.2072689  40.7718029  11.1173952  72.9861442  39.7297480  11.8909967
  39.2114856  76.4557656  66.2964964  38.9558472  75.9019065  65.5588531
  39.5676329  75.8454179  66.9421482  63.1848780  67.4202082  33.4475029
  63.3206145  66.9466779  34.2682255  63.6248056  68.2599495  33.5799110
  49.5492220  31.7416072  65.3092718  49.2516088  31.2425089  66.0699034
  49.0583849  31.3737440  64.5744324  80.9753418  18.8263500  65.0426435
  80.3478432  19.2636991  65.6181479  81.7737865  18.7587368  65.5662394
  65.9176914  69.1785143  26.4363945  66.1029593  68.9934609  27.3570812
  66.5011708  69.9045775  26.2159050  22.0042743   2.3581510  14.9339664
  22.5046291   1.7129521  14.4343651  22.0742216   3.1640153  14.4221867
  46.8089239  63.3595894  22.1459377  47.0856420  62.4477599  22.2366322
  47.4847070  63.8614342  22.6016796  37.4947671  57.5329647  27.1099079
  36.5462116  57.6556037  27.1477688  37.8349320  58.0747781  27.8219212
  40.9568204   1.9749265  31.6372002  41.7012968   2.4581771  31.9956005
  41.3429203   1.1826186  31.2638271  75.0617496  61.5027974   3.8179195
  75.2891819  60.7752440   3.2389820  74.1385643  61.6759846   3.6336124
  73.5003845  66.4147351   7.6943911  73.7413541  65.9508703   6.8925226
  73.1396190  65.7358263   8.2646215  17.5854816  12.9798846  19.4720257
  17.0708074  13.1173997  20.2672756  18.4377756  13.3689933  19.6680439
  48.4832191  37.7701592  54.8340607  48.0623484  38.3232427  54.1758871
  48.0690575  38.0225277  55.6592989  69.9126045  10.0146554   3.8755549
  70.2918998  10.0881360   2.9997862  69.0601484   9.6030710   3.7336004
  68.6846916  32.5591979  24.1847313  69.5282737  32.3296765  24.5745171
  68.5462276  33.4728731  24.4342506  34.0483975  24.0473151  56.0160923
  34.5191240  23.8912034  56.8347979  34.6770763  24.5111322  55.4630375
  29.3305729  46.8890778  18.0574978  29.7862766  47.5331429  18.5994804
  29.9512146  46.1653069  17.9727448  53.6308042  49.1973589   5.1437748
  54.0943209  48.6833546   4.4825781  54.3242041  49.5569811   5.6970394
  42.4867725   7.3468047  61.2370682  42.6699734   8.2566470  61.4712811
  42.8788996   7.2389275  60.3705645  26.0955952  51.5393481  15.7533443
  26.5864609  51.4436362  14.9371803  26.6903732  51.2157283  16.4299191
  15.1365413  12.9828505  12.0820368  14.1892519  12.8810601  11.9897450
  15.5052127  12.4257617  11.3964975  68.4664345   2.7719399  48.5514069
  68.7050819   3.6093056  48.1537914  67.5957680   2.5807053  48.2026911
  77.8472805  59.3568420  15.7516205  77.4370623  59.1084385  14.9232185
  78.3147907  58.5702991  16.0327172  13.6981924  75.4756550  61.0954714
  13.7114008  74.6903569  60.5483294  13.1697138  76.1026976  60.6017542
  77.1490963  19.1556840  31.6956413  77.5283273  18.3734040  32.0962132
  76.2032994  19.0266566  31.7667377  14.3621864   3.9459329  30.3512753
  15.1531305   3.7673621  29.8425949  14.6697225   4.0180306  31.2548531
  13.5082452  66.6230817  61.3992512  13.4897296  66.8716569  62.3234260
  13.0317656  65.7936187  61.3647353  74.2945051  49.1149473  54.3976831
  74.8756695  48.9395094  55.1377487  73.5338354  49.5459127  54.7874069
  38.3208680  30.6232333  57.0501471  38.4082937  31.4183617  57.5758505
  37.3793960  30.5376768  56.9000196  27.5939488   5.0982469  47.9665232
  28.3654213   4.6273533  48.2816744  27.9486823   5.8076221  47.4306297
  52.2437133  38.1373887   1.7551554  52.4721946  38.6622624   0.9879911
  51.4045276  38.4931378   2.0474613  40.9794664  30.0384784  51.1809158
  40.4603052  30.5080581  50.5280733  40.7290649  30.4341030  52.0157862
  -0.2560085  15.3056848  53.0784798   0.5312496  15.2304518  52.5392294
  -0.1764244  16.1611533  53.5004663  80.2266598  34.3085122  44.2816639
  80.8175659  34.8499346  43.7582874  79.9744987  34.8693752  45.0152063
  39.0530529   5.6809192   7.7463806  39.6202840   6.4134555   7.5058115
  38.6716737   5.9388690   8.5855759  29.1046500   8.9286250  58.2377720
  29.2965078   9.0955251  59.1605759  29.5791531   8.1220305  58.0365610
  43.4664772  36.7715261   2.5867928  42.6534508  36.3516405   2.8677309
  43.2475994  37.1814180   1.7499483  66.6900126  56.8641958  38.6241806
  66.4315979  56.5795300  37.7475822  67.5692836  56.5050779  38.7431324
  34.3270387   6.4385800  12.9807795  34.4164171   5.4942183  13.1089533
  35.2116909   6.7362838  12.7686537  35.8927560  17.9818428  44.5678473
  35.7735825  17.0372319  44.6665478  35.0571489  18.2936561  44.2203331
  21.3553617  38.6555648  23.0855930  21.9033478  39.4340880  22.9863823
  21.9429157  37.9940645  23.4508789  75.5381242  68.2607124   1.0651482
  75.0046722  67.5830481   1.4803970  74.9021236  68.8687155   0.6882322
  22.5051355  37.7609801  52.1325541  22.1548057  37.9271793  51.2574053
  21.8654132  37.1768188  52.5396681  32.5596619  12.2365677  62.8449440
  31.6400647  12.2765863  62.5823164  32.6087499  12.7830327  63.6292887
  57.4705116  71.1654279  15.5268276  57.8835599  72.0258591  15.4541576
  57.3146121  71.0530184  16.4645374  42.2256231  15.4739583  34.5875454
  41.3540363  15.1757729  34.8476481  42.2669077  15.3016198  33.6468935
  81.0683242  66.9004224   1.1959589  81.4906971  67.5968454   0.6931389
  80.3304330  66.6257355   0.6516254  74.7161237  14.8853944   2.0756090
  74.7964994  15.7942531   2.3649967  74.6985189  14.3766020   2.8861940
  75.0711401  10.6587367   4.8555029  74.6225317   9.9983840   5.3836287
  75.9751399  10.6431346   5.1697815  49.7544098  30.1676059  60.3092051
  50.5961180  29.7145677  60.2591419  49.4046211  30.1221204  59.4193649
  74.9938107  34.5306563  64.8870325  74.1239452  34.3616986  65.2490044
  75.0260258  34.0067935  64.0865564  37.6880813  29.5981169  61.0880756
  38.4416676  29.1118336  60.7536030  36.9280958  29.1161680  60.7619143
  58.4966850  25.8643746  35.4146218  57.6457977  26.2362528  35.6468582
  58.6634445  26.1833358  34.5276690   5.1475141  58.0931721   8.5792339
   5.6210277  57.9631458   7.7575863   5.5974386  57.5277720   9.2070282
  26.9459198  75.0525019  12.3004044  26.0200165  75.1832102  12.5050009
  27.3980663  75.2015445  13.1308115  30.1059196  56.5681956   4.1504562
  29.6342609  56.8962167   3.3848370  29.7110508  55.7143638   4.3273390
  81.0616581  59.9615834  13.4566534  80.5992691  60.7970569  13.3902634
  81.0317604  59.7446773  14.3884743   7.2029970  62.1331642   2.2308672
   7.9091833  61.6659162   1.7845333   7.5550936  62.3258970   3.0998409
  63.0562488  59.9591110   3.3258665  63.6411873  59.2158935   3.4731949
  62.1765558  59.5944331   3.4227312  10.7099261  24.3916802   6.1194265
  10.5147495  25.3287654   6.1233032   9.8726406  23.9718204   6.3166607
  61.9440508  21.7202306  62.3810482  61.0180569  21.6061878  62.1671438
  62.4050379  21.1620641  61.7548132  49.5863285  12.7141433  14.8030270
  49.0809240  13.1203418  15.5071629  50.2428236  12.1837525  15.2546108
  16.6449680   5.7419686  14.0239227  15.8298673   5.3481059  14.3349064
  17.3099889   5.4339366  14.6396339  66.6298882  67.9257033  33.2287586
  65.7694594  68.3446930  33.2102478  66.9788186  68.0561373  32.3470104
  16.9184587  21.7202399  10.7553947  16.2446258  21.5134559  10.1077641
  16.4485500  22.1788547  11.4518822   7.2204453  27.0741034  45.2795219
   6.4528996  27.6218033  45.4442453   7.8430039  27.3224521  45.9628773
  15.0430640  61.2327056  65.9396791  15.6516751  61.6036408  65.3007507
  15.5373391  60.5296521  66.3611555  20.8688998  53.8077211  65.9270096
  21.2998724  53.0729961  65.4903460  20.6640506  53.4793043  66.8024540
  11.9485233  36.2986367   3.1167639  11.8632887  35.9906719   4.0190542
  12.2895954  37.1892319   3.1988705  51.1501932  41.1194420  63.9667606
  51.9345284  40.7081032  64.3298721  50.5687666  41.2319803  64.7187662
  41.6611624  27.6166701  50.1654053  42.2855234  27.6032710  50.8908176
  41.2712765  28.4901404  50.2010679  63.0709791  30.7687545  45.2541828
  62.6698160  31.1166334  44.4577646  62.4343443  30.9552884  45.9442091
   1.1989878  63.8168071  21.4698494   0.6287334  64.0560053  20.7392204
   1.8861101  63.2820056  21.0722530  33.7640858   7.6573974  22.2953176
  34.1544580   8.2019341  21.6117072  34.5123553   7.2688222  22.7484560
  42.5874996  28.8467216  53.7069893  42.1934271  29.3543124  54.4164181
  42.1053123  28.0198455  53.7076044  21.1079097  22.7074552  58.5161543
  21.7612386  23.3643007  58.2754278  20.3804827  23.2142258  58.8770723
   5.5704973  46.9903324   7.3532713   5.8400200  46.1179117   7.0660961
   5.5924843  47.5218550   6.5575159  16.4136686  24.5770078   6.5428293
  17.3347272  24.6625524   6.7889202  15.9561719  24.4375615   7.3719776
  59.2713690  32.9901075  53.1956720  58.6418819  32.5720167  53.7831879
  59.7424364  33.6106586  53.7517691  65.8407116  35.2113509  40.3022814
  66.5375042  35.7904291  39.9934411  65.7738304  34.5359445  39.6273112
  62.3307411  59.6685908  32.4377049  62.4889390  60.4121659  33.0193413
  62.3271147  58.9072416  33.0178440  23.5576715  38.0732160   9.0446890
  22.8922405  38.3316569   9.6823681  23.2184782  37.2657447   8.6584604
  69.3802691  12.8633761  49.1035223  68.6060333  13.3484650  49.3889856
  70.0997305  13.2415736  49.6090651  12.3083939  13.7068038  26.2536324
  12.6358690  13.2505755  27.0287693  12.9508390  14.3980222  26.0932816
  61.3430087  51.3926218  15.5447090  61.9708268  51.4920280  14.8290337
  60.4869000  51.4876137  15.1272285   3.6484001  46.2260584  47.1471775
   4.1768597  46.4226309  47.9206837   3.6289213  47.0470683  46.6554535
  77.0570596  16.6455846  18.1601990  76.2271698  16.8826156  18.5741222
  77.5743802  17.4506431  18.1825054  68.7098877  70.0460098   8.7812365
  69.2250435  70.4678319   9.4689215  68.0446092  70.6938050   8.5488689
  35.1976967  67.1284199  63.0679560  34.4174957  67.5921965  62.7639341
  35.1151848  67.1203947  64.0215588  76.2829391  63.7183616   0.7907284
  76.6241733  64.2378638   0.0627792  76.0928098  62.8627751   0.4059542
  71.4956609  39.0490246  42.0233715  72.4014656  39.3295411  41.8927753
  71.1403982  39.6734101  42.6559532  61.8773460  40.3665066  58.7202692
  61.1478376  40.2691126  59.3322897  61.8472147  39.5744085  58.1837082
  78.5156679  17.8076041  38.0500865  79.0710354  18.4693217  38.4623122
  78.6683226  17.0137286  38.5626197  39.9896993  50.5459504   9.5096815
  39.1685714  50.5240827   9.0182531  39.7685422  50.1715093  10.3623951
  66.3936472  25.3960085  65.2468586  65.7174063  25.9273601  65.6670952
  66.3501740  25.6403565  64.3223953  26.1541786   6.6076331   8.6995209
  25.7417574   7.0268922   9.4547499  26.6577234   5.8841090   9.0725983
  73.8472644  74.1679905  20.2695644  73.5176460  74.5640300  21.0762394
  73.0701677  74.0587948  19.7214401  45.1798487  35.5885625  56.7171907
  44.5654821  34.8816967  56.9149876  44.7254658  36.1263609  56.0687017
  30.4771461  10.9940343   5.6386841  30.5660476  11.9446425   5.5703486
  31.1326351  10.7382064   6.2876213  65.8615017  25.3156877  55.9271479
  66.4162683  26.0097694  56.2831163  65.7488489  25.5481195  55.0054550
  51.2004423  22.8819871  64.7258425  50.7741737  23.6204982  64.2909575
  51.7327118  23.2832932  65.4127789  42.4855461  18.2272391   7.0066393
  41.8078651  18.3542733   7.6705969  43.2764663  18.0264859   7.5070227
  50.8155537  46.9435787  58.4885740  49.9951506  46.6333008  58.1052971
  51.0877705  46.2379599  59.0752840  33.7864580  11.1628156   6.5541304
  33.3479013  11.4344506   7.3604286  33.5170927  10.2527432   6.4298761
  36.1670804  12.4027383  47.9923677  36.9913411  12.7351582  47.6369476
  35.8576345  13.0993688  48.5713148  22.2490499  67.4013589  -0.2164804
  21.2946413  67.4237988  -0.2859795  22.4179218  67.2445343   0.7125652
  22.4390592  17.2815089   9.7107351  22.6228752  18.1946521   9.9312294
  22.5899257  16.8032079  10.5260265  58.1709909  41.0304785  59.5402861
  57.9445887  41.7167902  60.1679420  57.4087620  40.4515171  59.5331478
  32.3077049  11.5385776  27.7454269  31.8287172  12.2539334  28.1638325
  33.1510629  11.9228320  27.5059879  58.6666536  37.6589632  59.5321512
  58.5082531  38.1555176  60.3350067  57.7924633  37.4681759  59.1921186
  24.9908628  12.2650628  23.4522999  25.7873716  11.8200307  23.1629169
  24.3372764  11.5686898  23.5165298  81.3342476  61.6966629  55.7756662
  80.4334068  61.7283773  56.0977221  81.2730217  61.9829559  54.8643398
  20.2585361  52.5967643  11.3288248  21.0642622  53.0964635  11.1971653
  19.6822641  53.1931172  11.8068493   5.4030559  71.0677884  39.0972984
   5.0318430  70.3189275  38.6307800   5.8946226  70.6794117  39.8210037
  65.4903277  16.6518788  21.5476311  65.7997795  16.6039376  22.4521626
  65.8536943  15.8717923  21.1285198  13.0375193  75.0051592  50.2617443
  13.8885591  74.9136970  50.6902302  12.5069569  74.2984793  50.6296337
  29.6678819  28.0616813  13.1508911  30.0490226  27.4886088  13.8161362
  29.8473968  28.9473777  13.4664000  22.5654735  15.0683932  47.5699318
  22.3345079  14.1423373  47.4970329  22.7928104  15.3295140  46.6775406
  43.8701105  30.5998635  66.3580084  44.0326881  30.4509568  65.4265451
  43.0931425  31.1585212  66.3792181  49.9802436  26.4850860  15.3014362
  49.4168033  25.7223802  15.4319752  50.8177127  26.1184554  15.0177849
  20.7922934  65.3170440   5.0962532  20.2067659  64.6404050   5.4361809
  20.9936331  65.0336073   4.2044247  76.7212423  29.3095307  18.1969727
  77.3282774  29.5733075  17.5054825  76.7120441  30.0503640  18.8030422
  40.3668833  -0.0257122  63.7204599  40.9369755   0.7404309  63.6552572
  40.3340483  -0.3762744  62.8303719  59.5884323  19.1320777  43.2252407
  59.1157341  19.7143352  42.6304579  58.9729977  18.9687884  43.9399529
  24.4212816  63.8290570   6.9026983  23.8400886  64.4267819   7.3729885
  23.9127205  63.5501073   6.1412609  45.3290129  37.2446728  61.8120337
  45.4915380  36.7189956  61.0287809  45.0158167  36.6155910  62.4619532
  29.9357881   6.7748027  45.0549400  30.4512825   6.0054736  44.8128021
  29.5122137   7.0453839  44.2403210  73.3550024  57.4166059  56.3315439
  73.8441515  58.2190561  56.1497688  73.8508463  56.9864702  57.0282173
  77.1053497  75.3449152  10.7529438  76.9284479  74.7742079  10.0051296
  78.0525676  75.4811070  10.7315100   6.5296473  25.4415088  28.6942471
   6.7855515  26.3475661  28.5215939   6.8301978  25.2737861  29.5874298
  71.5875522  74.7200654  27.5273979  71.0536615  75.3135035  28.0556191
  72.3176901  74.4820259  28.0987728  68.7778701  45.3189187  12.4308813
  68.9535942  45.4170518  13.3666790  68.5772743  46.2053876  12.1306026
  43.9746704  26.3159995  18.1926907  44.4363298  25.9232860  17.4518192
  44.6580734  26.4747624  18.8438309  21.5072765  41.9941621   9.4046104
  21.3273849  42.9087167   9.6224773  21.3255539  41.5151267  10.2131451
  39.5866766  10.4169183  14.5765198  40.3396167   9.8276954  14.5303524
  39.4617691  10.7169394  13.6761749  35.0818004   3.3482604  11.8351591
  34.3454876   2.9925446  12.3326862  34.7610654   3.3971124  10.9346188
  38.5377453  40.0440080  26.3369740  38.2871769  39.2671449  26.8369091
  38.9271210  40.6307545  26.9853199   3.9197634  56.2201116   5.1616228
   3.1178806  56.6294990   5.4866112   3.7083815  55.2880428   5.1087320
  25.7488527  18.4716182   9.1213167  25.3395929  19.3234448   8.9692390
  25.5088892  18.2477241  10.0204981  30.8189106  20.9101176  60.0967836
  31.2134695  20.3799915  59.4043112  31.2289381  21.7699742  60.0032187
  65.3745453  53.7411831  48.3900822  65.7778851  52.8795240  48.4953964
  64.9814502  53.7166140  47.5176704  47.5800610  36.3349438  57.5361395
  47.3509121  37.2603965  57.4509430  46.8028164  35.8667088  57.2313738
  14.1392936  14.2960315   0.2598322  13.9182224  14.0775685   1.1651695
  14.9806490  13.8655190   0.1081598  57.6832724  23.5223007  51.5971518
  57.1801567  24.2043257  51.1522388  57.0326090  23.0372643  52.1047020
   6.5316810  56.1735635  12.4486292   6.4005627  55.8252435  11.5667475
   7.4789419  56.2901311  12.5217140  24.9676092  70.4490506  58.0240393
  24.2569598  70.4928314  58.6637974  25.5555685  69.7750097  58.3649206
   5.8235612  12.2951894   8.5409916   5.7607379  12.7811341   7.7187145
   5.7447710  12.9640965   9.2211283  64.7409439  56.5777636  65.3581619
  63.9408302  56.8358803  64.9005318  64.5337248  56.6916990  66.2856913
  13.6746643  68.9734743  17.2061623  13.1821630  68.5992382  17.9366577
  13.0032967  69.2949174  16.6043556  35.3701105  21.7080073   8.1012333
  35.4382839  20.7808690   8.3292711  34.8140993  21.7227941   7.3222149
  13.1421890  19.0169005   3.3363283  13.8735427  19.2793994   2.7773655
  13.2591762  18.0745749   3.4570206  27.4436273  20.7018380   0.8133495
  27.6542654  21.6324906   0.7375134  26.6055097  20.6082873   0.3605450
  19.6417036   9.3635612  15.0200737  18.7237968   9.4106917  15.2873695
  19.8960914  10.2749019  14.8752392  32.6717271  31.1120133   6.8064774
  33.6072864  31.2943034   6.8943775  32.2477808  31.7573457   7.3722065
  50.3612328  20.9311152  63.2921076  49.4621134  21.2593675  63.2838011
  50.8481359  21.5792584  63.8010931  76.5189409  22.1157169  56.0948849
  76.7964172  21.5686345  56.8296909  75.9906530  21.5334654  55.5488777
  65.8093993  74.5838807  41.1344517  65.0614111  75.1534555  41.3142670
  65.5292074  73.7189243  41.4337338  64.1902773  40.4680560  12.4890793
  63.2657878  40.5561508  12.2571552  64.2737524  40.9331594  13.3215130
  28.6187448   5.6076579  31.5737713  29.1202154   6.4103656  31.7166889
  28.8554802   5.0431399  32.3096455  12.2724015  25.3200579  46.5473795
  13.1964260  25.1333475  46.7133427  12.1607357  25.1620317  45.6099415
   9.7645948  67.8090427   3.0240810   9.4803331  66.9547794   3.3491409
   9.6751497  67.7453587   2.0732010  34.7438000  72.2205541  29.0125454
  35.4583500  71.7731974  28.5592068  33.9483688  71.8440602  28.6360252
  52.1787127  61.3348382  10.6019390  52.0567997  60.3971868  10.7508647
  52.0385607  61.4482575   9.6618724   9.8641505  27.6266007  16.1091793
  10.1972618  26.7308383  16.0555637  10.3373899  28.0144649  16.8452728
  79.0590135  66.3368175  15.4462994  78.3798401  65.6763075  15.3096092
  79.8317472  65.8354733  15.7066334   7.2212837  72.9054806  16.1527145
   8.0807970  73.1984470  16.4554394   7.0505617  72.1072481  16.6526306
  15.6816949  10.8205323  10.1179684  15.5730428  10.6535106   9.1817368
  14.9423923  10.3721719  10.5286301  40.1251211   2.5846724  15.2536190
  39.3981256   2.7852445  14.6641434  40.7887497   2.1881537  14.6891678
  61.1918306   8.1863165  66.0022831  61.2181568   8.6463171  65.1632690
  60.6351995   8.7323749  66.5574503  53.2445717  16.4164293  52.8524065
  53.3353376  16.6312850  51.9240570  52.3704767  16.7287445  53.0861807
  39.1885938  22.7139287  29.4600571  38.2641544  22.4677806  29.4924534
  39.6008052  22.1873384  30.1449001  68.6390305  51.1206341  64.7765064
  68.7448549  50.1693630  64.7871637  67.8039312  51.2637472  64.3311310
  44.7112672  56.8315039  20.9448231  44.1764645  57.4584244  21.4318359
  44.1724340  56.5918682  20.1908577  71.5358257  49.9905825  62.5874424
  71.9304228  50.5066299  63.2904530  71.2886810  50.6366348  61.9258070
  42.7865543  18.5033898  36.8596352  42.1735706  18.5609202  37.5925530
  42.7022209  19.3443446  36.4102829  48.3410549  54.1165972  57.3534393
  48.1525707  55.0331879  57.5548601  48.3984995  53.6903667  58.2085752
  69.0501062  76.4474771  24.0519798  69.7841684  75.9340093  24.3892372
  69.0667144  76.2969301  23.1068409  58.5977983  36.8433857  55.1076174
  58.5600996  37.0205069  56.0475349  58.2148123  35.9712934  55.0126839
  78.3673700   8.0165486  28.0489243  77.6465591   8.4571986  27.5989330
  79.0856679   8.6488442  28.0269802  77.6025009  35.4682326  58.9702368
  76.8419456  35.7187462  59.4946718  78.3526039  35.6363392  59.5406008
  38.3114624   6.5590715  54.8110104  38.3375192   7.0056242  55.6572628
  37.4183440   6.2209111  54.7460365  23.2871427  37.5069671  24.6355904
  24.1464605  37.7549510  24.2945469  23.2656946  36.5529876  24.5601166
  60.2247524  27.2755361  53.8199520  60.0078297  26.8732214  52.9789305
  59.8438740  26.6874433  54.4721127  12.7703228   7.4286323  14.1096771
  12.3826279   7.5633292  14.9744213  12.0272150   7.4568706  13.5069979
  56.3114237   9.5969110  17.0030106  56.7664771   8.7660985  17.1405304
  55.7010924   9.4200711  16.2871540   0.5011954  29.8722844  20.1715744
   0.7967629  29.0551667  20.5730618  -0.3931652  29.9871593  20.4927528
  19.1203394  40.2381330  10.7767427  18.8839235  40.9287839  10.1575935
  18.4498443  39.5662074  10.6535280  13.1751782   2.5661385  64.1854048
  13.9580208   2.5192112  63.6366081  13.2447773   3.4108508  64.6302080
  79.7198049   2.5394065  64.5802069  79.0718261   2.9717118  65.1364994
  80.1068870   3.2490117  64.0675116  22.5374021  11.7938094  -0.0488483
  22.9177751  12.6629405   0.0782717  22.9859724  11.2402205   0.5903376
  37.4746313   7.5565534   5.4520023  37.0191183   6.7553716   5.7105482
  37.3475875   8.1530242   6.1897839  65.3941822  44.7713423  49.8837996
  65.1298904  45.2591991  49.1038084  65.4928112  43.8690281  49.5799398
  69.7741747  55.2374601  65.1627779  69.9570847  55.4736996  66.0721540
  69.8062515  56.0682249  64.6884012  54.2615928  32.4804263   9.6411407
  54.0690555  31.9028382  10.3797567  55.1839389  32.7112727   9.7516954
  67.2603647  43.2201166  16.5059841  67.2173397  44.1713373  16.4082134
  67.3878280  43.0813275  17.4444473  78.8612127   8.7642461  54.5656633
  78.4478235   8.1922936  53.9189720  78.1363678   9.0768206  55.1070786
  67.1229219  33.7626100  52.3414612  67.2717571  34.6443486  51.9999647
  66.9793320  33.8900280  53.2792139  29.6803560  24.0824466  19.8020447
  29.8806705  24.9759774  20.0808037  30.3181543  23.8979917  19.1125286
  13.2887497   5.1791673  26.5101326  14.1159048   5.5602460  26.2154758
  13.1601944   5.5360847  27.3889435  19.9902286  28.6124043  32.6258457
  19.6079340  29.2601399  32.0338047  20.7993354  28.3402209  32.1928394
   7.3860302  18.1682210  19.4965160   7.1772399  18.6967282  20.2667892
   6.7304339  17.4707847  19.4997108  57.9062335  55.0141309  28.9075363
  58.2362692  54.1661344  28.6105335  57.0466272  55.0946865  28.4942329
  30.9740295   6.0490947  15.7203472  31.3919534   6.5899281  16.3904655
  31.0395660   5.1559072  16.0582150  12.2824142  71.7814920  27.2669781
  13.0375383  71.1960600  27.2095955  12.0491693  71.9615219  26.3562573
  78.7793239  17.6636844   8.8917339  77.8790720  17.3513083   8.8011587
  78.8144191  18.4531026   8.3515347  14.5087947  36.6237740  12.5972975
  14.1252126  35.7954745  12.3091591  13.9618339  36.8977504  13.3335054
  75.8241081  33.5285401  49.4677782  76.5226364  32.9281378  49.2073774
  75.0270081  33.0000234  49.4285679  21.3178815   3.8161950  17.2205532
  21.9410219   4.5180898  17.0327366  21.4154329   3.2071118  16.4886082
  29.0417671  68.6712360  53.9221334  29.0606523  69.4771671  53.4060431
  29.2439508  67.9789877  53.2927322  65.6464624  21.9227815  63.1633425
  66.2316322  22.4941444  62.6659918  65.3854036  21.2456203  62.5392151
  62.2201101  43.8581107  19.7419441  62.6262013  44.3610797  19.0360058
  61.8911759  43.0675043  19.3141830  43.2175769   2.3624902  22.8618706
  42.9099598   1.5568953  23.2773483  44.1594305   2.2311835  22.7528084
  52.1136999  31.0078788  41.7240191  51.9406843  31.4765549  40.9075356
  52.3849154  30.1332474  41.4452791  47.2565498  17.7433972   6.1809910
  48.1729116  17.4819093   6.0907639  46.9851055  17.9753404   5.2928770
  67.7428961  22.7290106  55.0213432  67.0959425  23.1973743  55.5489063
  67.3563623  21.8648076  54.8799992  51.2917089  18.7414384  61.8663883
  50.7963896  19.4090390  62.3409414  51.0625172  17.9195738  62.3002577
  15.6140439  70.6543441  66.4527294  16.4462439  71.1242123  66.3988672
  14.9549071  71.3066573  66.2155493  78.2804728  25.6016445  58.1576300
  79.0202665  25.4487514  58.7454796  77.6441050  26.0766912  58.6920404
   9.8750780  60.5780432  33.5032833   9.1878794  59.9187324  33.4068478
  10.6919811  60.0880120  33.4096420  22.8483429  10.2419000  23.2483757
  22.7558794   9.7621970  22.4252308  21.9523372  10.4742722  23.4921253
  54.8592510   2.3587899  -0.0455820  55.4750194   2.9608541  -0.4634058
  54.9245014   2.5592332   0.8881176  40.6746578  29.0163875  56.3315487
  39.8296905  29.2009187  56.7416811  41.0451269  29.8795700  56.1474419
  27.1175422  16.0463433  13.7655724  26.3849344  15.6402497  14.2288292
  27.5477113  15.3200345  13.3142841  21.5781774   6.6864924   6.8495691
  21.2077322   6.5010600   5.9866560  21.8133726   7.6137071   6.8150318
  58.4355831   7.8493363  57.6197100  57.6949739   7.2453463  57.5656509
  59.0994310   7.4662310  57.0463276  26.3343571  54.0797744  14.1313065
  26.6147945  53.3452258  13.5853851  26.1523483  53.6876807  14.9853313
  43.2606268  66.9772625  61.8256950  42.9338741  67.3670053  61.0147905
  42.6424885  66.2723589  62.0186996  17.8148927   3.6338859  19.4359291
  18.1935205   4.5099072  19.5097626  18.4231939   3.0690913  19.9125946
  52.9715586  29.0091085  62.0868778  52.8706884  28.6650848  61.1993504
  53.9166212  29.0064836  62.2388029  73.9204637  66.7681930   2.6624907
  74.1602890  66.2533067   3.4329498  73.2199709  67.3445080   2.9681147
  70.0417566  21.1801410  49.0318394  70.6351709  21.5803885  48.3963108
  70.0667095  20.2454066  48.8271904  20.0208845  17.2401481  17.6464546
  20.8405819  17.1930222  18.1384933  19.6928014  16.3409476  17.6409519
  26.0301445  66.4308999  24.2000378  26.2759445  67.3052333  24.5022858
  26.6277931  66.2515996  23.4741581   2.5995062  74.0496443  36.4557255
   2.5372217  74.1833494  37.4014938   2.0948074  73.2528112  36.2927330
  54.4633150  39.4201255  54.3056631  55.2008772  39.7602773  54.8121548
  53.8483429  40.1520252  54.2570162  78.5810804  43.7183428  60.1015186
  79.4791222  43.8616896  59.8028469  78.4444904  44.3824720  60.7771730
  60.8340263  26.8744516  46.3623714  60.8640385  27.8235531  46.2418175
  61.7101097  26.6445136  46.6719437   2.4053444  17.8879933  11.3626421
   1.7989816  18.0971389  10.6521404   2.0183363  17.1243625  11.7908133
  40.0128259  12.6656919  17.3497093  39.4582977  13.4238486  17.5338924
  39.6376552  11.9606976  17.8774155  72.6596785  17.6143515  34.7717452
  73.0519056  18.1085920  34.0519452  72.7930260  16.6970325  34.5330524
  74.4222681  73.4545348   8.1316031  73.6269228  73.7158988   8.5956562
  74.7012226  74.2454407   7.6702154  40.0454903  24.3071103  52.7462530
  39.8018217  24.0198946  51.8662691  39.5442080  23.7388325  53.3310652
  28.8674076  73.4771361  65.7630157  29.7828253  73.6249073  66.0005283
  28.5923823  74.2950981  65.3488541  72.9440061  74.9804280   1.1693705
  73.2449190  75.7960460   0.7688034  71.9918386  75.0038765   1.0741747
  42.8388490   3.9621215   6.7966927  43.6769189   3.5548787   7.0158422
  42.5411834   4.3542533   7.6175821  22.8521957  13.1901460   3.2663000
  23.3472147  13.8466029   3.7564552  23.3260049  13.1010489   2.4393833
  78.6885254  60.9189508  23.1040371  77.9609052  60.8145735  22.4909199
  78.2785455  61.2279914  23.9118946  60.7737674   2.9201465   0.8667887
  60.4432716   3.7376170   1.2392700  60.9519233   2.3656135   1.6263855
  55.4741192  27.2289062  51.6603851  55.7473278  26.8080807  52.4755478
  56.2121582  27.7895474  51.4212036  25.6948080  12.0754104  -0.3520882
  25.9236707  12.9417186  -0.0153839  25.4548683  11.5718274   0.4257715
  45.5298718  76.2256769  63.4767485  45.8697470  75.8639076  64.2951870
  45.1776846  75.4688449  63.0083418  53.8258521  61.3550208   4.5259178
  52.9289834  61.3068125   4.1949595  54.3555824  60.9435699   3.8430346
  10.7164135   7.7591424  12.1908987  10.7122507   8.6876683  11.9584120
  10.2990379   7.3241954  11.4473570  71.0294151  49.3609190  47.1584034
  70.5431652  49.0844774  47.9351711  71.6268682  48.6349344  46.9788837
  79.7002594  48.6751936  30.0421131  79.3936721  49.3018887  30.6974686
  78.9741794  48.0596844  29.9412048  79.0932647  60.8417533  39.6485413
  79.3563310  60.3599284  38.8644112  79.8485796  61.3918040  39.8563278
   4.6253639  37.3651195  45.2584887   5.3575760  37.9383326  45.0314951
   4.9791676  36.7776823  45.9263039   8.3545206  34.6793527   2.6251877
   9.2430685  34.4867963   2.3258007   8.4005306  35.5789755   2.9489077
  58.6490774  55.4341221  64.9247408  59.1131163  54.6146917  64.7531700
  58.2455683  55.3056669  65.7831764  70.9313812   2.6594262  26.9056500
  71.7806091   2.6878505  27.3463810  71.0393085   3.2250600  26.1410320
  72.2495747  51.1648655  66.2967587  73.1791687  50.9368229  66.3061714
  72.2356987  52.1065855  66.1258650  21.5576005  31.4667034  65.9392118
  20.6534910  31.6367459  65.6748104  21.5104890  31.3417459  66.8870497
  57.3604965  35.4875731  52.3778963  56.8070507  34.8130465  52.7715254
  57.9998446  34.9998665  51.8586540  61.8549824  26.9032860  60.9633827
  61.5501595  27.7075338  61.3835001  61.7287779  26.2242126  61.6260767
  44.5859003  19.5245457  59.8268843  43.7316895  19.8870635  59.5920801
  45.0950384  19.5675623  59.0174627  54.1806459  21.1074924  46.5955400
  55.0747824  20.8751321  46.3450146  54.2657614  21.4716721  47.4766541
   5.2412468  30.7681918  58.6009073   4.5809704  30.4302907  57.9958534
   5.6531197  29.9856901  58.9673519   7.9243428  31.9435620  64.7471952
   8.4399945  32.0917344  65.5398989   8.5036713  31.4401031  64.1752386
  38.8043690  17.9818058  60.9909582  38.5751033  17.0623565  61.1261606
  38.2251763  18.4625304  61.5822887  17.0992563  75.8628319   2.7349985
  17.8534792  76.2643764   2.3035610  16.9042967  76.4461468   3.4684599
  33.8304901  58.0568361  59.6766949  34.4291735  58.4526157  60.3100729
  33.4224677  57.3333836  60.1524687   7.8405760  66.4875982   7.3586977
   6.9543884  66.4074157   7.7115095   7.8857801  67.3840425   7.0261658
   2.1914432  41.1170027   5.6615437   2.0926092  41.3004906   6.5957773
   2.9072569  41.6867063   5.3799761   7.4464224  57.2063956  19.6526707
   7.6477144  58.0502746  20.0571239   8.2725523  56.7237900  19.6816242
  61.5947151  32.5137806  55.1963568  61.4705038  31.7798710  54.5945454
  62.4716520  32.8414464  54.9967289  10.5638518   3.0686336   2.3902977
  11.2415685   3.7445931   2.3874939  10.0551285   3.2362227   1.5969837
  15.0404396  29.7475247  31.0027206  15.5892219  30.5302672  31.0514915
  15.0815382  29.3710332  31.8818081   5.6459568  59.9078295  22.8319443
   4.7186563  59.9213145  22.5949467   6.0118387  60.6862924  22.4119938
  61.5082397  32.9843812  11.9716251  62.4127521  33.2931380  11.9190825
  61.0558548  33.6543469  12.4841917  75.6751537  51.1850882  57.0743465
  74.8214006  50.7618761  57.1650791  76.3017464  50.4615021  57.0684385
   3.3813435  42.3113966  26.7623377   3.9935833  41.8168497  27.3071384
   2.6030690  41.7563963  26.7123318  70.2619497  68.1229255  19.2425430
  71.1030428  68.1318853  19.6993912  70.4769460  67.8513501  18.3502090
  50.8314027  16.2229495   0.3425253  51.4312925  16.4706140   1.0461128
  50.4852333  17.0546775   0.0190628  80.7291031  70.0376034  31.4078712
  79.9830770  69.5217991  31.1018991  80.8434010  70.7132339  30.7395196
  42.2384071  57.6534319  27.4378324  42.1963978  56.7586946  27.1003222
  41.7329359  57.6269388  28.2502532  74.5762253  68.8120079  45.7597733
  75.3012466  68.2043409  45.9057617  74.2348766  68.5748720  44.8975182
  46.2608995   4.1381507  12.1164120  46.8949833   3.5689025  12.5524462
  46.7445077   4.9454122  11.9412506  79.2214870  49.2983246  54.0490389
  78.4522104  49.8357677  54.2377281  78.8838625  48.4036970  54.0057039
   7.3565918  49.0698576  31.2325335   7.0875984  48.2734394  30.7747221
   7.6610237  49.6540833  30.5381060  64.0286674  25.5328565   3.5921467
  64.5646705  25.3642182   2.8172339  64.4705333  26.2566476   4.0361250
  21.6979780  38.1346517  20.2012051  22.0075407  38.2074981  19.2983807
  22.4971094  38.1187682  20.7278717  45.5828418  27.2190385  20.1535023
  45.8473291  28.0444198  19.7472752  45.4056491  27.4472051  21.0660732
  69.1421262  19.2953498  60.6862545  70.0714628  19.2998130  60.4570150
  69.1274778  19.4542415  61.6300583   6.6438919  36.4579701  41.9713831
   6.8024403  35.9319615  42.7552271   7.5161701  36.7258906  41.6822529
  73.1222677  37.5781441  55.8414650  73.1395721  36.8689346  55.1988506
  72.5772667  38.2537174  55.4379702  47.9944944  33.6745834  55.6620264
  48.7094831  33.1112576  55.9581470  47.9827261  34.3967962  56.2901163
  55.5544043  37.9317045  64.3906164  55.6241941  37.3723006  65.1641989
  56.3173103  38.5075402  64.4418335  26.5663314  19.9528694  27.8937769
  26.0405755  20.5899119  27.4100518  26.0152650  19.1714358  27.9375648
  64.3622627  44.7385793  24.2781818  64.2302646  45.6806569  24.3844784
  63.6286392  44.4539170  23.7332142   4.1999775  58.3589029  36.7807627
   4.3669468  57.4179792  36.7258096   4.4626194  58.6991167  35.9254837
  47.5349091   3.1320293  54.1495037  48.0901955   3.8124950  54.5300865
  48.1252525   2.6251657  53.5920000  80.6480018  68.4265731  12.0665634
  80.5594913  69.2329810  11.5585220  81.4528457  68.5479520  12.5702751
   4.9011228  10.1247890  35.3811359   5.7061718  10.5356509  35.6962967
   4.7518347   9.3966586  35.9842682  30.9877346  20.6693465  55.3173065
  30.5942009  19.8028285  55.4198885  30.2474926  21.2748725  55.3575802
  57.3719158  15.4091744  12.0102776  57.6089706  14.7511249  11.3568199
  57.5845279  16.2454991  11.5960444  20.5372562  32.8835778   5.0852955
  20.4871645  33.6365943   5.6740988  19.8124303  33.0097060   4.4729603
  20.7142303  75.0323174  23.6889637  19.7662304  74.9560879  23.5806931
  21.0560177  74.1820643  23.4124077   7.4633183  24.8587184   2.0125139
   6.8291297  24.7385888   2.7193392   7.0344963  24.4892459   1.2406147
  43.3569668  14.7051627  54.5789480  43.2379482  15.2239330  55.3745222
  43.5626648  13.8254363  54.8951960  28.8197984  14.5700746  21.3541210
  29.0595617  13.6582618  21.5194881  28.0871477  14.7364240  21.9472302
  64.7114563  30.1744246  56.9028187  63.8877630  29.9393368  56.4756250
  65.2099991  29.3576813  56.9276810  40.7753134  62.7716160  55.3899717
  41.7046309  62.5423717  55.3968906  40.7645798  63.7259674  55.3169870
  70.2833414  43.3069849  54.0881968  71.0973835  43.3609819  53.5875416
  69.5928240  43.4276438  53.4363890  79.3263531  71.0287285  34.3129158
  79.1723251  71.2358904  33.3911824  79.4923162  70.0860691  34.3220425
  23.0492495  62.2520588  21.2127865  22.8201673  62.4779914  20.3112877
  23.5246323  63.0166147  21.5379036  33.4211530   0.8269982  10.7333792
  32.8492632   0.0916319  10.5133427  32.8936281   1.6041594  10.5490721
  75.8099403  21.0273318   8.5084618  75.1114120  20.7919698   7.8978098
  75.6853523  20.4390101   9.2531670  58.3270462  75.9330571  36.0421371
  58.1191643  76.0207288  36.9723678  58.0493363  76.7634277  35.6553626
  13.2441384  53.5299158  45.8164120  13.9287621  52.9142570  46.0781145
  13.3827072  53.6574554  44.8779202  47.8992643  25.6059556  19.9757565
  48.2648506  25.0907140  20.6948555  46.9547119  25.5968003  20.1305855
  34.4481983  16.2607436   0.8313358  35.1564207  15.9030490   1.3667906
  33.7599601  16.4794831   1.4595974  71.8049622  34.5220017  48.5788012
  72.4396038  34.0147018  49.0848732  70.9624767  34.3314338  48.9912748
   7.7507009  26.6651063   7.9299963   8.1332817  26.6430812   7.0528543
   7.2131600  27.4570851   7.9370249  38.1692495  30.4015355  14.9013603
  38.9829769  29.9036889  14.9802292  37.4780073  29.7427707  14.9680317
  15.8400104  66.0429142   1.9105661  16.6363857  65.6693218   2.2879923
  15.2143667  65.3184984   1.9061888  76.4412069  33.2918787  61.1575747
  77.1652985  33.8213277  61.4916515  75.9625435  33.8812780  60.5747175
  10.8878849  19.8797805  56.0604334  10.0463055  19.8863513  56.5164328
  10.6887196  20.2124793  55.1852942  29.4498481  17.2799544  13.4402597
  29.4380226  17.5748973  12.5297106  28.6728897  16.7270379  13.5230339
  41.6007700  36.4139657  10.6169022  40.9364261  36.4411406   9.9283255
  42.1574535  35.6711106  10.3834379  43.4663429  23.9922624   1.0897768
  43.4584608  23.5785394   1.9529140  42.5503530  23.9844279   0.8120430
  62.5136604  41.1369376   2.1046818  62.1283283  40.4259925   2.6168335
  61.9532909  41.8920522   2.2836340  78.9984361  76.2043021  25.0622738
  78.7390224  75.4670189  24.5096863  79.2213575  75.8061693  25.9037102
  81.1447811  44.2468262  36.4058328  81.2548256  44.7262478  35.5846882
  81.3824463  44.8777914  37.0852661  20.4699514  61.2344477  34.3632305
  19.8128889  60.8059476  33.8146961  20.9513376  60.5129669  34.7681606
  11.7827183  62.6290846  64.8190975  11.1237198  63.3174944  64.9088192
  11.3552243  61.9558144  64.2897701  75.3367758  47.1051073  65.1005077
  75.4362965  47.4194860  65.9991121  74.9983263  46.2146711  65.1943827
  71.8899393  50.2446795  55.1906347  71.3471127  51.0329962  55.2020454
  71.2734127  49.5272064  55.3367901  80.2317276  17.1074252   0.8224714
  79.3425502  16.8408303   0.5889595  80.1113929  17.8467803   1.4183748
  71.5430069  66.3564873  43.4664583  70.8647728  67.0278168  43.3919621
  71.4696455  66.0408163  44.3671274  15.0804478  71.3153124  33.1960011
  15.8576065  71.4461946  32.6527429  14.3528897  71.6098166  32.6481485
   4.7127396  56.0151434  48.1560087   5.2297360  56.6822577  47.7044439
   5.3627449  55.4139137  48.5196733  61.5484180  31.1926370   8.8311613
  61.7339744  31.7702966   8.0908144  62.3728695  31.1520390   9.3157852
  61.0570184  62.1621177  20.0091255  61.3134710  61.4143465  20.5488575
  60.1287166  62.0178721  19.8256004  65.6254005  57.6681423  35.7118845
  65.2660370  58.0502415  36.5125632  65.6884336  56.7318583  35.9006524
  10.8948960  22.9472928  37.2150124  10.5237856  23.4335999  37.9512299
  11.2948050  22.1751838  37.6152123  61.5090466  31.5550065  47.3123169
  61.5966082  31.0049129  48.0907536  61.1057281  32.3616147  47.6331711
  37.9554357   2.6462607  10.8027304  37.1026697   2.2315412  10.6722534
  38.2336654   2.9035048   9.9237240   2.3555523  31.6241288  59.4036102
   2.5227219  31.1786962  58.5730219   1.4329010  31.8750954  59.3593502
  39.1175507   1.6117294  42.1803045  38.2102249   1.8817527  42.0386410
  39.1244648   1.2510926  43.0669451  28.9835014  20.1427798   3.5484350
  28.3358993  20.8465056   3.5886324  29.4661083  20.3073935   2.7383602
  60.3610752  70.4250787   2.5253857  61.0912750  70.2243469   3.1108320
  60.7725666  70.8157609   1.7544926  32.9807327  16.3483436  43.0297518
  33.2023762  17.2477252  42.7884579  33.5272358  16.1636836  43.7935972
  70.7320499  35.9590650  54.9379015  70.7128239  36.0648417  55.8890486
  70.1294470  36.6267920  54.6104288  12.1335083  50.3101540  64.6907949
  11.9881111  50.3041410  63.7447166  11.4556462  50.8925772  65.0335979
  29.3623247  13.2412200   4.5215738  29.1176500  14.1294007   4.2617596
  28.5280456  12.8001122   4.6816862  14.6928253  17.4417214   1.0302580
  15.2946891  18.1777768   0.9197319  14.9595728  16.8116240   0.3608835
  52.1400585  15.6960397  29.7694958  51.7093267  15.9838157  30.5744064
  52.0801582  14.7410302  29.7940624  31.6621103  23.5490184  31.0298622
  31.1498632  23.3402352  31.8110455  31.0893859  24.1147618  30.5120266
  24.2815342  10.9879451  41.2269199  24.0418424  10.0914626  41.4616478
  25.1775541  10.9178739  40.8975685  14.8664608  20.0866942  19.0218151
  14.2681112  19.3396001  19.0290916  14.4412269  20.7395511  19.5778645
  62.9161970  68.3709619  30.3825462  62.3056928  68.8258670  30.9626949
  63.3432356  67.7239845  30.9440506  34.9269523  40.0153880  30.1936520
  34.7487011  39.5194964  29.3945587  35.8167305  39.7620349  30.4392899
  26.3272228   1.8437104  30.6884754  25.7636394   2.1172433  31.4121998
  26.4092531   0.8958678  30.7938087  13.3117443  56.9659376  51.2797117
  13.3498722  57.0767593  52.2297144  14.0628201  57.4597406  50.9506416
  40.7017658  45.3380982   2.9099024  40.6517456  46.2937317   2.8876770
  40.6025360  45.1145218   3.8353193   2.9967362  50.8771038  59.7198105
   2.7166706  49.9912930  59.4893217   2.4932820  51.0906839  60.5053997
   7.4484815  33.1360965  16.9443119   8.2005252  32.6104026  17.2169006
   7.0630350  32.6446729  16.2189377  60.2829218  37.9495358  57.4704695
  60.5153465  37.0226240  57.4152756  59.7927999  38.0252242  58.2891798
  67.1879339  46.9485235  51.0109329  67.3561430  47.3957634  50.1815271
  66.6840935  46.1722136  50.7665586  43.2529010  34.4342856  10.0729740
  42.6179781  33.7492518   9.8636044  44.1010179  34.0514951   9.8484743
  55.7591762  20.7808404  24.8891724  55.6661071  19.9331050  25.3238190
  54.9158516  21.2130599  25.0241268  75.2853012  74.5963287  63.1689405
  76.0009623  74.0320158  63.4615374  75.7102299  75.2593756  62.6248455
   2.1036202  73.8252497  53.6411190   2.3801094  74.2617798  54.4468641
   2.5122505  72.9607534  53.6847305  41.2768410  11.0476978  34.3265939
  41.9823502  10.4338748  34.1223907  41.7032001  11.7459495  34.8234820
  21.7968597  40.6853156  34.1731728  22.5232973  40.4840236  34.7630871
  21.0537042  40.8462481  34.7545994  57.9967880  62.6621294  47.0639277
  58.1924963  63.2212305  46.3120413  58.8366985  62.5600290  47.5115395
  53.8990593  67.7785397  60.0747252  54.3072176  68.6443186  60.0828600
  52.9779291  67.9498291  59.8787403  47.4481726  20.8863759  55.2949095
  47.0992422  20.2676201  55.9364796  48.1017208  21.3907194  55.7794189
  39.1014908  15.0836189  43.5905457  40.0512932  15.0474460  43.7037325
  38.8150738  15.7735450  44.1890478  15.4451321  76.4865158  23.6296165
  14.9385641  76.2048695  24.3913830  15.0175331  76.0604046  22.8867710
  75.4726887  35.7929158  35.0088596  76.2307692  35.2881098  35.3033376
  75.3409910  36.4487147  35.6935596  65.4714108  68.7167931  61.3194609
  64.6533346  69.1369104  61.0539722  65.1978445  67.8918695  61.7205811
  53.6997928  26.7721515   9.3754709  53.5953178  27.2199874   8.5359753
  54.5078125  26.2681155   9.2791260  12.5186306  57.3571587  45.0219154
  13.4680611  57.4358463  44.9290895  12.3902470  57.0523262  45.9201479
  26.8158778  70.6190168  55.6184578  25.9752520  70.8211540  56.0292149
  27.3982724  70.4181372  56.3510513  37.5942220  12.3624997   1.5992296
  36.9237079  12.2574382   0.9242476  38.2174005  11.6559796   1.4297998
  51.5387726  68.8187456  57.4606991  51.7147207  68.1348944  58.1069374
  51.7970610  68.4304953  56.6247654  63.6766815  41.3154984  42.3488808
  63.2904005  41.9701719  42.9306269  64.3572140  41.7905903  41.8720198
  77.7238178  46.7885685  63.2742929  77.9329777  45.8632708  63.1465769
  76.8910837  46.7829609  63.7462616  39.8664083  32.2530513   0.2531660
  39.7941103  31.7848544  -0.5785763  38.9834346  32.5828891   0.4198874
   2.6731720  12.0879703  17.6709545   2.8425421  11.2078910  18.0071247
   3.5035171  12.3586087  17.2791470  42.6882448  52.0756917  16.0157002
  41.9193496  52.1471124  16.5813244  43.2907571  51.5117269  16.5006245
  66.3041925  33.7793326  57.9215336  66.4373493  32.8434634  57.7710295
  65.4892683  33.9822221  57.4622202  41.3786173   4.8508975  49.7710657
  42.1948576   4.9797156  49.2879629  41.2716722   5.6549287  50.2793264
  72.5663996  42.6983118  45.3295946  73.3479452  42.1660185  45.4782057
  72.2649717  42.9315805  46.2076378   2.7769754  10.6014640  65.0042915
   3.0686424  11.3034732  64.4226217   1.8983219  10.8658225  65.2769089
  18.9845504  16.5075641   2.5893915  18.4610881  16.4482360   3.3885801
  19.4757356  15.6864171   2.5632847  72.4879456  14.4709015  42.0265102
  71.9603157  13.6799812  41.9156599  73.1152344  14.2459953  42.7136421
  49.7615232  12.2807889   5.5332697  49.1118898  12.6661305   4.9452913
  49.2684784  12.0605855   6.3236177  48.6758659  29.9364860  40.5066872
  47.8914688  29.9254806  39.9582028  49.3748711  29.6258361  39.9312544
  64.4750595  72.6804447  56.2065220  65.0234604  72.0665216  56.6949797
  65.0915289  73.1746960  55.6662369  20.7848022  33.1311710  32.7531171
  20.4680441  33.4519107  33.5975266  21.3330172  33.8405807  32.4178052
  81.1112595  29.7723079  53.1458187  80.3895855  29.7422218  52.5177193
  81.3574696  28.8559365  53.2718325  11.1172539  75.0105476  48.4301758
  11.8995816  75.0558805  48.9798546  11.3554627  75.4868317  47.6347876
  25.0736521  69.9609230  17.4322308  24.1321228  70.0468419  17.2826565
  25.2391670  69.0194652  17.3823059  57.7920500  17.8886993  44.9404573
  57.3152153  17.3636729  44.2976427  57.8569118  17.3237521  45.7104254
  31.8895672  74.3946288  19.6931160  32.6475571  74.8036692  20.1107014
  31.3887642  74.0215824  20.4185570  78.8597242  54.0996108  15.8586681
  79.5646087  53.4624539  15.9744061  78.0844967  53.6667524  16.2162769
  20.9076967  17.9042249  28.1393898  21.5649547  18.3664136  27.6191700
  20.2832450  17.5709348  27.4950207  49.2511262   8.8956742   1.5375174
  48.3197155   9.0900235   1.6420925  49.6976080   9.6189122   1.9777573
   1.8131214  60.7389402  52.4437809   1.3572556  60.2060461  51.7922926
   2.7086407  60.4008961  52.4455690  28.9478435   2.5265794  31.5372170
  28.9966001   1.5712552  31.5719593  28.0649747   2.7098231  31.2159813
  49.6897783  12.5309949   1.6041792  48.9734211  12.7120881   2.2126759
  49.9758424  13.3947949   1.3071096  19.6214912  10.8168514  54.0033817
  20.1811884  10.0587566  53.8352585  18.7403438  10.4512984  54.0819645
  37.2296379  22.6692493  45.6316090  37.5812767  21.9947631  45.0505257
  36.7340420  23.2490260  45.0532770  65.8700466  43.5253429  56.9054604
  65.8880949  44.2340088  57.5486612  66.6097784  42.9666090  57.1438789
  29.3822239  25.2961547  31.4821672  29.2199467  25.6455905  30.6059313
  28.5459755  24.9119670  31.7454624  69.9556780  56.1121655  57.0155716
  70.1115084  57.0035124  57.3277473  70.3075790  55.5513334  57.7068472
  67.4030447  49.9690819  32.3037505  68.1309175  49.4201422  32.0120454
  67.7863789  50.5421877  32.9677057  30.3295849  18.6370761  49.9244976
  31.0570381  19.1804511  49.6215582  30.7029865  18.1083877  50.6296873
  12.4322619  21.6739182  18.1584824  11.7080965  21.1679845  18.5270584
  12.8003611  22.1448426  18.9061249  20.2932316  76.1351490  51.5483093
  20.5555874  75.6632948  50.7578897  19.4583184  76.5426874  51.3179493
  15.1245121  34.4109494  21.7078293  15.8086590  34.4041271  22.3772514
  15.0237087  33.4921674  21.4590157  30.7897224  37.0453505   8.9561213
  30.1870241  36.5543990   8.3975924  30.8448305  37.9092936   8.5477150
  79.1941690  69.2900658  54.8616028  79.4978714  69.7067165  54.0551281
  79.9931145  68.9737034  55.2833033  72.4195671  61.0170746  63.2081270
  71.9292784  60.3195953  62.7729654  71.8810463  61.2530708  63.9634609
  60.6716506   5.5440910  37.2267365  59.8659102   5.4829986  36.7136264
  61.1274306   4.7198684  37.0559478  54.7124241  11.4717204  37.2161436
  53.8512085  11.2137611  36.8875122  55.3319691  10.9881599  36.6697407
  41.6116524  64.7587681  58.4765959  41.9987106  63.8849020  58.4238863
  41.0538197  64.7271633  59.2538071  54.7395277  68.7785912  22.5803804
  55.5899620  68.9175367  22.9971480  54.2388248  68.2729387  23.2205725
  15.6428089   4.8641686   1.6150606  16.0490455   5.1499467   0.7968128
  15.9119405   5.5202441   2.2579992   3.3960205  44.2489052  62.5568008
   4.0658909  44.3887281  63.2260942   3.0421978  43.3806896  62.7497721
  77.0612766  76.4610964  39.7856212  77.4419548  75.8250274  40.3912067
  76.2223341  76.6966062  40.1817799   3.8743003  49.9599116  51.6578960
   3.5679515  49.7950690  52.5496435   4.1221913  50.8844536  51.6568661
  68.8409795  71.4193141  31.5243053  68.6885800  70.5630486  31.1245346
  69.6120371  71.2917971  32.0769739  78.7864296  17.4920819   4.6541203
  78.7628214  16.9025014   5.4078234  77.8658859  17.6583979   4.4512070
  18.8760146  67.9810106  56.4512300  19.5016249  67.7318357  55.7709694
  18.9367112  67.2804587  57.1006727  78.9181664  61.9630831  57.0384741
  79.2722084  62.1049648  57.9164028  78.3247664  61.2184983  57.1369696
  50.5402915  53.7059865  22.5413883  49.7364442  53.1868074  22.5186718
  50.9331385  53.5021887  23.3901394  15.5669594   7.0662606  26.9785929
  15.0587642   7.8754854  26.9226813  16.4408815   7.3107362  26.6740870
   9.0501936  56.1126035  37.0036149   8.6645850  55.2419846  36.9058347
   9.5191892  56.0745900  37.8371787  52.3037481  24.5438528  48.6227274
  52.4357271  25.3191257  49.1684055  53.1499815  24.0966296  48.6333036
  12.7651155   5.8480257  33.0061483  12.0945716   5.9654814  32.3332405
  13.3284700   6.6170454  32.9197073  75.9460443   6.5167069  47.5051355
  75.4775465   7.0218366  48.1696510  76.7750967   6.2827504  47.9224682
  51.2532061  17.5364077  66.2976742  51.7236060  16.7637503  65.9846926
  50.5431527  17.1836114  66.8339443  65.9691922  36.4817330  12.7593172
  66.5581838  37.2065644  12.9689396  66.1988703  35.7970996  13.3876122
  37.7725840  76.2532964   4.6439541  36.8505812  76.5000811   4.5715702
  38.2257962  77.0740762   4.8366964  36.5734212  41.8036676  24.6362389
  36.5291015  41.1059878  23.9823902  37.2086255  41.4890803  25.2794922
  41.7151403   0.9809915  40.4993010  40.8212233   1.1746572  40.7815027
  42.2009468   0.8524509  41.3139820  13.5241516  37.1123688  56.1349344
  13.8014229  36.8957465  57.0251179  14.2375429  37.6461213  55.7850695
  70.2875052  53.1264312  63.4799098  70.0888358  52.4019654  64.0731307
  69.9427233  53.9011009  63.9240334  80.6421258  76.4416141  37.4072123
  79.8565437  76.9385277  37.6356125  80.4030087  75.5286763  37.5672102
   9.4440514  25.1394129  45.9863234  10.3514969  25.0114226  46.2627172
   9.3416697  26.0896277  45.9330082  52.7531163  31.2417803  11.8208159
  52.9766432  30.5328552  12.4238861  52.1352235  30.8469538  11.2055529
  29.4037938   7.2948295  54.7245550  29.5358729   8.1599277  54.3367529
  29.0501857   6.7638922  54.0109015  10.6002575  11.9579268  25.1783228
  11.2883621  12.5747871  25.4277802  10.9676701  11.4760721  24.4373393
  39.5179900  71.8486755  56.6738605  39.9345120  70.9956836  56.5508032
  40.1863154  72.3816692  57.1045399  31.6142662  73.8348978  59.2664242
  32.4206503  74.2817797  59.5238686  30.9874733  74.0560996  59.9552155
  29.9613333   0.5178371  51.2687349  30.1691628   1.4515574  51.3034487
  30.5425715   0.1188590  51.9161987  67.7840662   0.6139268  54.4296885
  68.3996391   0.0053457  54.0211248  68.1356001   1.4812277  54.2285824
  13.4094522  63.5542033  29.4098747  13.9816664  63.5713504  28.6427296
  14.0091703  63.5294817  30.1555050  34.7987247  24.5380044  11.5230215
  34.4645667  24.4715357  10.6285083  34.9974942  25.4674983  11.6359985
  64.6788160  57.8015194   3.2563580  64.8105566  57.3884998   4.1097582
  65.2938549  57.3532567   2.6758230   8.3553680  61.0497289  55.2170420
   7.4196490  61.2499004  55.2413797   8.5803469  60.8457046  56.1247778
  46.0376835  18.2050061  40.9512234  46.3886404  18.5369241  41.7775965
  45.2327681  17.7498055  41.1984730  23.5727062   7.6227574  17.5434578
  24.1836633   6.9700532  17.2014988  22.7343263   7.4017434  17.1378601
  75.8874035  12.3979986  58.2055521  76.7759037  12.1077156  57.9993105
  75.6280756  12.9290175  57.4525547  41.2826490  11.1230302  27.5166178
  41.9268608  10.6583345  28.0507326  41.7854643  11.4624202  26.7761970
  11.3424538  42.2520582  42.5853432  12.2429846  42.1827755  42.9023254
  10.9270666  41.4358712  42.8637875  70.2408504  33.3056092  28.6165309
  71.0770464  32.9202247  28.8782358  70.3636074  34.2474556  28.7352395
  52.5324623  65.3089974   4.2676914  52.8529040  66.1983130   4.1171349
  52.4887530  65.2282498   5.2204741  48.4933281   7.5139129  55.4790878
  49.2098331   8.1185353  55.6721735  48.5375547   7.3848832  54.5316553
  41.6281796   3.5109472  35.7329869  40.7579613   3.7300986  35.3999376
  42.1222353   4.3282279  35.6682301  41.9289732  22.8514099  62.0015717
  42.6738787  23.0584407  62.5659180  41.9095707  21.8948674  61.9718504
  45.2803755  30.0895977  53.6505699  44.5140743  29.7459078  54.1098070
  45.4912424  30.9018207  54.1110706  75.8385793  59.5261739   7.5139559
  76.5443603  58.9231704   7.7473867  76.1881725  60.3939388   7.7164352
  75.0487091  67.9865556  65.1523495  75.2556874  68.5183620  65.9208345
  74.0923216  67.9503786  65.1366425  19.4261654  56.4301555  51.7911434
  20.2113732  56.2731998  52.3155928  18.7995203  56.8111925  52.4062538
  81.3285255  10.1716924  39.3546748  81.7005539   9.3511057  39.6778893
  80.4464912  10.1973033  39.7256160  44.3295479  13.0775762  47.8959751
  43.4996510  13.5154879  47.7069283  44.9801636  13.7794423  47.8783751
  50.3657103  12.4140501  55.9924507  50.0048447  13.0672598  55.3930140
  50.7471180  12.9273736  56.7046738  11.1669491  41.0470358   0.1155174
  10.4874084  41.7094032  -0.0098669  10.7265613  40.2156902  -0.0609791
  18.2679365  51.7775641   2.5310171  17.3290489  51.9153140   2.6564873
  18.3618973  50.8285401   2.4488247  42.5706629  72.4874923   1.5895832
  42.0520584  73.2860515   1.6874731  42.8360216  72.2633908   2.4815453
  79.6183395  11.2799489  44.5750093  79.2224026  11.6462898  45.3657436
  80.4332733  10.8799148  44.8784637  51.4727068  20.5095148  33.1192160
  51.7540026  20.7948065  32.2498989  51.0806990  21.2894177  33.5120416
  26.3752556  17.9838002  42.7916384  26.4158225  17.7776587  43.7254953
  27.0092297  17.3911726  42.3877811  11.7339587   2.0989387  21.6063833
  10.8257771   2.2344780  21.8766928  11.9250655   1.1942706  21.8539429
  57.9177062  61.2281106  10.9377373  57.6463787  62.0458219  11.3548220
  57.1077148  60.8579610  10.5868280  73.5635320  59.0889261  11.1432541
  72.7729742  58.8637660  10.6527937  74.2784635  58.7085746  10.6329287
  36.3405840   8.4814427   0.6672514  36.0876910   8.5287211   1.5892303
  36.7619489   9.3226502   0.4910315  42.4807501  28.6525655  62.8747511
  42.1666574  29.0304279  63.6962080  41.7675066  28.0840111  62.5844717
  41.7126036   6.2466246  33.1655741  40.8451223   5.8437139  33.2025862
  42.1155930   6.0250992  34.0050697  69.7999334  25.1620960  49.3565321
  69.2441654  25.0824571  48.5812807  69.3621111  24.6298385  50.0207996
  15.8957203  64.2065768  30.6083727  16.3903101  64.4678931  29.8316288
  16.5519245  63.8297932  31.1946011  57.5112526  53.1931589   0.1005686
  57.6317517  53.4415553   1.0170925  56.6090695  52.8766058   0.0548351
  62.1670357  39.4936398   4.7256792  61.8342225  38.9052007   5.4033268
  63.1189720  39.4470890   4.8144663  33.7753510  27.2429776  58.8945532
  33.3591962  26.8400383  59.6565819  34.6741796  26.9142246  58.9107227
  12.0200570  58.3007865  54.3466425  12.1913155  58.7014418  55.1989222
  11.0864218  58.4484797  54.1958237  52.8238473  24.4976432  66.3329898
  52.3290525  25.1701934  66.8010554  53.2762299  24.9740608  65.6368506
  33.5933646  72.7515038  44.0913057  33.0353888  72.5587728  44.8447990
  34.3352517  72.1537294  44.1835260  11.2810739  63.3802407  57.9727411
  11.4911064  64.0325563  57.3044538  10.6000312  63.7925248  58.5041857
   4.9136241  74.7884070  21.8326569   4.7797426  75.6700633  21.4848232
   4.0382655  74.4953089  22.0857787  24.0936589   9.4135243  34.5024657
  23.2262373   9.2630494  34.8781896  24.5661306   9.9000889  35.1779342
  74.9689809  52.2673056  13.4330881  75.2875606  53.1604896  13.3028400
  75.7355539  51.7148874  13.2799948  79.0160227  40.0496292  42.3519135
  78.2362938  40.0240612  42.9065275  79.7423220  39.8798132  42.9518175
  16.9008787  61.4928799  15.3392673  17.1398362  61.9806402  14.5510924
  16.9956168  60.5735843  15.0899625  47.7351141  11.1540496  25.7365775
  46.7847872  11.0407436  25.7198906  48.0836678  10.2793741  25.5642939
  73.1039286  27.7772546  13.1973422  73.9757776  28.1401849  13.0411410
  72.6286507  28.4788561  13.6424208  79.6464721  54.4122563  30.0472153
  78.9195100  54.2933522  29.4359673  79.4398729  53.8329611  30.7806767
  55.4423761  29.5480657   9.2981756  54.6496487  30.0127840   9.0301239
  56.1209965  29.8701191   8.7048864  57.8138733   8.7293774  22.7988219
  57.7808475   8.4743834  21.8768024  57.6433468   9.6712470  22.7930975
  44.9598503  18.1140339  50.4493904  44.0307951  18.1369746  50.2201128
  44.9882221  17.6539648  51.2882948  35.5557323  14.6121204  23.7127018
  35.4593682  14.5893824  24.6647668  34.7065306  14.3227160  23.3790326
  71.5252163  36.2288134  58.0664015  72.3069288  36.3538783  57.5283337
  71.6200091  36.8625276  58.7774944  44.8783588   3.1809419  39.2000389
  44.8159361   2.3080796  38.8121629  44.4073772   3.1083822  40.0301838
  69.6191875  32.7924416   5.7854307  69.1106645  32.8061054   4.9745977
  69.0137426  33.1142996   6.4533127   3.0759176  73.1427263  39.7028279
   3.3299597  73.1198963  40.6254196   3.7324150  72.6047974  39.2602491
  12.1313651  53.1040423  56.1719227  12.0622524  52.9873173  57.1194601
  11.2258275  53.0890434  55.8620691  32.8538561   4.6245331  65.3004313
  32.4594355   4.7422582  64.4362497  33.5941148   4.0371948  65.1478481
  51.6028166  18.5774124  59.0297985  51.5196180  18.2301140  59.9178839
  51.1232567  17.9548728  58.4832668   7.8227981  35.3923123  57.2444391
   6.8751391  35.4017155  57.1099472   7.9391154  34.9805873  58.1007004
  31.8230271   9.7697318  56.6060066  32.2261715   8.9017498  56.5882969
  31.5234137   9.9130183  55.7082701  73.1765262  53.2744417   1.0951984
  73.2745067  52.5528977   0.4739035  72.9644720  54.0324257   0.5504740
  70.7127953   1.5248723  35.5661225  71.0151577   1.3399006  34.6769691
  71.4907885   1.4115004  36.1121106  45.5988359  17.7562821  61.5953779
  45.3639650  18.3072507  60.8487177  44.8921347  17.1129954  61.6500378
  33.8797498  10.2728021  64.6234894  33.6220717   9.5349765  64.0708208
  33.2265878  10.9483135  64.4410276   4.1126545  47.8978293  49.2390299
   3.5829671  47.2386496  49.6875238   4.4032677  48.4862154  49.9358654
  66.1733619  70.8587001  11.3440693  65.3210060  71.1072347  10.9863651
  65.9843699  70.5757878  12.2387636  57.0319557   6.1495012  49.3418884
  57.5308037   6.7620939  49.8823643  57.6547480   5.4537320  49.1314888
  78.3075144  75.4709153  51.0544062  79.1415336  75.6687607  50.6283760
  78.4086468  75.8050314  51.9456816  48.6199522  22.2039223  66.1925411
  47.9438496  21.5819597  66.4613867  49.3743324  21.6573691  65.9724951
  38.7180686  13.8142252  63.1795645  38.6445189  13.5704303  64.1022682
  38.4102678  13.0433393  62.7028799  73.7152139  56.6610751   5.9870327
  74.4044344  56.0352931   5.7643021  73.8795082  57.4115906   5.4160965
   3.1473539  66.6086290   2.5603664   2.5234793  65.9092472   2.3657358
   4.0063093  66.2000726   2.4530781   2.6995571  73.5819637  50.7338428
   3.6159666  73.5676317  50.4577637   2.7377089  73.6672788  51.6864681
  44.5997000  16.0083532  44.9318075  44.5488977  16.7057538  45.5854750
  45.4939032  15.6750357  45.0061846  34.6205290  72.1787517  66.1179924
  34.5753487  71.4213555  65.5344343  34.4686039  71.8176149  66.9913340
  71.9513442  31.1958545  40.1607704  72.7369656  31.7064278  40.3565979
  71.3171734  31.4682620  40.8239841  80.9852507  59.8811953  42.8565073
  81.7634227  59.3239408  42.8685760  80.2510860  59.2671244  42.8441191
  64.5143175   5.7832831  13.5918784  64.5428896   5.6324553  14.5366883
  65.4267311   5.9358561  13.3459926  10.8185194  20.7880197  12.3058737
  10.6102512  20.7782028  11.3716543  10.4075764  21.5876243  12.6344860
  27.0681858  21.6151810  62.5871468  27.3224902  21.6163659  63.5099459
  26.2211919  22.0608139  62.5715446  16.1640223  54.1648929  60.8722925
  15.6815871  54.5587151  61.5991974  15.5198725  53.6135190  60.4281139
  28.3445809  60.4875872   0.7874239  27.9539889  61.2542317   1.2068594
  29.1751202  60.8054350   0.4332960  65.5953503  32.9849648  47.6499367
  66.0013342  33.8364816  47.4876642  64.8774433  33.1732035  48.2544231
  57.1717882   8.2094491  37.8542304  58.0210257   8.6509246  37.8427863
  57.2264719   7.6041234  38.5937047  20.6899784  25.6242106   1.5006149
  21.2871120  26.0109911   2.1409739  19.9431990  26.2225578   1.4775646
  43.9680910   4.5459539  16.8290734  43.9089870   4.7104603  15.8879697
  44.3760157   3.6826310  16.8961525  61.0609213  46.9061659   4.2612160
  61.7452184  47.4348400   4.6716726  60.3998605  47.5415395   3.9863861
  27.2178515  74.5086125  52.0168018  27.3757513  75.1805297  52.6799965
  26.9861420  73.7269016  52.5182676  79.1384308  27.9998563  29.3405617
  79.3391887  27.0641575  29.3604839  79.8735038  28.3925615  28.8697327
  12.9977187  59.8974984  49.2554188  13.7863119  59.4495623  48.9493084
  12.9775389  59.7299009  50.1976204  29.0759762  72.3567974  45.3486252
  28.8255318  73.0796485  44.7733021  29.7046955  71.8491300  44.8355818
  52.1487188  39.2073250   5.0180668  52.8451300  38.5511518   4.9920428
  52.3680496  39.8174262   4.3138647  51.8649578  20.5534387  49.5854950
  52.5660992  21.1839557  49.7500610  52.2428608  19.9320114  48.9632082
  47.5051498   8.4477693  63.5576582  46.6314602   8.7395555  63.2973433
  47.4677563   8.4024352  64.5130539   7.6111158  62.4109643   5.0859749
   6.6719254  62.2655742   5.2000576   8.0044111  61.5477495   5.2140796
  29.9117812  75.3419026  51.1952925  30.1477583  75.3907371  52.1216631
  29.0045842  75.0365764  51.1949968  23.8911827  69.3217217  35.8627057
  24.6487625  68.9765601  36.3351130  24.1538676  70.2041500  35.6008887
  65.5371539  49.0373061   9.0991104  64.7523681  49.4959865   9.3990362
  65.4698817  48.1664077   9.4905746  80.7662489  69.0165501  50.6447172
  80.5262353  69.4954144  51.4380121  80.3127982  69.4785743  49.9396276
  70.1632539  66.3759849  23.4659279  71.0615722  66.7031358  23.4186924
  69.7337429  66.9466064  24.1032208  28.1314143  72.9835077  56.7120314
  28.7436875  72.6312270  57.3579836  28.3851441  72.5659876  55.8889103
  35.7213306  12.3676431  64.1036558  35.5401587  13.2910204  64.2791033
  34.9495888  11.9057095  64.4311666  20.2258738  68.4642302  17.9994297
  19.7901972  68.4292047  18.8510108  20.0872238  67.5949203  17.6235211
  12.3693655  30.8504603  11.3711870  12.5518463  31.7871735  11.2970102
  13.1820963  30.4256628  11.0968674  34.6270180  29.7985864  27.9547501
  35.3363919  29.1626191  27.8622055  34.4751430  29.8523688  28.8982940
   6.2048584  28.8912654  42.9911947   7.0634323  29.1773248  43.3030462
   5.7378536  29.7037983  42.7964354  16.4847525  74.4357521  27.7095675
  17.1808346  74.3778383  28.3640504  15.7068547  74.1029431  28.1571674
  51.9375475  74.6963731  39.2864323  52.0102175  75.6396695  39.1410255
  51.5539511  74.6175176  40.1598549   2.1799229  49.6721325  18.1914032
   2.9560755  49.2280815  17.8498829   2.3200844  50.5953191  17.9808987
  60.4695797  17.6824129  56.5955687  60.5860806  18.6296356  56.5218925
  59.5310545  17.5457513  56.4662409  61.6575384  22.3444319  41.8164349
  60.8844376  21.8566513  41.5325022  62.3301125  22.1234512  41.1721945
   3.0358919  54.8739546  40.3593588   2.3497494  54.4361918  40.8631468
   3.1407054  55.7243769  40.7860088  55.7164907   2.2574273  63.6717653
  55.4331684   3.1712696  63.6425352  54.9031448   1.7563044  63.7316036
  63.8989846  56.4017568  17.7452171  63.3382551  55.8995567  18.3364952
  63.4867303  57.2644041  17.6992119  58.4027100  35.9839129   9.5443285
  57.6976252  35.7676411   8.9341533  58.9725685  35.2148986   9.5341307
  50.3918123  22.8847575  43.3911371  50.9771585  23.6090732  43.6124277
  50.9027624  22.0976543  43.5798979  79.9306220  19.7497129  50.5681610
  80.1851507  19.3008947  49.7619295  80.1339866  20.6705594  50.4041004
  10.0103482  60.9015577  51.1106443   9.4674738  61.4936559  51.6311646
  10.3817566  61.4572494  50.4254484  20.0235566  72.5792282  56.5161085
  19.2783030  72.5262355  55.9177637  19.6966370  73.0823739  57.2618961
   4.8287247  41.4389030  12.0117939   4.8506306  42.3031420  11.6008890
   5.3744839  40.8914135  11.4473188  79.4883468  70.7273572  52.4968529
  80.1155331  71.4448868  52.5864172  78.6414887  71.1611157  52.3923731
   4.1973480  74.8017820  62.3192978   4.7010120  74.0057673  62.4893427
   4.8080881  75.5155115  62.5031996  46.0208082   8.0536669  30.7122946
  45.5870724   7.2094148  30.5884266  46.9526100   7.8396606  30.7589531
  20.2276325  20.5255342  66.1690092  19.7118533  19.8556066  65.7202291
  19.6332073  20.8838201  66.8281937  36.2908316   7.3243135  35.5932617
  36.3948274   7.0146322  34.6935296  36.8176913   8.1224173  35.6342649
  63.0522585  34.6390653  63.0413151  63.6561728  34.2279434  62.4228525
  63.4712315  35.4688978  63.2694960  20.8110809  11.7388546  44.9130774
  20.3358364  11.1704171  45.5190897  20.2610970  12.5183368  44.8346138
  79.3295383  33.5436177  57.8540421  79.1077614  32.7359438  58.3174086
  78.5679913  34.1094398  57.9810381  19.3403689  61.6243978  48.2593262
  18.7098281  62.2686071  47.9373848  18.8650958  60.7937474  48.2401549
  73.9812851  26.0429287  38.6506772  73.3172846  26.1194611  39.3358660
  73.7084389  25.2830195  38.1365514  42.5753220  74.7509738  49.1721058
  42.8802784  75.6581036  49.1908073  42.8733404  74.4154843  48.3266115
  61.2351513   2.4462160  54.6810055  62.1152878   2.3320428  54.3224573
  60.6867123   1.8585715  54.1612768  13.9171465  32.4061959  45.1619530
  14.7730549  31.9776624  45.1591969  13.2962139  31.7021935  44.9747181
  72.9096689  65.0238590  63.0630445  72.8924944  65.7351749  63.7033319
  73.0177607  65.4633730  62.2196150  42.2449684  19.8207104  32.6854086
  42.4639797  20.0073051  33.5983419  42.8438568  19.1174841  32.4343419
  71.6592465  29.7011979  62.5205788  71.2341700  29.3189902  61.7528173
  71.0938034  30.4328163  62.7680379  47.3462725  11.8462312  21.9063210
  47.1046925  12.4648714  22.5956368  47.4586058  12.3890328  21.1259484
  22.8466344   0.8458370  61.3767910  21.9751668   0.5227507  61.1478996
  23.2957721   0.9391455  60.5366707  12.9798077  40.7207165   8.9905489
  12.2994802  41.1906276   9.4727982  13.1819151  39.9626551   9.5389355
  20.2990150   5.4734290  42.1705055  19.5059323   5.0773060  41.8094778
  20.6105995   4.8395646  42.8165436  75.6017782  38.9432018  26.4313269
  76.2989761  39.5950787  26.5034866  74.8037459  39.4197028  26.6600657
  48.8932649  47.1901677  18.0010307  48.5794512  46.5929256  18.6800373
  48.1666938  47.2506783  17.3808182  11.8497761  39.9295275  45.0758266
  11.2978943  40.0858825  45.8421230  12.5771030  40.5438297  45.1751184
  73.8592474  71.8203495   6.2256468  74.0215866  72.3575089   7.0011032
  73.0669586  72.1923492   5.8381784  27.9876399  32.4525023  21.2968612
  28.6674547  32.0300412  21.8218446  27.5775480  31.7350364  20.8138466
  38.7954211   6.7432988  28.9177322  38.0891013   7.3116153  29.2249107
  38.6703753   5.9248495  29.3980813  44.7375393  21.0669732  51.0109234
  44.7252607  21.5691137  50.1960993  44.5982218  20.1607704  50.7359314
   8.0391365  67.4250174  51.6871738   8.3415753  66.6974258  52.2306490
   7.0881516  67.3209620  51.6552401  38.3700085  22.1133280  48.1065607
  37.8034759  22.2468948  47.3466730  38.4221482  21.1623502  48.2022381
   9.2820738  41.4292685  14.1976154   8.7947367  41.6696183  14.9856365
   8.8394831  40.6454703  13.8720310  49.5267582  24.2715049  48.4419394
  50.3583622  23.9956021  48.8273525  49.7764921  24.7561240  47.6551676
  45.7861042   3.4813866  47.7399683  46.5078163   3.0181164  48.1651020
  45.0342941   2.8975591  47.8407812  30.4761147   9.9667263  47.2020149
  30.2694011  10.5945706  47.8943396  30.2902269  10.4367304  46.3891363
  72.0921699  34.4133142  14.6472061  71.7760793  35.2717117  14.9291218
  71.4053575  33.8042525  14.9184502  76.4373112  46.8011045  46.9014025
  77.3497820  46.9930840  47.1176672  76.4323664  45.8673000  46.6911221
  17.4565361  61.9350431  35.5369556  17.7167890  61.8084572  34.6245564
  18.0405376  61.3624332  36.0342491  17.5312765  67.1516400  64.6990824
  17.3291453  66.6334241  63.9200926  17.6384838  68.0446338  64.3715143
  26.8407917  14.2862689  39.7616577  26.2480307  14.7669995  39.1839337
  27.5223708  14.9197006  39.9862599   2.3783261  33.2278752  28.4345508
   2.5166470  33.9024138  27.7696466   1.7658573  33.6243534  29.0541649
  54.9463749  24.6446466  47.3619318  54.9916983  23.9380765  46.7177773
  54.1673088  25.1434135  47.1159315  50.3901052  25.2665734  52.7067518
  50.0310564  25.6822252  53.4906864  49.9079323  25.6650305  51.9821978
  44.1619635  30.9766889  63.5896826  44.4996834  30.2646470  63.0463839
  44.6564531  31.7469215  63.3095837  62.6914978  12.6439667  42.1966839
  63.4545994  12.1059394  42.4074650  62.3171616  12.8724718  43.0475044
  78.8480083  70.8116505   5.4956806  79.1566459  70.1911614   6.1559570
  77.8938333  70.7445333   5.5314053  10.7126004   0.7436388  55.5810452
  10.2216393   1.5653348  55.5839252  10.0408036   0.0634031  55.5340815
  35.3848132  70.6014430  43.9720583  35.7790097  69.8779105  44.4592381
  36.0864552  70.9171515  43.4026194  53.1906080  11.9963050  62.8491449
  52.5167561  12.3794174  63.4107304  52.9678726  11.0662854  62.8081036
  45.4594660  23.3451509  26.9160008  45.2341986  24.2171288  27.2402596
  44.6344805  22.8603101  26.9396424   9.0862320  42.6964561   0.6076468
   8.4834097  42.8104112  -0.1271021   8.5433004  42.3373515   1.3094271
  70.1618624  12.6617515  63.7985325  70.8615255  12.1298432  63.4193563
  70.3370333  12.6523888  64.7395182  29.1830015   7.1552038  64.6708441
  28.9474154   7.6526499  63.8877249  29.8483253   6.5361667  64.3702316
  74.2322063  34.1706395  38.4426689  73.4854317  34.1843748  39.0413046
  73.8448763  34.0228271  37.5799060  44.6742010  28.2898307  61.7948055
  43.8258886  28.4815407  62.1946049  44.6891260  27.3364973  61.7101669
  40.1085081  19.3755965  17.5862587  40.5334320  18.7570577  18.1804646
  39.6251192  19.9676900  18.1624401  57.1308200  59.5791862   5.2463711
  57.0302693  59.3775056   6.1766661  58.0725161  59.5141027   5.0876081
  50.6278849   4.9005672  47.6509047  50.5382204   4.2062378  48.3036661
  49.7285318   5.1653236  47.4577665  18.9796758  10.1843476  46.2346506
  19.1048861  10.0247753  47.1701145  18.1005239   9.8534095  46.0507965
  31.2690457  73.1162017  39.1971755  31.3831385  73.7621622  38.5000753
  32.1570214  72.8195723  39.3965220  53.6913681  16.4883816  22.6136470
  52.9113960  16.3666523  23.1549907  54.4021893  16.6133904  23.2424092
  69.1877031   3.8238737  24.4225502  70.1373482   3.9275628  24.3621254
  68.9444351   3.3704326  23.6154270  62.8002357  34.5181346  59.6771860
  62.1188259  33.8747978  59.4821739  63.5137415  34.0041494  60.0552940
  69.9765674  44.5460180   4.8288572  70.3532163  45.2051870   5.4118383
  69.8413889  43.7809495   5.3879917  70.0341225  42.4770403  63.1769848
  70.6740475  42.0801592  62.5860453  70.4600191  42.4651480  64.0341330
  16.7802246  54.0445869  28.0011964  16.2242468  54.0394705  27.2220325
  16.6804751  53.1679385  28.3723664  27.2729643  72.2224479  53.3553505
  27.0575865  71.7375832  54.1520643  27.9430350  71.6910877  52.9253578
  65.7291555  31.0127306  35.4043603  65.5551291  30.5330896  36.2142324
  66.4850140  31.5629959  35.6095862   0.8627278  36.4901209  23.8858867
   1.0480076  35.7639456  23.2904291  -0.0608867  36.3835216  24.1135049
   0.1668451  60.4390619  16.5506924   0.8568047  59.7941563  16.7065132
  -0.3939821  60.3814576  17.3242462   4.7055862  47.0705215   1.2416256
   4.2887114  47.4295662   0.4583395   3.9762638  46.8449137   1.8190516
  17.9836043  73.6919480  58.5709000  18.0976494  73.3150708  59.4433641
  18.5787733  74.4414281  58.5540819  15.1936730  63.1762474  16.9463265
  14.4945486  62.6625674  16.5418696  15.9895571  62.8944521  16.4953303
  39.8679137  14.9145484  56.1850023  39.2955446  15.6622612  56.0130978
  40.6281710  15.2916884  56.6277266  66.6622114  41.2626553  45.9150696
  65.7844782  40.8853054  45.9735346  66.5188599  42.1546555  45.5988121
  43.3585920   1.5014009   0.4599226  42.4967088   1.1998968   0.7471169
  43.9203920   1.3857656   1.2262381  39.9030685  28.0621886  59.6263361
  40.0752926  27.4420714  58.9177990  40.1052332  27.5752354  60.4252338
   8.2987497  47.3861013   4.8329342   7.8011511  46.7411951   4.3302191
   7.6382111  47.9978720   5.1579845   1.4796130  64.3676920  59.4456779
   1.5094344  63.8056846  58.6714100   0.6202809  64.7872825  59.4041156
  63.8499737  17.1839762  53.3160830  64.1115904  17.7422011  52.5838470
  63.3577347  17.7648747  53.8961649  65.8378220  27.8324246  59.1114664
  66.5290546  27.5034189  59.6860790  65.2008009  27.1191573  59.0703964
  29.7756823  76.2338134  64.3371534  29.4618471  77.1025672  64.0861416
  30.5325087  76.0799360  63.7716818  36.5526531  59.5774577   2.1100367
  36.2191723  59.5054648   3.0043734  37.3805092  60.0494049   2.2003687
   9.0863274  51.4136431   5.9098614   8.7563131  50.6573591   6.3949955
   9.2154644  52.0881531   6.5766371  21.3221453  32.1449391   2.6743353
  21.0173414  31.2431095   2.7744806  21.2922571  32.5075743   3.5596788
  49.7885132  22.6759458  52.7677965  48.8438749  22.6220012  52.6229477
  49.9742317  23.6146975  52.7898073   8.9833973  60.4928801   0.7641256
   9.4698856  60.7176540  -0.0289928   8.2236526  60.0035904   0.4485071
  70.4683868  67.8395603   6.4156569  70.5682985  67.5352667   7.3176849
  69.8790256  68.5910342   6.4802778  66.5724222  46.3338260  20.2458466
  65.9608666  45.6557784  20.5330456  66.3121096  47.1140883  20.7353962
  41.5127142  70.8500986  59.9330568  41.8887575  71.1326980  59.0994167
  40.8381470  71.5016239  60.1246405  16.7151505  17.5421548  16.0626256
  16.1553150  16.8397820  16.3935184  16.1409241  18.0608094  15.4991627
  47.1018934  14.6722519  60.0887060  46.2010050  14.3669283  59.9818850
  47.6015282  14.1756392  59.4406557  10.8830601  38.0210233  38.8240671
  11.8250710  38.1146193  38.9658165  10.7328373  37.0756984  38.8291955
  64.8467541  23.7366033  41.4991379  65.5645180  24.3663526  41.4323807
  65.0262547  23.2534695  42.3057318  33.7363919  71.8239676  15.0880408
  33.4346588  72.7322700  15.0747967  32.9334172  71.3042753  15.0508785
  58.4586064  56.9282005   0.1717175  57.6946942  56.9650910  -0.4038774
  58.4164182  56.0589562   0.5703009  29.9620104  16.5291703  60.8526659
  29.0804172  16.8905723  60.9443808  30.3185487  16.5391076  61.7409277
  21.9917828  12.0832932  47.3879290  21.6363579  11.9073057  46.5167618
  21.6231781  11.3942122  47.9406834  41.8313265  12.7836204  36.3132477
  41.3115311  13.5873902  36.3138342  41.2186575  12.1019793  36.5893602
  49.6084452  24.3488431  21.7020845  50.4554605  24.7803712  21.5899348
  49.4507837  24.3723226  22.6459193   4.2664574  40.3490309   2.4428070
   4.1175697  40.4012809   1.4987028   3.3890293  40.3663095   2.8249729
  62.7157505  74.0467300  33.8303733  63.5524567  74.4337288  34.0880084
  62.0890530  74.3826677  34.4711804  61.3640070  22.8553128  36.7517114
  61.9761992  23.3779573  36.2337422  61.8248892  22.6924324  37.5746894
  42.8179596  71.4099310  30.3815926  42.1314857  71.5049932  31.0418594
  43.5932300  71.1479447  30.8781326  39.3698939  74.0964304  46.3330984
  39.2668303  74.6435318  47.1117449  39.6879395  73.2586040  46.6694450
  20.0080212  73.9723854  20.6665444  19.2904814  74.5558712  20.4197359
  19.5742758  73.1930383  21.0139871  80.6927299  19.6908641  39.1476226
  80.3830338  20.5280828  38.8020992  81.5412807  19.5567012  38.7254930
  47.8691483  23.9706254  62.0446587  47.8168106  23.2273507  62.6455164
  48.6823702  24.4152188  62.2839069  70.5276108   7.9718244   5.6518680
  70.4443073   7.2859752   4.9893704  70.3096867   8.7804013   5.1882488
  62.3528481  51.7918396  42.7982855  63.3006907  51.6847563  42.8779936
  62.2188807  52.7395630  42.7882862  19.8227890  75.5877674  57.6398182
  19.3812378  76.3233566  57.2153473  20.1838215  75.9576977  58.4454489
   7.0323759  27.8169465  34.5496273   7.9568386  27.8765631  34.3087006
   6.6197383  28.5546207  34.1004109  49.1453924   0.6948619   9.7044504
  49.0533151   0.4782586   8.7766350  49.3406810  -0.1413364  10.1273811
  63.6510897   8.2563639  13.6711907  64.1462278   7.4477279  13.5401392
  64.3023109   8.8897580  13.9727759  72.1095790  72.2397326  46.0270357
  71.9564130  71.4227044  46.5016270  72.3391833  71.9621565  45.1402092
  48.5741138  37.1899867  62.3051596  49.3291616  37.7511024  62.1282816
  48.1611252  37.0676684  61.4503431   4.9328953  21.2951732  36.9048667
   4.8581654  22.1212411  36.4271021   5.5332905  21.4883852  37.6248884
  63.3413418  36.6937821  39.7238755  64.1036900  36.1582129  39.9434710
  63.6458977  37.5958531  39.8226118  56.6525753  63.6283319  25.5074406
  56.5527447  64.3702286  24.9109054  57.5989827  63.5039561  25.5786967
  62.2527599   3.3514401  63.4674263  62.8944874   2.6634771  63.2909966
  61.5607452   2.9123586  63.9619493  72.1114349  21.8708348   2.1336037
  72.2816467  22.7545691   1.8076122  71.2924480  21.6130638   1.7104661
  71.3268089  26.4107060  44.3503189  72.2006178  26.7856336  44.4603968
  70.8529520  26.6717672  45.1399612  13.3573522  25.9933095   3.4632910
  12.6784505  25.3680711   3.7170733  13.5233488  25.8048301   2.5396288
  67.2711515  31.2287426  56.6035032  66.3197660  31.1314130  56.6438150
  67.5801849  30.9155822  57.4535990  68.0409278  18.9955192  13.5809076
  68.3636036  18.7739854  12.7073849  67.1140804  19.1957765  13.4502066
  58.4094810   6.2915331  60.2083969  58.4671593   7.1318394  59.7536564
  58.2387400   5.6548339  59.5143557  58.2307529  22.9314947  33.9146113
  59.1310644  23.2549214  33.8819528  58.0629778  22.7836585  34.8453259
  10.4273603  45.4905573  13.2485283   9.7612808  45.8506564  12.6629532
  11.1335943  46.1365090  13.2339418  44.0336275   7.5917268  51.9478846
  44.5958042   6.8265402  51.8267250  44.5077753   8.3068669  51.5236282
  65.1416294  52.1488235  18.9126957  64.8483936  51.5748093  18.2050598
  64.3696562  52.2580085  19.4680107  69.3195868  21.9124198  51.6339970
  69.7962284  21.7460036  50.8207607  68.4825611  21.4629722  51.5172958
  14.1164587  49.6723233  10.2978981  14.6099756  48.9212582   9.9683893
  13.5828302  49.9530802   9.5544947  13.6503122  38.3406887  10.3580750
  14.0782688  38.1537443  11.1936176  13.0610559  37.5991807  10.2195967
  66.3365936  23.1741118  38.4006763  66.9033432  22.8939319  37.6819801
  66.4555216  22.5046802  39.0744328  46.5263319  18.9833307  57.5799704
  45.8588552  18.5246611  57.0697498  47.3106718  18.4421277  57.4897385
  17.3218113  23.0097437  52.4917889  17.4743420  23.1714606  51.5607595
  16.9801194  23.8390303  52.8260946  11.6520935  10.1522994  65.1172209
  11.2932736  10.9251797  65.5532646  11.4252526   9.4240731  65.6955481
  42.2531430  55.6902979  12.0395887  41.3121573  55.6299339  11.8748653
  42.5151793  54.7969041  12.2618855  60.0025845   9.1970223  44.2128849
  59.7636700   8.5009134  44.8249149  59.3254995   9.1645592  43.5370636
  81.0546247  32.2022496  14.9362076  80.5871669  32.8901551  14.4623936
  80.4616729  31.9547222  15.6456936  69.7201347  19.0566635  36.4318800
  69.2272758  19.8772013  36.4254379  70.3716707  19.1740334  37.1232247
  31.4862037  25.1152682  46.5995884  31.2769938  24.1887903  46.4808416
  31.3159537  25.2823544  47.5265884  49.0873830  46.9171623   1.6655052
  48.7826721  47.7788899   1.9497717  49.2689101  46.4468787   2.4792088
  35.7680559  20.1723289  46.4561510  35.8416176  19.5442343  45.7376003
  35.9521818  19.6589756  47.2427893  76.1802101  16.1832786  26.4403582
  75.2335691  16.0548162  26.5003562  76.4213181  16.5817654  27.2766042
  23.1271752  73.0987476  47.5753307  23.4805973  73.4904032  48.3740377
  22.1799572  73.2140728  47.6508808  36.2937697  67.3357337  55.6910038
  35.3539475  67.5122212  55.7337332  36.5627249  67.6755868  54.8375463
  45.1981409  70.5609035  48.4327698  46.1387547  70.4764210  48.2767630
  44.9122866  71.2334912  47.8145885  35.6397033  52.0141935  65.2434254
  36.5392113  52.2824144  65.4309702  35.7315016  51.2328863  64.6981144
  33.3948525  59.6909004  19.5026779  33.7159165  60.1063686  18.7023425
  32.8278740  58.9838736  19.1946530  20.4934587  16.7622809  36.2328232
  20.1440467  17.6127391  36.4990318  21.4037551  16.9406371  35.9966362
  65.7419538   1.5778673  35.3520083  65.4682016   2.3685765  34.8871732
  66.6469240   1.7529535  35.6100941  51.3282116  75.0571828  42.4278784
  52.1023281  74.7929989  42.9250479  50.6613978  74.4115826  42.6619482
  80.8439056  21.2841187   3.8915813  80.7032577  21.0387430   4.8060453
  80.6676046  22.2245977   3.8661182   9.5676953  56.9257879  41.7100716
   8.6800152  56.8430185  41.3616371   9.5708615  57.7710962  42.1591616
  70.6108141  26.0308027  59.9282932  71.5619230  26.0798955  59.8322916
  70.4685736  25.3051758  60.5361271  73.3201073  37.3944482   1.5105999
  72.6574753  37.2011410   2.1737564  73.8594292  38.0805772   1.9037855
  76.8956423  23.4114790  47.7886772  76.6621304  22.5885272  48.2181597
  77.0172739  24.0310192  48.5081291  56.8432856  18.8456106  20.9176278
  56.9702578  19.2018425  21.7969513  57.6781273  18.4281647  20.7054734
  31.0700440  22.5820708  47.1007013  31.0911393  22.2274685  47.9895449
  31.8114138  22.1672249  46.6596699  43.5680523  17.2376256   1.3918055
  43.2371368  17.8244786   2.0717562  43.5647859  16.3719277   1.8002069
  48.7537432   2.2977974  57.4215317  48.2481098   2.9195645  57.9449511
  49.1068649   2.8216216  56.7024040  31.3908823  73.4434657  26.2702465
  32.0056733  73.1861593  25.5831814  30.8767756  72.6539974  26.4395595
  41.9318493  64.6840852  62.5350523  41.2708052  64.5331424  61.8594265
  42.6695259  64.1318577  62.2760010  17.9651964   4.8134026  36.9719410
  17.4766016   5.1731801  36.2316251  17.3536658   4.8581469  37.7069664
  79.1208069  73.8227365   1.8901337  79.4117061  73.2055543   2.5614727
  78.4254305  73.3590005   1.4236248  41.0220591  42.9410238   9.0908516
  41.6173581  43.6580930   9.3091715  40.2279667  43.1281219   9.5914972
  53.7514591  22.6163650  59.4112062  54.2596960  22.2819400  58.6722279
  53.0656147  23.1490993  59.0086555  58.4654148  72.4260434  61.6532135
  57.6928433  71.9112029  61.4201593  59.1549977  71.7758678  61.7873049
  64.9974442   7.3229796  28.1025410  64.3698549   6.9668478  27.4736261
  64.7257900   8.2328945  28.2229066  74.4299889  19.5672119  36.2783933
  74.3513393  18.6331511  36.0845423  75.3722763  19.7352469  36.2690830
  37.3763855  68.4141337   7.2215742  37.1507796  68.2899552   6.2996662
  36.6145142  68.8553076   7.5972718  23.4967383  64.6546333  39.9038577
  22.7623041  64.2970662  40.4028368  23.2823714  65.5808633  39.7926092
  36.6849828   9.8928767  44.5481253  36.3801694  10.7858562  44.3871641
  36.4575362   9.7232860  45.4623127  78.4226886  48.5399459  44.6788109
  78.5136739  47.9306857  43.9461697  77.7349130  48.1579176  45.2240170
  74.0086595  44.9149755  11.5973700  73.3840362  44.8038969  12.3141230
  73.5432998  45.4507116  10.9549845  23.5121449  71.1903935  60.5112314
  23.1399210  71.1552339  61.3923931  24.1883715  71.8658172  60.5636549
   9.5706004  18.7672722  27.5549507   9.0487802  18.4516227  28.2927179
   8.9533019  18.8067031  26.8244600  59.3993608  23.9807234  14.2326344
  59.4400994  24.6381662  13.5381210  58.4994547  23.6559282  14.2024887
  13.5461471  16.1951063   2.9530085  13.8284157  15.2936504   2.7983130
  13.8438557  16.6752503   2.1803129  42.9719830  21.0078883  39.0973568
  43.1241655  20.8803463  40.0337362  42.3783922  20.2980781  38.8523102
   4.1212376  63.9611428  55.9694004   3.2728918  63.8757329  56.4044285
   4.0185507  64.7164481  55.3904343  76.4326612  48.1042216  14.1608418
  77.2425596  48.5168574  13.8607872  76.7154781  47.4783681  14.8275936
  75.9814453  23.1742620  25.7028675  75.5169392  23.5869551  24.9747515
  75.7752323  22.2430849  25.6215000  61.8884563  11.0160005  48.5377789
  61.5614033  11.2046969  47.6582003  62.6317883  11.6086876  48.6491871
  46.5088272  11.2322652  29.0293574  47.0317888  10.8229113  29.7186852
  45.7223034  10.6898248  28.9713478  52.4517536  27.4458575  59.5040798
  51.6708899  27.1304870  59.0490818  53.1746340  27.2360659  58.9127636
  26.7338361  11.7140393   3.1823671  26.7410507  12.1242433   4.0471828
  27.0121612  10.8123307   3.3426512  55.7651997   0.8740991  46.6932058
  55.5523586   1.8052122  46.6302967  55.6055641   0.5319571  45.8136082
  67.7543306  33.5545135  63.8537502  67.6639175  33.6965084  62.9114723
  68.5903454  33.9629769  64.0783930  72.7621174   1.8537761  46.7051077
  72.7810097   2.2777155  45.8471155  73.6814690   1.6787687  46.9060850
  56.1082220  29.9082327  44.2788553  55.4038525  30.0310564  44.9152613
  55.7955456  29.2063832  43.7080002  49.4926357  30.0023246  43.2253313
  49.1128874  29.8895764  42.3539448  49.7733593  30.9171605  43.2477188
  44.1803590  55.5926321  15.6219757  43.6649076  55.1146076  14.9723423
  44.4524793  54.9242280  16.2507999  13.1606148  72.9687069  17.0614040
  13.4748695  73.1151150  16.1691940  13.7814472  72.3428295  17.4343288
  63.6371326  20.6768775  18.3510900  62.8850651  20.0865364  18.3050358
  63.9003325  20.6581473  19.2712033  37.9324959  66.8567870   1.2424171
  38.7088631  66.7233942   0.6986416  37.8452824  66.0431907   1.7390907
  54.4216681  14.3950987  62.2008657  53.8694668  13.6132598  62.2066402
  54.5266247  14.6073508  61.2734175  46.7844017  72.8309183  31.9370008
  47.1414145  72.9217049  31.0535216  47.4864777  72.4151694  32.4374795
  68.3766651  29.6495819  46.8356752  68.0542135  30.2716827  47.4877882
  67.6169252  29.1059971  46.6270065  70.9799965  62.5952022  28.7489581
  71.3400086  63.4521680  28.9775085  71.6021450  62.2348409  28.1170511
  67.7501241  46.3714437   2.8171242  67.9740945  45.7432852   3.5037745
  68.3688823  47.0913545   2.9400051  44.8720503  11.9793320  50.5365562
  44.2562151  12.3703671  49.9168253  44.3497515  11.3415992  51.0231113
  75.0408498  42.4711619  10.9168184  74.4167511  43.1946723  10.9739435
  74.4943420  41.6874889  10.8583439  46.0553455  12.7045560  65.6263494
  45.8177090  11.7782140  65.5857229  46.3857555  12.9056859  64.7507858
  60.2260160  15.6799626  35.3440857  59.6355009  15.9014761  34.6240449
  60.0182247  14.7691751  35.5527020  72.8560249  61.5046785  12.3467768
  73.4014360  60.7216499  12.2718037  73.4810774  62.2273276  12.4043596
  22.2611235  61.4139793   2.3393858  22.6198004  61.4114974   1.4519299
  22.0640610  60.4949877   2.5206459   0.6267315  41.7405748  39.8270869
  -0.1979774  41.4862251  39.4130993   0.9142453  40.9543228  40.2911806
  74.2009974  20.3413701  64.5154905  73.3219290  19.9884391  64.6530199
  74.7206831  19.5876575  64.2360687  66.3004963  63.9975641  12.7715719
  67.1527616  64.4098351  12.9126680  66.1811463  64.0131805  11.8219698
   8.6440275  47.1366976  11.8590725   9.3419741  47.7642939  11.6713799
   8.0568788  47.1990458  11.1056793   8.3591515  15.3408790  24.7416615
   8.1743199  14.5258009  25.2082658   7.6231247  15.9131598  24.9584460
  30.0723312  52.5924144  21.8417156  30.7935760  52.0516751  21.5197742
  29.3870495  51.9651280  22.0722092  72.1593761  34.0838361  62.0955467
  73.0528688  34.3861032  61.9326401  71.6117764  34.8487520  61.9187164
  80.2980328   2.3832676  48.5556269  80.0292969   1.4827161  48.7373400
  79.6670771   2.6952353  47.9069281  71.7776394  14.6046507  47.0422792
  72.1701860  13.7986994  47.3778105  71.2874985  14.9592113  47.7840900
   2.6960506  29.6560197  18.4109104   1.8815698  29.9891095  18.7876118
   2.7223291  28.7357383  18.6728752  59.1036749  33.8320065  50.3394079
  59.1647005  33.3051395  51.1362219  58.2641697  33.5841298  49.9520826
  24.7976041  47.7256441  28.3695269  25.1596546  46.9724226  27.9028296
  25.5179667  48.0365276  28.9178538  52.3441172   8.7153876  18.4471583
  51.9137287   8.4004492  19.2420220  52.8653812   9.4638509  18.7375307
  63.2472849  26.2125349  43.9100504  62.7035761  25.8955383  43.1888533
  63.5536289  27.0715547  43.6194086  38.8159537  23.3754683  50.4688358
  38.7946868  22.9114914  49.6318769  38.0905056  23.0011606  50.9686899
  46.4600555  59.2233203  10.6033314  45.9174613  60.0031231  10.4861486
  47.2884695  59.4415758  10.1763332  47.3346758   5.9175783  62.6229286
  47.2327948   6.7173421  63.1388998  47.3770523   6.2213087  61.7161846
  79.2679145  66.8372022  64.8579311  79.0846374  66.1601691  65.5092907
  78.5486605  66.7666947  64.2302895   8.7762497  53.8520739  22.1477020
   7.8693626  53.6417792  21.9250668   9.2841766  53.5482774  21.3954056
  17.7122170  14.5662260  63.8241577  17.0700318  13.8907063  63.6062002
  17.4855286  14.8337400  64.7148180   0.2104042  57.6297853   3.6193979
   0.6351993  57.3385678   4.4262255  -0.3451159  56.8939541   3.3621395
  14.5469769  51.7316859  54.2203474  15.1339730  52.2660678  53.6854649
  14.5360096  52.1676128  55.0724506  19.5831728   8.0882627  51.6616535
  20.2846074   8.6293679  52.0241833  19.8542213   7.1891201  51.8468761
  21.8393016  17.7533185  48.4711981  22.3012161  16.9397438  48.2687998
  22.5263262  18.3526134  48.7628746  76.6031790   0.0415318  44.7511482
  77.0300817   0.8971966  44.7084665  77.3086309  -0.5861777  44.5944595
   3.4139870  31.1028788   3.8293350   3.3720634  31.7215828   3.1001747
   4.2736051  31.2538204   4.2224062  60.8428995  34.2394472   5.9070337
  60.1828925  33.6638538   6.2934483  60.4293124  35.1025707   5.8930004
  56.4902115  40.2886057  55.5997801  57.3155594  40.2053976  56.0773849
  56.3731289  41.2318277  55.4864168  48.4423304  10.1096523  30.6257987
  48.7143040  10.1581442  31.5422630  48.9412451   9.3760699  30.2663946
  75.9586477  54.8268509  12.9865134  76.8814182  55.0696754  12.9106212
  75.4938793  55.6625128  13.0300725  66.6381502   2.0770539  38.9329481
  65.9510231   1.4524142  38.7007475  67.4224949   1.7430994  38.4976244
  36.0836456  49.1909001  10.6233442  35.6123779  49.4761453  11.4061440
  35.6363724  48.3888028  10.3534878  30.0916815  22.2777319  49.9756241
  29.6875978  22.2771859  50.8433485  31.0279918  22.1774554  50.1473761
  48.4212025  74.5938139  62.0365667  47.8160103  75.1779183  61.5796232
  48.3223255  73.7515723  61.5926266  64.5862818   4.4955584  35.2011967
  64.4457054   4.9667609  34.3799567  65.1700783   5.0621766  35.7055354
   7.5985255  23.3137517  14.8466576   7.7892246  23.1263785  13.9275444
   8.4479537  23.5381370  15.2265919  16.9725599  14.9744992   9.2301453
  17.3847236  15.0496821  10.0907839  17.7040996  14.9808793   8.6128605
  36.2641048   9.8874778  10.4606545  35.3132319   9.8066002  10.3862548
  36.3969779  10.4773593  11.2026894   6.3943042  36.8441300  25.6069935
   6.1076274  36.8340831  26.5201939   5.8820571  36.1528401  25.1875294
  60.5745935  33.8816738  62.4065304  61.4437819  34.0544891  62.7683115
  60.0136232  34.5489669  62.8018332  14.6776444   5.7127631  42.7727652
  14.3945557   6.4875913  43.2582951  15.2394158   6.0571736  42.0784903
  56.0196304  29.5868945  61.2516546  55.5251837  30.3842568  61.0619879
  56.7389774  29.8786545  61.8116951  61.1617136  45.4476357  61.7692184
  60.7633257  44.6713686  61.3756084  61.5091562  45.9413147  61.0263872
  25.4477117  35.6855891  31.7535770  25.0871704  36.2413963  32.4444664
  24.9501274  35.9229902  30.9710968  76.9604588  51.3789940  54.4824600
  76.4943266  51.3962841  55.3183174  77.5655603  52.1191263  54.5303202
  65.2627420   7.7017868  65.4900217  64.6139431   7.0090979  65.3656197
  65.1159859   8.3015716  64.7586203  79.6458443   4.1012673  22.5999344
  79.0480288   3.6045175  22.0412910  80.2761682   4.4878297  21.9920815
  67.2397614  61.0060596  32.0888591  66.5286160  61.2802172  32.6679444
  66.7996931  60.5717802  31.3581300  49.1001129  47.6781034  65.2349234
  48.1655598  47.7644539  65.0468159  49.3746328  48.5578251  65.4936838
   4.1400431  51.4488325   3.7468946   3.8076399  51.1084352   2.9163111
   5.0422714  51.7057214   3.5565651  65.2626514  22.5059223  46.4936638
  64.8402309  22.9283023  47.2415876  65.2538681  23.1718230  45.8061123
  63.9554358  11.4899325  45.8662462  64.2978239  12.1939552  45.3154707
  63.4799147  10.9215653  45.2603817  72.4162149  67.3042631  35.6749916
  71.7324400  66.7892647  36.1033106  72.8987265  67.7085257  36.3960934
  68.3482265  29.5733237  24.3779707  68.8603878  30.3450823  24.6194601
  68.0356646  29.7606492  23.4928465  65.7168341  16.6228878  35.6516528
  65.2968407  16.7350376  36.5044475  65.0757694  16.9553542  35.0233769
  15.0569294  16.5169437  22.0083070  15.3182934  17.4366004  22.0546484
  14.2860458  16.5153224  21.4408803  11.6096169  60.5374098  25.3848290
  12.2340637  59.8460722  25.6046939  11.5649754  61.0792589  26.1726379
  20.9372129  11.0863166  11.3711775  20.1497640  10.7256989  11.7787445
  20.6152143  11.7936330  10.8123816  65.3470516  40.0736713  54.9350882
  66.3038445  40.0531101  54.9538612  65.1178122  40.9156418  55.3285027
  58.6815023  19.2534328  60.0296211  57.8840065  19.4516754  59.5387650
  58.9333868  20.0881767  60.4245710  75.7615089  48.8789272  40.4906225
  76.5898418  48.6621714  40.0627089  75.1682329  48.1722593  40.2359056
  63.7573242   5.7450265  55.6039715  63.6417866   5.7947212  54.6550703
  62.9932880   5.2582872  55.9131098   4.9172010   9.7471480   6.3763178
   5.6253924   9.3658118   5.8573998   4.2529311   9.9915891   5.7319391
  62.5446081  19.6174109  60.5145264  62.0305109  18.8100624  60.5254984
  62.3819208  19.9932218  59.6493530  80.8832455  38.1560159  20.8689809
  81.1675453  37.9019833  19.9909890  81.5989017  38.6950660  21.2058735
   9.6114673  39.2854409  23.1080044   8.8220634  38.7890820  23.3241165
   9.5792999  40.0492673  23.6839951  11.9151741  29.1129851  49.2524481
  12.4874455  29.6862912  48.7424850  12.5046116  28.4592843  49.6285677
   4.9980980  11.1868680  32.9842997   4.6676880  10.7609129  33.7752628
   5.6022221  11.8555760  33.3069324  78.5282755   5.4933983  27.1573615
  77.5847626   5.3690559  27.0546341  78.6166811   6.3823682  27.5010872
  10.4571007  76.0599945  35.5448235  10.4220579  76.0007975  34.5901001
  11.3212679  75.7183430  35.7744301  48.3271980  15.8887219  65.0451565
  48.1988955  16.8298471  65.1637173  48.3147621  15.7629538  64.0963364
   4.1391895  70.9817431   3.6378944   4.2337892  70.0586984   3.8729847
   3.5685680  70.9759090   2.8693951  49.3087616  11.6576772  12.3203075
  50.1765670  11.2560515  12.2772921  49.2789449  12.0717006  13.1828201
  10.7153461  52.0742486  31.3230789  11.5654896  52.4872062  31.4745701
  10.0774191  52.7604053  31.5192211  78.5313511  30.6943274  54.9660301
  78.2492495  30.1514030  55.7021570  77.7590084  31.2131858  54.7412872
   4.8665386   7.4521172  36.0465503   5.3883034   6.6533864  36.1241436
   4.8890454   7.6631826  35.1131821  79.1439915  46.1159325  39.5356727
  80.0515079  45.8841419  39.7329712  78.9861155  45.7471323  38.6665964
  28.5047672  54.7724614   1.0764874  29.2981480  54.8066995   0.5420721
  28.5528896  53.9270351   1.5227688  60.1947991  72.4852250   0.4706944
  60.3105919  73.1222532   1.1756933  59.2833797  72.2036050   0.5496681
  68.0430069   3.7013392   0.5345810  67.7539005   4.4673400   0.0387037
  68.4135475   3.1149154  -0.1249897  32.8908563  25.2671671  65.9080076
  32.7655506  24.4860506  65.3691339  32.0423698  25.7098246  65.8891058
   2.2194630  35.3609467  50.2730989   2.9039055  34.8018885  49.9053621
   1.4210850  34.8370552  50.2070379  54.5868444   4.7682932  64.2010689
  54.9642181   5.3344315  64.8743486  53.6579561   4.9989766  64.1872263
  76.3884536  70.8871577   7.0664490  76.2208215  70.0019834   7.3898638
  75.5711166  71.1452577   6.6403330  70.8334255   6.1955440  33.2009292
  71.4685249   5.6404793  32.7483940  70.9849739   7.0714444  32.8458738
  50.5873871  19.7560525  51.9732761  50.4939842  20.6914139  52.1538496
  50.9576654  19.7181714  51.0914087   0.3670555  26.0668111  30.8597636
   0.2296501  25.2864623  31.3967943  -0.0095981  25.8415198  30.0091147
  10.4166363  27.1875296   3.6039675  10.6148146  28.1209526   3.5286177
  10.2208946  26.9112048   2.7086676  72.6712275  19.7128987  54.6597624
  71.9407654  20.3292274  54.6068764  72.6305866  19.2223060  53.8388491
  71.7210817  59.6440649  48.7470531  72.4711418  59.1718006  49.1084576
  71.5860271  59.2540932  47.8833914  48.7604666  30.2269554  57.6924276
  49.2490435  29.6375179  57.1178961  47.8832722  29.8463392  57.7360010
  51.4435530  35.0743866  51.8822289  51.4767599  34.6175051  52.7226973
  52.1840382  35.6803274  51.9095898  15.5877246   1.3388472  33.8665283
  15.1283350   0.9077220  34.5871628  15.0014581   2.0461802  33.5978306
  17.2077614  48.9774799  64.9870491  18.0026394  48.7676764  64.4967604
  16.6526467  48.2043266  64.8855114  76.9261408  58.1798553  25.6720257
  75.9862423  58.3561277  25.7138824  77.1793556  58.0137825  26.5800643
  13.8392446  46.1718980   0.6061447  12.9612253  46.0119859   0.2601040
  14.0441559  45.3856067   1.1120976  57.5103990  47.5900856   7.9698122
  58.4061662  47.2685627   7.8675688  57.6119606  48.5160480   8.1900633
  19.5988041  25.2119970  37.4439788  18.8409764  24.6295571  37.4959350
  19.4892174  25.8138704  38.1801677  70.0365162   7.6715285  44.8236656
  70.8574629   7.8456277  45.2840662  70.2458429   6.9563532  44.2228889
  47.6962900  39.2196488  65.5648232  48.4661436  38.7916732  65.9395075
  47.6095152  40.0336123  66.0609674  46.3593825  72.7990379  38.8025331
  46.0455044  72.5802939  37.9251146  46.0243567  72.0959192  39.3589616
  13.2940441  41.9038725  58.2282829  13.7757927  41.1030340  58.4351921
  12.4132496  41.6026974  58.0052853  75.2220766  50.5312464   1.5424336
  74.9833385  49.6078036   1.4618862  74.7830526  50.8233354   2.3412931
  75.5524683  37.9971480  31.2993455  76.4349937  38.1557870  30.9643698
  75.4916334  37.0446825  31.3724089  64.8412561  28.5602450  42.5148249
  64.6645832  29.4774652  42.3057222  65.6270075  28.3469057  42.0115137
  71.3087225  44.9756479  61.6149139  70.4305458  44.6055174  61.7045975
  71.7347813  44.4250154  60.9580183  69.1533709  22.1774244  38.7649536
  69.9108791  21.5953135  38.7052870  68.9397097  22.1976137  39.6977854
  72.4544001  16.8925118  61.1395693  72.9827547  16.2985706  61.6727781
  71.6282034  16.9716239  61.6164064  78.6990078  73.8130938  23.8398147
  78.0448826  73.2206055  24.2103720  78.9478882  73.4062212  23.0099082
   4.6273571  43.8219595  51.3819027   3.7738854  43.4762001  51.6431761
   5.0169712  44.1390181  52.1967077  16.7470986  23.3470130  56.3841486
  16.3188702  22.5269413  56.1385202  17.5994068  23.3115745  55.9499216
  64.8571968  42.5724506  26.2224698  64.8354387  43.4008265  25.7433534
  65.7740641  42.4665213  26.4761829  67.8749180  26.4144421  28.8496304
  67.0744085  26.6583443  29.3143058  68.5563135  26.9584775  29.2445540
  59.5095778  21.9940829  40.0518131  58.6645651  22.3617697  39.7929740
  59.3875074  21.0466957  39.9902606  10.9533554  55.1950645  53.8793325
  11.5625435  54.5674515  53.4904528  11.3504177  56.0497141  53.7115479
   0.1630169  46.7967844  57.9944229   0.2842861  45.8972406  58.2983065
  -0.4142994  47.1940804  58.6464071  71.4307777  68.2782028   2.7904070
  70.9629099  67.4587820   2.9512728  71.2783996  68.4630583   1.8636692
  32.3509683  15.1655774  28.6922920  33.1961956  14.7230821  28.7698639
  32.1929969  15.2166753  27.7496040  73.2439280  35.6081629  33.5934854
  74.0727758  35.8131981  34.0261602  73.2452726  36.1498833  32.8043270
  22.1900368  34.7973347  31.3141942  22.0245314  35.1862335  30.4553604
  21.9598436  35.4863453  31.9374967  63.9959669  32.4993229  11.0501909
  64.2308378  31.5981793  11.2715733  64.5930672  32.7349186  10.3401196
  54.0691710  35.9575915  59.3662786  53.3984137  35.2948976  59.5310545
  53.5873175  36.7841721  59.3377590  50.8582163  16.4952564  63.3868313
  49.9364281  16.7417538  63.4627867  51.2604237  16.8211675  64.1919708
  18.7690542  62.1935556  17.0133484  18.7209080  61.9093225  17.9261101
  17.9410456  61.9057725  16.6288841  80.9141771  54.5994530  12.7949894
  81.0280840  53.6677788  12.6072681  81.4828865  54.7634814  13.5472525
  69.7012520  23.7769365  56.7724323  69.0924501  23.2498360  56.2549782
  70.1616383  23.1417322  57.3208761  76.4576149  23.1555390  38.8299155
  76.3958693  23.8252258  38.1487846  75.5545044  22.8695822  38.9672184
   3.8080364  66.6051722  43.8459587   4.2921120  67.3685598  44.1608238
   3.6318833  66.7965078  42.9247665  57.6912260  50.6221008  64.2287636
  57.1677303  51.4156580  64.3403816  57.1137667  49.9126244  64.5105648
  33.9870785  38.2613057   5.8758390  34.3341587  37.9248912   6.7020309
  34.7244404  38.7229400   5.4765547  67.2609568  27.9391003  56.8886662
  66.8276358  28.0704522  57.7320004  68.0267334  27.4026990  57.0938349
  79.0658236  51.2739563  40.8559322  79.3686438  50.3674936  40.9093618
  79.2205048  51.6301203  41.7308331  19.0113503  32.9726005  66.6103888
  18.2656056  32.3870850  66.7417669  19.1365773  32.9917741  65.6616068
  13.8453347  52.0244455  62.3894215  14.3645626  51.8310595  63.1699562
  13.2776409  52.7487373  62.6527929  49.9909449  33.0094600  59.0801907
  49.5642662  33.7360311  59.5343637  49.5764017  32.2254086  59.4402552
  67.9636192  22.4756122   8.3500046  68.2726717  22.3949695   7.4476671
  67.0345020  22.2496891   8.3060426  23.5462894   4.9278979   3.6890352
  23.3594694   4.5260243   2.8406036  22.7139844   5.3163056   3.9585436
  44.9785280  25.7268357  54.1141987  44.6591282  26.2412095  54.8555756
  44.9796343  24.8238993  54.4319057  73.6287125  69.5341306  34.0114856
  74.3760117  70.1088660  33.8457870  73.8930138  69.0094452  34.7671843
  48.0973101  18.6367536  53.6009169  47.4395323  18.5377288  54.2892170
  47.8726244  19.4623983  53.1718969  10.8619736  15.5324242   2.5445116
  11.7440174  15.7909606   2.8116930  10.4695938  15.1655767   3.3367813
  64.0831375  23.4117103  58.3438969  63.3937931  22.7558732  58.4483719
  64.8986053  22.9164934  58.4213734  19.0750064   6.1359744  19.6129787
  18.7327041   6.7905669  20.2217281  18.9138546   6.5078788  18.7458313
   0.7138306  67.2373056  37.6165390   0.5301243  66.3155890  37.7979803
   0.7664925  67.2876644  36.6621161  79.0192405  66.6205404  20.7738388
  79.6817199  66.0306261  20.4141892  79.5121805  67.3914359  21.0548389
  23.0338436  25.2873802  32.1006870  23.9741951  25.4566216  32.1584749
  22.6520973  26.1335516  31.8672371  65.5475664  55.5349064  13.7261641
  65.5598974  54.6754551  13.3049440  65.7045412  56.1535311  13.0127978
  28.7743497   2.9228917  34.1852736  29.1413617   2.7029705  33.3290195
  27.8502345   2.6824620  34.1186762   3.6583382  32.6672077  54.3012762
   2.7401501  32.5074625  54.0829802   3.6267430  33.1822705  55.1074696
  53.9904594  58.7568140  35.6359720  54.7666502  58.2941628  35.9517431
  53.8778353  58.4494686  34.7364783  79.0552092  22.6518941  38.8768291
  78.1046343  22.5527692  38.9298201  79.1919327  23.2696533  38.1585598
  59.2430592  12.2884488  56.2143183  59.0226746  12.7000022  57.0499563
  59.9893570  11.7236328  56.4149618   7.4251801   6.5278751  46.4303112
   7.6687294   6.9265413  45.5948544   6.4691311   6.4873546  46.4066887
  31.5386619   0.7541327  27.2449673  31.9844856   0.6158166  26.4092911
  31.5785160  -0.0968380  27.6814163  15.0640160  40.9476471  47.3142767
  14.5263249  40.8591127  48.1012201  14.5066029  41.4189816  46.6951132
  29.6897497   7.9179244   0.7667387  29.7728672   8.5551219   1.4761723
  29.3526687   8.4246545   0.0279367  60.7458544  34.7107172  44.6030855
  60.1470137  35.1811266  45.1830292  61.5477514  35.2333236  44.6119022
  13.8217884  39.4070959  62.7977180  13.0146843  38.9110184  62.9345560
  13.6031777  40.0349617  62.1090746  24.1667708  68.3918904  27.1320510
  23.9676197  68.4576206  26.1981082  23.5548504  67.7337693  27.4616909
  50.4432821  28.4491324  46.8672323  51.2308836  28.5809708  47.3949957
  50.5197859  29.0884542  46.1589622  72.3125648  39.5798850  39.0060592
  71.7556477  40.1092958  39.5768452  73.1238413  39.4664073  39.5012188
   1.7922169  40.5627680  46.6517210   1.6123635  40.8579636  47.5443268
   2.6011521  41.0132122  46.4089060  46.0306660  63.2010792  34.9327076
  46.3158456  64.1118047  34.8586643  45.8306603  63.0875180  35.8618629
  35.4540147   8.6581664  26.8789089  35.9144296   9.2347436  26.2691486
  34.5292463   8.7618356  26.6546524  80.6304638  73.7387822  17.3637474
  80.9470789  72.8416727  17.2580040  79.6859018  73.6463068  17.4881828
   8.0088764  29.1996050  37.2028542   7.4203545  28.6209798  36.7180109
   8.1720597  28.7398052  38.0263734  78.8471603  47.6172400  51.3721752
  78.2520533  48.2510471  51.7726374  78.7584543  47.7669477  50.4309273
  20.0589083  66.7903064  14.4836224  19.5068834  67.5710700  14.5272720
  20.2011965  66.5461467  15.3981579  47.0442722  71.3591097   4.6086729
  47.4995754  71.9916675   5.1643694  47.4371860  71.4739774   3.7434233
  60.8066978   0.0952558  -0.2205288  61.5805854  -0.1651211   0.2790010
  60.5436267   0.9314446   0.1639355  13.4782368  15.6346226  46.2897110
  12.5689656  15.7414687  46.5690422  13.7835461  16.5261483  46.1217737
  60.6472588  23.9101720  33.5214257  61.5253210  23.5460949  33.4087801
  60.7956362  24.7923779  33.8619089  11.7717415  23.4664989  54.2904139
  11.9413620  23.1732655  55.1856661  12.1279484  24.3543458  54.2576504
  73.3647013  50.1972485  45.2447605  73.6406994  49.4484997  44.7161436
  72.5304985  49.9256516  45.6276083  58.7350504  60.9099553  22.3143375
  59.4632451  61.2875841  22.8076542  57.9520671  61.2795398  22.7224720
  42.7507933  73.4642877  25.8278823  43.0233534  74.3467653  26.0792303
  43.0403574  73.3736305  24.9200487  64.9501743   1.7600112   0.6698216
  64.7042694   2.6609378   0.4598272  65.8909168   1.8023162   0.8414305
  66.8255138  34.4871044  55.0946665  66.0987043  33.9113212  54.8570585
  66.7642546  34.5698881  56.0463095   1.8865315  38.9698083  64.2211906
   2.8256623  39.1410871  64.2914265   1.4974848  39.4703595  64.9383535
  80.6801025  32.1556775   1.4167679  81.0922472  31.6068295   2.0839489
  80.2114765  32.8259967   1.9140518  23.4521625  41.7542935  12.2407616
  24.0135429  41.6149423  11.4780891  23.0313347  42.5983564  12.0773829
  15.1091049  68.6782215   3.1459845  15.6971119  67.9568670   3.3698786
  14.2504404  68.2662795   3.0498875  11.3587528  26.1997485  57.6446342
  11.3001972  25.2447271  57.6174784  11.8619305  26.4311552  56.8639374
  30.7866706  38.4345250  20.0351227  30.3240146  37.6007037  19.9519146
  30.8826246  38.7460475  19.1351402  59.1830730  10.7883537  31.8157411
  59.3728304  10.2505958  32.5845337  58.7326908  11.5568233  32.1662307
  61.0239220   6.3019913  18.2427669  60.6987619   6.2229836  19.1395724
  61.9137955   5.9512007  18.2788682  16.1434990  47.1922445  33.2279110
  16.7199379  47.8534555  33.6109948  16.7310864  46.6174078  32.7374697
  68.3922424   1.1932878   2.2665775  69.0241661   1.5016727   2.9160440
  68.3657875   1.8885427   1.6091955  58.2161846  14.1642718   9.5284737
  58.4587802  15.0006061   9.1310728  57.6647605  13.7382607   8.8722122
  67.4738169  71.3963318  15.4381835  66.8274832  72.0074749  15.7917166
  66.9777203  70.5959749  15.2662802  66.1894226  17.8755522  47.0531511
  66.8363285  17.5007188  46.4554548  65.6288004  18.4125495  46.4931774
   9.1124493  28.5852361  32.9580688   8.8072640  27.9149222  32.3467016
   8.5653931  29.3478560  32.7700043  60.8432674  47.3472977  44.9033642
  61.3804674  48.1393957  44.8883057  60.2380800  47.4543476  44.1695261
  64.4520569   9.5296407  63.5001898  64.2272329   9.0546578  62.7001429
  64.2617941  10.4453719  63.2965517  50.2846917  59.5746534  26.4250922
  49.9769123  59.9934643  25.6212878  49.6585806  59.8512905  27.0941877
  58.8905287  37.9125810  49.9236441  59.7961044  37.7692628  49.6486425
  58.3988523  37.9765821  49.1048717  10.8610779  37.5315285  55.0836372
  10.6516033  36.7724252  54.5394754  11.6334969  37.2635508  55.5814314
  70.9583092  45.5758572  44.5706463  71.5716457  44.9629593  44.1651726
  70.7812262  46.2238359  43.8887358  66.9115035  65.8030007   7.8737867
  67.1906368  66.5681265   8.3766783  66.2113277  66.1300395   7.3089588
  18.5972450  64.8071764  13.1995619  17.7971933  65.2091429  12.8610695
  18.9529894  65.4561088  13.8066566  60.2347565  16.7750728  59.3220425
  59.7168684  17.5690091  59.4550419  60.5396843  16.8368554  58.4168148
  24.6680258  30.9821747  12.1085394  24.4852589  31.8717478  11.8060720
  25.3085993  31.0948531  12.8108252  69.6339226  45.4293776  64.4598675
  69.1220284  44.6274710  64.3543577  70.3265285  45.3595924  63.8028622
  65.1673555  13.6751556  40.2059317  66.0685873  13.7016678  40.5273485
  64.6422100  13.4775174  40.9814262  76.7462579  39.9607927   3.1416405
  75.8397810  40.1835204   2.9296959  76.7130844  39.6608495   4.0500248
  17.9018925  51.2699530  10.5402172  17.7689550  50.3231762  10.4935825
  18.7378118  51.3723228  10.9951771  17.6035537   0.6199150   3.7803543
  17.7641048   1.4715652   3.3739698  16.8531646   0.7669334   4.3561495
  76.8843834   6.7968852  44.0146351  76.9857065   7.5877769  43.4850645
  76.1139051   6.3614948  43.6499023  13.2948643   6.5498102  55.6921101
  13.8317162   6.8168455  54.9459791  12.4568993   6.2956941  55.3054953
  67.1702043  38.5038348  21.1406792  67.6912014  39.2691851  21.3836468
  66.3448230  38.8677903  20.8205021  44.8468063  48.0730180  25.0043190
  44.7619389  48.2146380  25.9471691  44.7785137  47.1242497  24.8975170
  62.5360727  14.7007275  55.4328060  62.9277658  13.9091241  55.8018255
  61.7292738  14.3971550  55.0166893   6.1563394  40.8127456   6.9064367
   5.3924749  41.3715182   7.0496786   5.8369587  40.1113833   6.3387049
  76.0510588  21.3489413  49.4246769  76.7488861  20.7178426  49.6006870
  75.6665373  21.0565662  48.5983038  12.6207016  75.5921624  14.9623287
  13.3819769  76.1523936  15.1134289  12.9806183  74.8031161  14.5572460
  55.7968187   7.4739915  35.6283092  56.1563063   7.6737785  36.4926505
  54.8709536   7.7078259  35.6940913  40.7795085  15.1053958   3.6054552
  41.1080875  14.7279887   2.7894724  41.2847604  14.6692853   4.2915762
  70.3244724   0.6996779  19.7708309  70.4264583   0.1074581  20.5158794
  71.2154617   0.8338480  19.4477928  31.1116552  24.6895385  61.4122868
  30.2540970  24.2643309  61.4170980  31.5915632  24.2689085  62.1257210
  55.1899862  10.3283942  49.6238661  55.4189205  11.2309384  49.4019699
  54.4201469  10.1378775  49.0878820   3.9968067  68.8834095  37.6909590
   4.6322018  68.1780958  37.5683045   3.4068066  68.8073587  36.9410610
  63.0381171  50.9653530  13.4636248  62.8679673  50.4941879  12.6479757
  63.8883297  50.6375311  13.7567127   5.1925141  22.3240757  48.2463551
   4.5603806  21.8315268  47.7228737   4.7740036  23.1726503  48.3912563
  19.0241851   7.6962285   8.9969051  19.8823251   8.1129508   8.9183128
  18.4403457   8.2507472   8.4793366   0.9586159   1.8217368  65.6231428
   1.4031140   2.5037546  65.1196464   0.0322310   2.0591660  65.5822670
  67.6616470  50.8856735  26.0056007  68.5286991  50.6998561  25.6451500
  67.7256767  51.7827902  26.3331879  11.0595449  62.5920050  60.8604288
  10.9701475  61.7285757  61.2638283  11.4422782  62.4163013  60.0008535
  28.2154606  59.8611257  26.6832531  28.5633896  60.7153127  26.9392670
  27.2865246  59.9030540  26.9103230   3.3332020  35.7925916  34.2123175
   3.1116730  36.0978651  35.0920725   3.5513741  36.5900517  33.7299395
   3.2484386  69.6590421   6.7462528   3.7441013  69.6154568   7.5639666
   3.8880203  69.4456265   6.0668266  41.5576744  14.2882740  64.3700457
  40.7977486  14.0741920  63.8288307  42.2628164  13.7447107  64.0185642
  74.6993685   2.4709237  22.0716953  74.7121572   2.2955088  21.1307931
  74.1084862   1.8089704  22.4307346  62.6201582  61.5111065  27.9643416
  62.6748943  60.9640360  28.7478924  63.5241985  61.7746592  27.7926111
   1.1590248  32.0916486  38.0834579   2.0331341  32.4756193  38.1523132
   0.6128460  32.6363015  38.6502647   9.4859082  22.4119639  48.4220505
  10.0133663  21.6426778  48.6370373   8.7473160  22.0639467  47.9224443
   5.8955954  61.8837188  17.8617371   6.2777088  61.0061023  17.8587425
   6.2413929  62.2982071  17.0712650  70.7881832  38.2361293  60.2135324
  69.9352217  38.5236144  59.8878908  70.9799433  38.8298583  60.9394407
   3.3352238  62.1331501   1.4951912   3.4021431  62.8519773   0.8666715
   3.4545761  61.3427305   0.9686708   4.4576786  28.3213613   1.7959774
   3.5660122  28.0941603   2.0596779   4.3533037  29.0914617   1.2371529
  55.9748210   7.5481181  20.7464397  55.3020324   8.0673652  21.1868656
  56.4649524   8.1838708  20.2250851   2.3461308  70.6831931  21.3573885
   3.0846848  70.1094889  21.1533356   1.8428673  70.7241653  20.5441976
  80.0532532  19.5723236  42.0708084  80.2076149  19.8608291  41.1712742
  79.8376417  20.3747582  42.5460386  12.0642946  73.7184713   3.2302368
  11.8546532  72.8098629   3.0141056  12.9272793  73.8639066   2.8425015
  31.7889728  10.3772597  18.2384289  31.2187900   9.8644786  18.8112915
  32.1193828  11.0809140  18.7969387  63.2548714  36.7893887  53.0504704
  62.9867649  36.9255042  53.9592171  63.5552883  37.6498556  52.7579355
   5.2983624  53.9186668  43.3777046   5.7740074  53.4697676  44.0766239
   5.0630432  54.7665739  43.7544203  39.7071979   0.0290496  29.1729617
  39.0714119   0.7014520  28.9282584  39.5340107  -0.6947367  28.5709929
   1.5989627  22.4767213   6.3363445   0.7437243  22.0825629   6.5079153
   2.0915546  21.7923646   5.8833159   2.0934731  39.2539692  60.3419209
   2.7952343  38.7636757  59.9136972   1.7202622  38.6373067  60.9717369
  74.2419720  62.5037622  21.1598539  74.2313480  62.2712040  20.2313948
  73.3367443  62.7445889  21.3568139  59.8233223  63.4036732  43.0905914
  59.1252327  63.5019302  42.4430943  60.5148077  62.9308844  42.6273966
  33.6407127  44.8257928  15.0786102  33.1591787  45.6511216  15.1350678
  34.5583906  45.0761037  15.1856125  45.2759876  19.8051934   9.7320116
  46.2311687  19.7671561   9.6829117  44.9812498  19.0145259   9.2801226
  73.1240940  33.5190248  46.0891485  72.7636766  33.7910604  46.9331408
  72.8055954  34.1757131  45.4698324  11.5394837  65.5036831  42.0655870
  10.9210163  64.7842550  41.9384575  11.4518696  66.0372400  41.2757349
  62.1283760   8.6866479   5.6478680  62.3737087   9.4234328   6.2074936
  62.0252266   7.9511600   6.2517298  67.0628262  43.9040041  63.9816332
  66.1364794  43.6633825  63.9668560  67.4208355  43.5278940  63.1775188
   1.5284411  57.1069379  54.5101940   0.9456603  56.4270098  54.1721153
   2.3813931  56.9040270  54.1260921  65.6268024  45.0435686  61.2597418
  65.6377029  45.2760696  60.3312683  65.3908873  44.1159725  61.2716103
  62.8606979  55.5347107  20.4894531  61.9709841  55.1816652  20.4880703
  63.4040634  54.8134969  20.8069981  74.9334764  26.5891409  27.7157140
  74.8614979  25.7206392  27.3197889  74.4862843  26.5062213  28.5579562
  65.1815748  64.0212536  53.5511589  65.7183170  64.2437410  54.3118429
  64.3197727  63.8209915  53.9164400  21.1991745  36.7795038  48.6392069
  21.3179451  37.7293086  48.6399937  20.2865273  36.6520309  48.8981438
  15.2578972   4.8882205  11.6043019  16.0637567   5.1548106  12.0467341
  14.9321411   4.1524894  12.1227753  41.1674166  18.5483682  59.4729996
  41.3803673  18.0420339  58.6890888  40.5027151  18.0262029  59.9221611
  71.3818455  27.6288819  51.9785929  70.7708168  28.0089617  51.3473940
  70.8544731  27.4817753  52.7637482  20.9469984  75.1929853  11.4335812
  20.7745026  74.7068880  12.2399223  20.9810112  74.5218394  10.7519377
  60.3261185  26.4720917  37.8823352  60.2817822  25.8231091  38.5845375
  59.5170355  26.3446546  37.3869801  50.4063119   6.7985826  19.5709503
  50.4885473   6.4478688  18.6841190  51.0241737   6.2840037  20.0902641
   4.8308617  75.5343342   1.1422705   5.4616982  76.0114479   0.6031575
   4.7590405  76.0536814   1.9431135  69.8925114  36.8705273  51.2052774
  69.4398594  37.0085764  52.0373106  70.7913876  36.6556215  51.4544106
  68.6916256  14.1928947  61.9846773  68.4025860  13.5038650  61.3864040
  69.1549826  13.7269330  62.6806736  71.2006466  74.8905704   5.0945604
  71.3934795  75.6826613   4.5929230  71.6214983  74.1863606   4.6014059
  71.2362194  25.9063435  27.4389768  71.9898653  26.2214088  26.9399905
  70.5274296  25.8581495  26.7974734  59.7350852  69.2737100  14.1689480
  59.9594371  69.1761873  13.2435406  59.0192334  68.6537717  14.3084705
  66.4780378   5.4538208  31.7033768  66.8413591   5.8752036  30.9244895
  67.1858692   5.4887474  32.3467946  75.6427662   8.0264575  51.9492722
  75.9241239   8.8175399  52.4089003  76.2190048   7.3383720  52.2820234
  21.4218567  75.3759573  45.3874290  21.8970917  75.9904502  45.9467018
  22.0565651  75.1216481  44.7175777  73.8877678  64.1095304  12.8406119
  73.7444592  63.7501955  13.7161529  74.7452211  64.5318127  12.8924215
  22.0496327  61.4073896  48.3851671  22.0098454  60.7101536  47.7305603
  21.1340863  61.6296387  48.5543156  55.9360160  50.2309804   6.5220917
  56.5154304  50.0522141   7.2627342  56.4661636  50.7591729   5.9252823
  67.8166723  33.5775852  61.0622549  68.4246492  34.0927219  60.5319452
  67.1652269  33.2584810  60.4377365  13.0591764  33.1769471  10.1256979
  13.2059326  33.5070853  11.0120953  12.7161064  33.9293628   9.6436155
  75.8492603   4.0065484   3.2655323  75.9488525   4.9214892   3.5285938
  76.5590038   3.8584094   2.6405848  35.5896042  73.7121079  31.1534203
  35.4416798  73.1222341  31.8926037  35.2766846  73.2244609  30.3915012
  12.1915291  64.1073845  22.8015507  12.5897549  63.8648770  23.6375130
  12.1591947  63.2894323  22.3054207  51.9345379  35.7225013  64.2317247
  52.4898434  35.8074927  63.4567070  51.1869431  35.2035856  63.9349747
  69.4227171  26.5479326  57.5441456  69.1832256  25.7212090  57.1253347
  70.0279951  26.2965059  58.2417488  39.6338977   4.4205003  33.7342918
  38.7314596   4.6583943  33.5215843  39.6074619   3.4725003  33.8640202
  11.0832459   7.2887743  59.9677086  11.2024933   6.3963622  59.6427298
  11.8479592   7.7654350  59.6448374  18.6433599   0.6360824  43.9938068
  19.1313885  -0.1297419  43.6912060  17.7361582   0.4542262  43.7485600
  71.7247438  10.9412408  45.5036831  72.3126221  11.4016151  44.9047804
  70.9960318  11.5473807  45.6371164  55.4314232  68.6810589  56.4138699
  56.1606407  69.1443634  56.0017681  54.6654415  68.9331102  55.8981419
   2.1310288  63.3372593  48.8670492   2.0443970  62.9366398  48.0020475
   1.3088661  63.1291056  49.3108368  70.0749207  41.1873007  55.7237959
  70.7512665  40.6159163  55.3600550  70.1437950  41.9945621  55.2140665
  79.8388958  38.6060977  46.3430548  80.5562305  38.0091071  46.5558195
  79.0564156  38.1702352  46.6806650  17.3463017  26.5874743  55.4714775
  17.4870831  27.3203921  54.8721075  16.9702679  26.9879413  56.2553501
   5.1870916  65.4698704  10.1433409   5.0537441  66.0322712  10.9063328
   5.3570841  64.6028707  10.5116404  75.7330551  50.3375726  15.8561886
  76.3583889  49.6341519  15.6818569  75.2314510  50.4186158  15.0449837
  33.9560364  47.3222575   8.1581629  33.6352489  48.2134960   8.0202425
  33.6727856  47.1003310   9.0451515  18.0641705  60.1839399  22.6315594
  18.6085278  60.1480627  21.8450308  18.4508473  59.5357227  23.2202244
  76.0013390  50.2000141  30.4857111  76.9517040  50.3141499  30.4835963
  75.7986450  49.8629379  29.6130562   1.1166340  53.4190845  32.3067713
   0.9162003  54.2808819  32.6719522   1.2758023  53.5838938  31.3773990
  12.5451523  31.9764924  25.1907063  12.4213654  32.4924517  25.9873843
  11.7085415  31.5294194  25.0624871  23.7557274  67.7566624  22.2907472
  22.9071385  68.1981707  22.2559786  24.2688042  68.2725191  22.9127312
  41.5461578   6.0860972  20.6106079  41.5227832   5.8951240  19.6729458
  42.3027315   5.5980639  20.9356487  42.4233570  20.5690436   5.3246105
  42.5335111  19.8131375   5.9014118  41.6666164  20.3478580   4.7817886
  12.5713784  14.4413030  33.7602448  13.4673554  14.7399008  33.6043668
  12.6581246  13.7627316  34.4297576   0.5749947  50.1874971  47.6428413
   0.9957558  50.2748632  46.7875290  -0.3619045  50.2474403  47.4561071
  58.4897947  67.5821066   0.2356956  57.7867460  67.6055145  -0.4134624
  58.5362816  66.6648817   0.5054413  61.7294168  32.3909116  64.7694731
  61.7746401  33.1168604  64.1472292  62.5753736  32.4060702  65.2170849
  76.5356922  20.0797296  46.7614412  76.7063475  19.1802859  47.0409250
  76.0734653  19.9880338  45.9282732  74.4597721  23.5664606  44.4763947
  73.6053276  23.2362914  44.1986465  74.5350027  24.4218850  44.0535212
  -0.0112385  46.9479036  48.3190870   0.4019982  46.1100912  48.5277367
   0.2548462  47.1282434  47.4174738  21.6718052  72.5748871  16.2686050
  21.2049148  73.2726262  16.7284000  22.5798557  72.8758381  16.2353600
  63.4960651  37.2304153  21.0627198  63.8954830  37.7956772  20.4015279
  62.7928543  36.7774272  20.5973911  73.6018515  41.5539742  59.8674488
  73.4883833  40.7992744  59.2897034  74.4599342  41.9078207  59.6335220
   5.6001717  68.1196642  53.9447021   5.5478340  67.4640322  53.2492590
   6.2214428  68.7691069  53.6153364  52.5294675  21.5419059  24.5337666
  52.4524440  20.7366900  25.0455559  51.6427745  21.9021707  24.5191753
  69.9787235  39.3888783  30.6781125  69.1090775  39.0433478  30.4767275
  70.4065466  38.6885095  31.1707425   0.8497006  41.2142563  58.6678410
   0.2934605  40.7456636  58.0455446   1.0978371  40.5521441  59.3130302
   1.5124033  56.0541830  18.1664265   0.9889362  55.8787475  17.3844803
   2.4165819  56.0628031  17.8523815  76.3961077  50.8204842  64.1462517
  76.5753317  50.1035213  63.5379124  76.0903883  51.5364122  63.5892820
  68.4384441  50.1374054  14.6085513  68.8488150  50.5369186  15.3755033
  69.0143061  50.3701830  13.8802457  22.5545452  66.7871068   2.6393784
  22.4511097  65.9026716   2.2882307  23.3053110  66.7241023   3.2298124
   7.9643677  11.8885905  51.9338274   8.2228754  11.0817439  52.3792601
   8.7645576  12.4130828  51.9047976  56.7668819  57.1089220  13.4326041
  57.3781347  56.8906879  14.1361487  56.1339855  57.7002525  13.8400376
   9.4185215  38.0800343  15.2360845   8.9656407  38.3498788  16.0350311
   8.8815647  38.4316945  14.5259833  16.1315304  59.1863108  57.7427387
  15.9085900  59.3390799  56.8244839  16.5387970  60.0036955  58.0295181
  23.2945917  76.3279937  23.4792030  22.4531410  75.8830211  23.5801590
  23.8636444  75.9144113  24.1283310   4.5403534  54.1253138  62.1357632
   3.6142594  54.3358660  62.0164347   4.9010140  54.1203213  61.2491226
  53.2697296  54.0960026  63.5601377  52.7072191  53.3450842  63.7497044
  53.0994701  54.2965174  62.6397896  11.8912464  47.1395683  39.2763686
  12.1586758  46.8533850  38.4029770  10.9345681  47.1425629  39.2449450
  52.8474196  10.5245020  65.7955620  53.4821900  11.2298252  65.9213117
  52.6837118  10.5149224  64.8525136  74.7281218  67.0775795  31.0252428
  74.8038816  66.2109327  30.6259727  74.2727709  66.9211674  31.8525410
  62.8043509  66.1276579  36.7898560  62.1740818  66.8433094  36.7071915
  62.2661018  65.3366709  36.8192482  39.7224226  44.8191743  19.2700375
  39.1126861  44.3278794  19.8205746  39.1886653  45.1277642  18.5378445
  67.1640158  48.5508871  60.0635910  67.4373341  49.0583086  59.2993593
  67.8530502  48.7023020  60.7105350  13.1461086   4.3693261   3.2775772
  13.9921321   4.6987872   2.9743708  13.3499994   3.5305266   3.6911858
  23.1148328   0.8988123  12.7775276  24.0334882   0.9271793  12.5101364
  22.8376045   0.0025873  12.5873840  68.3567190  44.7370291  61.2699223
  68.5612631  45.0776339  60.3990698  67.4329138  44.9512768  61.3999987
  55.7677746  76.2196255  54.8106718  55.6767797  77.1545458  54.9947309
  55.7345867  75.8017588  55.6712008  71.1034155  12.5889814  36.2267303
  70.2997684  12.8984046  36.6446352  71.0705423  12.9558945  35.3432560
  27.0048664  46.0547862   4.9832666  27.4457119  46.6026918   5.6326378
  26.0770462  46.2699232   5.0785816  58.7971926  47.2167015  42.8324127
  58.2630730  46.5160275  42.4582386  58.3255482  48.0203533  42.6134729
  11.9049507  34.1926908  26.9666028  12.0335728  35.0229406  26.5079355
  11.0495240  34.2812514  27.3868752   2.3168522  57.2114944  49.2482853
   2.6723248  56.4832592  48.7388325   2.5631768  57.9928493  48.7532663
  51.2964382   4.0961652   3.6767471  52.1335783   4.4765906   3.4108484
  51.3376369   4.0710359   4.6327293  51.4569910  68.6560672  38.8644505
  51.3331612  69.4006794  39.4530511  52.2767599  68.2556139  39.1540122
   4.1231114  23.2209659  44.9531269   3.2713467  23.0259442  45.3438759
   4.1008526  22.7859688  44.1007662  80.9373569  57.6680517  35.5876160
  80.9698582  56.8139076  36.0184455  81.6724014  57.6552296  34.9746060
  62.0590067  41.5731812  53.6664963  62.6905680  40.9915924  53.2432795
  62.5954819  42.1716022  54.1864204  71.9474260  60.8573935  14.9578560
  71.3437883  61.4518354  15.4033745  72.2934238  61.3704107  14.2275608
  60.6365395  31.8894172  43.6894321  59.8908329  31.5209842  44.1631508
  60.6566095  32.8094959  43.9526510  67.9874945  13.0337048  58.7050581
  67.4140930  13.7385070  58.4039068  67.5573444  12.6937175  59.4896650
  76.7543928  65.2096627   6.5868605  77.4246589  65.3605173   7.2533596
  77.0855276  64.4701479   6.0772551  53.4486522  23.1272702   3.9633453
  53.9869728  22.3532777   3.7978733  52.9326858  22.8992896   4.7366751
   9.8879677  61.6276026  47.1225643  10.5372101  62.0116949  47.7117968
   9.1126782  62.1789360  47.2283411  47.0585193  38.2844930   5.0546587
  47.0734634  37.3576312   4.8160494  46.1519374  38.5547881   4.9087656
  58.6241770  33.8190508   2.9817578  59.0356731  33.0067325   3.2767847
  57.7713013  33.5463548   2.6434129  12.1285246  54.0755079   4.7408808
  11.2804983  53.7600944   4.4284809  12.7247188  53.3402810   4.5986593
  73.6226845  15.3103113  26.7288613  73.3698177  14.6247900  27.3472071
  72.8578329  15.4166877  26.1632514   1.0941406  28.6698489  12.4356735
   0.6815525  28.7481074  11.5755117   0.9797092  29.5319657  12.8355349
  65.5778217  42.0792103  48.5465860  64.8910427  41.5098000  48.1996775
  66.3795662  41.7731380  48.1226063   3.1015791   0.5236177   4.1337956
   3.3489337   1.4400320   4.0103758   2.7217784   0.2629571   3.2947290
  67.0821524  41.7875147  30.7195497  67.3493385  40.9389734  31.0728502
  66.1282158  41.7333651  30.6620169  14.6469361  28.1895185  38.3941483
  14.2785412  28.5814357  39.1859317  15.4235131  27.7198458  38.6983943
  43.6953582   4.9199061  21.8988121  43.4417190   4.0252690  22.1257866
  43.9605894   5.3120427  22.7307404  49.2059467   5.2270705  41.4345312
  49.3408630   4.7377593  42.2460794  48.2634399   5.1733310  41.2763309
  66.0749006  63.9799118  61.4615202  66.2399626  64.7399235  60.9035158
  65.5473900  63.3941507  60.9185171  66.4290762  30.7247281  26.6224957
  66.8826914  31.5331411  26.8611026  66.8498993  30.4449463  25.8095598
  48.1757106  20.2719264  32.5254047  48.7555255  19.8298078  31.9052589
  48.3779850  21.2017064  32.4213493  57.6411629  67.0095682  64.8304319
  57.2885466  67.7951336  64.4123650  58.5625792  66.9935989  64.5716429
  40.3885555  26.9519353  62.1332312  40.5648994  26.0111284  62.1371555
  39.5532084  27.0409536  62.5920391   9.9100930  61.1254406  42.0002556
  10.3081757  61.7646980  42.5911140   9.9546200  60.2973080  42.4782133
  19.6962696  64.6896124  52.9863119  19.3510681  65.2066231  53.7141657
  20.5700070  65.0483131  52.8309298  70.7175579  20.2538209  14.0326679
  69.8586502  19.8415713  13.9401520  70.6294670  20.8217006  14.7981632
  32.1330190   4.9622843  33.5382414  32.1510506   5.2355731  32.6210594
  32.2936440   5.7669556  34.0311265  74.0079069  61.8688154  57.8621006
  74.1033602  61.3799000  58.6794615  73.6814070  62.7268648  58.1329918
  42.6056661   5.3919940   1.8294371  41.8005075   5.6969552   1.4111650
  42.8441133   6.0963731   2.4321163  16.1670301  74.1296122  12.7189053
  16.4028356  74.9775217  13.0953062  15.5133341  74.3373964  12.0512713
  60.3565788  57.3005676  39.2882442  60.2309132  56.8092537  38.4764266
  59.5563698  57.1436071  39.7895098  67.4123192  54.6389055  53.5792065
  67.0126677  53.7897110  53.7673140  66.7630959  55.2790070  53.8707829
  74.1141653  18.4794140  40.9237385  74.1601467  19.1410613  40.2335644
  75.0136662  18.1648874  41.0143185  28.6956205  19.3902640  33.4340179
  29.3987884  18.8283639  33.1083572  28.2733478  19.7276883  32.6440418
  17.2309548  33.4743428  59.4200277  16.2844807  33.3661175  59.3267536
  17.5988442  32.6502466  59.1010380   8.0434654  72.1652291  12.9469574
   7.1560238  72.5231407  12.9711330   8.5010193  72.6110242  13.6597908
  18.0156849   3.1334550  61.9186449  18.6742208   2.4402816  61.8731308
  18.2189176   3.6042030  62.7269268   9.5269066   7.0809567  54.1518545
  10.1866394   6.4186847  54.3577337   8.8466984   6.6022688  53.6781406
  57.6258697   5.6740098   2.8960217  56.8489494   5.6530290   2.3372925
  57.2805824   5.7795911   3.7825096  36.6482439  20.0666957  18.4262550
  36.2861909  20.6889539  17.7954281  36.2660541  20.3258805  19.2646969
  47.8133106  36.0437274  64.7743845  47.5146437  36.4173532  63.9452696
  48.3621216  36.7261982  65.1607466  65.5684519  61.5798664  44.3645859
  66.1152267  61.4872074  45.1447630  65.5068302  60.6934500  44.0086365
  42.6176498  23.7139041  55.4509497  42.5678680  23.4302814  56.3638067
  43.5233066  23.5392863  55.1949453  74.3287611  62.3889446  42.5400639
  73.9234781  61.6400814  42.9773045  73.5906410  62.9101562  42.2242308
   9.3815380  43.2918215  35.4542351   9.3030888  42.4225807  35.0611758
   9.5095211  43.1220007  36.3875151   9.3704182  64.8184633  44.2801905
   9.1634232  65.2341843  43.4431982   8.5218006  64.7075367  44.7088814
  52.8645076  61.1107163  20.8183373  53.1513729  61.0227017  21.7272938
  52.1413602  61.7367749  20.8549679  29.6994923   4.4709022  36.0211992
  28.9649723   5.0538451  36.2132525  29.3841026   3.9149768  35.3086638
   7.3973900  60.7504940  35.4174590   6.8510777  61.5174913  35.2457237
   7.8795105  60.9732962  36.2137938  21.4246136  46.8985319  45.3509569
  21.2609917  47.0724297  44.4240189  21.3560444  45.9472275  45.4319239
  57.8995655  11.0320480  40.1227808  58.6604164  11.6068370  40.2060843
  58.1750248  10.3587157  39.5007014  68.6592331  30.8064132   8.8455093
  67.7138652  30.8892922   8.7204540  68.9534893  30.2776055   8.1038845
  56.6758575   6.8300920  17.5760639  55.7341423   6.7606692  17.7328194
  57.0023002   5.9361558  17.6787556  10.3790718  72.2714329  46.3425159
  10.5209881  72.1126413  47.2757244  11.2444168  72.1657276  45.9472609
   2.6435334  52.3115158  17.9216576   2.4036843  52.7473068  18.7394547
   3.5042244  52.6689386  17.7032816  38.4923504   1.5455396  55.9953165
  39.2764328   1.9107444  56.4052677  38.4992454   0.6217344  56.2458515
  15.4183670  25.7814698   1.2653721  15.6696220  25.4749446   0.3940809
  14.7543617  26.4511304   1.1014307  73.8832951  74.6601486  43.6167812
  74.4071198  74.2109919  44.2801809  74.2550707  74.3725538  42.7829313
  68.2789811  76.0310647  59.1241789  67.7787598  76.8468085  59.1003084
  67.6743039  75.3693973  58.7883282  38.5360551   9.7471958  58.6812496
  38.2476091   9.0717047  58.0674553  39.1321921   9.2918032  59.2757845
  39.7203644  63.3724563  27.2321391  40.5734070  63.7516551  27.0205808
  39.8790320  62.8492754  28.0178452  37.8739977   3.7548602  59.8000145
  37.6190448   2.8488249  59.6258593  38.2277894   3.7374124  60.6892633
  13.4475525  71.8003919  11.8117940  13.6846836  71.3973587  10.9765899
  12.5800022  71.4478724  12.0100844  75.5689716  35.4682732  23.4957504
  76.0083151  34.8377538  22.9250884  74.9275160  35.8973932  22.9295158
  71.1718845  31.2481070  53.5509539  70.6176138  31.9372630  53.9171267
  70.7377481  30.9999490  52.7347612  36.5155125   4.7967866  24.2064023
  35.7207847   4.5113057  24.6571112  36.5248585   5.7475924  24.3164587
  51.9205721  74.6573397  57.2611094  51.3621481  74.8653158  58.0102062
  52.8129872  74.7452696  57.5959063  39.0976580  72.4409597  61.1294270
  38.1993063  72.5295549  61.4477777  39.6180971  72.9754763  61.7291451
  19.0200909  51.0444706  22.4561167  19.0014466  50.7626717  23.3707070
  18.9409645  51.9974964  22.4974751  27.0775326  63.6327009  60.2131701
  27.3133000  64.0355163  59.3774748  27.8926810  63.6273592  60.7149029
   6.6887887  68.4222965  57.3908329   6.3452729  68.2155495  56.5216494
   7.3530229  67.7520662  57.5515079  25.8239841  10.2885211  46.8632793
  24.9895263   9.9393058  46.5502882  26.2514830   9.5440543  47.2866535
  68.4965467  13.2989132  37.2057581  68.5183287  14.2382765  37.0231318
  67.9466295  12.9329264  36.5130281  48.1831749  74.5927932  40.0729132
  47.3483284  74.2113594  39.8012948  48.1376227  75.5026812  39.7792101
  67.8085041  41.3914442  14.6320677  67.6225233  42.0692635  15.2818418
  68.0961847  41.8746758  13.8574946  65.8287382   7.1760631  56.7745495
  64.9553251   6.8911135  56.5058756  66.2279320   7.5132281  55.9725523
  44.0909004  22.5181985  46.6395569  44.6148062  23.2865262  46.4127922
  43.1844139  22.8060937  46.5317106  51.4613543  72.8411717  61.2553656
  51.7804990  72.3231406  60.5164313  50.5080686  72.8131099  61.1735749
  52.5933647  12.7720010  30.3190279  52.7529287  12.1250582  29.6318340
  51.6499329  12.7282429  30.4747796  16.3234146  71.0898279  14.5326555
  17.1848639  71.4590483  14.3382084  15.7041081  71.7506229  14.2227459
  72.3727751   5.2530307  50.0847197  71.7690659   5.5556554  49.4063520
  73.2272911   5.2342099  49.6538162  56.7337267  27.6281283  15.7261265
  57.4784962  27.2596107  16.2012470  57.0651166  28.4481917  15.3601921
  18.5452364  44.4363038   3.8020313  18.3583734  43.7061516   4.3921078
  17.9713581  44.2895190   3.0501354  55.2012070  71.9989978  39.1255307
  54.9257191  72.9090460  39.0153098  54.4362553  71.5606516  39.4982600
  20.3443297  52.9520099  19.8837972  19.5373019  52.7374523  20.3516722
  20.2747734  53.8895457  19.7037435  25.5338430   7.8543216  11.1723137
  25.8825922   8.7389588  11.2819636  26.2741494   7.2793019  11.3660395
  37.1574982  65.1437407  28.2038212  37.6814755  64.4243281  27.8515053
  37.7333315  65.9066754  28.1530714  51.6142368   1.2774509  26.3423204
  51.9356441   0.4604542  25.9609461  52.3773623   1.8552336  26.3488412
  54.4784174  49.4717641  64.1425892  54.0898309  49.5832069  63.2749408
  53.7893067  49.7408421  64.7500079  49.1488934   1.2650885  52.5178909
  48.6120462   0.5932565  52.0975685  50.0184965   1.1514013  52.1343613
  58.5408791  64.0002840  60.9810543  58.8112553  64.4596153  60.1859760
  57.7365883  64.4430988  61.2517166  13.1985718  63.4794378  32.4773979
  13.7146145  63.4024096  33.2798910  12.4634415  64.0430546  32.7185416
   7.0380646  19.3985903  16.7894089   7.0210892  18.8481951  17.5723577
   6.3300091  19.0586674  16.2422860  30.0478085  73.4526425  34.4935822
  29.2055615  73.9000245  34.5754147  29.8403748  72.6311179  34.0482759
   2.0785958  37.4315810   6.8938357   1.9096524  36.6256976   6.4057338
   1.4353806  37.4216080   7.6026380  39.5012975  24.4585586  45.2296495
  40.1756811  24.0555382  45.7764721  38.6850214  24.3085933  45.7065535
  52.4328518  10.6146336  24.1392517  53.2636881  11.0805285  24.0450120
  52.1565771  10.7969069  25.0374055  62.9841431  74.1996690  30.8665729
  63.6675270  73.5660501  30.6480551  62.8022869  74.0456386  31.7936301
  51.9532585  13.9317369   8.2199627  52.0398664  14.3875563   9.0571958
  51.3404751  13.2182622   8.3979619  37.6019812   4.6322760  40.5664921
  38.4251714   4.8432139  40.1259279  37.0030141   5.3305030  40.3020144
  39.0787840  32.9368424  58.0081844  39.9955940  32.9216218  58.2828808
  38.9425945  33.8246560  57.6773214  53.7789869   9.3191737  32.8735948
  53.4406757   9.0187591  33.7171149  53.7609243   8.5404766  32.3172331
  56.4665270  21.3748813  41.5289879  55.5775213  21.6372061  41.2900496
  56.9359064  21.3327551  40.6958342  44.7433043  17.3216248  15.5151093
  44.7116518  16.8865418  14.6630919  44.3695068  18.1882524  15.3555310
  80.1952171  13.4417593  55.2861118  80.4374218  13.7404513  54.4095564
  81.0202503  13.1556296  55.6781292  60.0784349  19.5436299  24.4917941
  61.0049295  19.4134486  24.6940255  59.6454144  19.5490265  25.3454304
  63.3090218  53.9427607   0.5128706  64.1402443  53.5318821   0.2752163
  62.6896389  53.6287396  -0.1459039  59.9387264   1.0195708  24.1351676
  59.9511576   1.3939443  23.2543039  59.6213675   1.7298663  24.6928382
  73.8906384  10.9735572  19.4184852  74.4526815  11.7482948  19.4074678
  74.2730904  10.3908527  18.7624216  63.6577368  34.5719743  48.8826036
  62.7329445  34.3997526  48.7056065  63.6751461  34.8775816  49.7895432
  72.0781994  35.6396699  52.3055267  71.5318680  35.5090117  53.0805635
  72.9576874  35.7851291  52.6541996   8.9521678  75.1201760  39.2931700
   8.7980135  74.6872089  40.1328182   9.5279320  74.5216816  38.8172174
  37.0794257  67.7361404  41.8032503  37.9357775  67.3537343  41.6117907
  37.2667178  68.4497636  42.4130821  63.8433647  24.1371155  36.5684867
  63.9724207  24.4309139  37.4702954  64.6681690  23.7112021  36.3349819
  75.6789875  42.6215267  27.3625827  75.4941082  43.3506298  26.7705822
  74.8194170  42.3516512  27.6859069  52.4800396  10.3003454  42.5497866
  53.2766390  10.7759190  42.7853537  52.2671413   9.7883928  43.3300495
  37.7560377   2.3791732  25.6626630  37.2485113   2.2646077  26.4661074
  37.3388743   3.1177306  25.2191114   0.7190663   8.4154630  58.5146093
   0.2496678   7.6736969  58.1329298   0.5789334   9.1318321  57.8954077
  22.8344780  20.0442815  40.4910326  22.4481064  20.2891397  41.3318634
  23.5058743  19.3997085  40.7146025  59.5453358  10.0593114  37.3538756
  59.9556255   9.6907949  36.5715146  60.2304268  10.0266612  38.0215693
  59.8542881  39.0404868   2.9992610  60.5669641  39.1489744   3.6289886
  59.5386410  38.1488276   3.1460398  55.4279081  40.2577921   4.2405212
  56.0837213  40.7527825   3.7494743  54.5984356  40.4680761   3.8115824
  50.0460577  18.4619510  41.7437887  49.4872952  17.7060652  41.9244957
  50.6442213  18.1596982  41.0603619  63.0164766  20.5064726   3.5491067
  62.3478460  19.8215866   3.5392824  63.0895138  20.7567024   4.4701290
  33.0660017  63.9487546  21.9966888  32.2920473  64.2470126  22.4744654
  33.7544020  64.5647555  22.2474384  57.7805336  57.7234190  25.1499581
  58.6230858  58.0824309  24.8716474  57.3989304  57.3607033  24.3505549
  60.3894949  62.3333454   2.1030955  60.8776855  62.6832676   1.3578066
  59.5273256  62.7441549   2.0388399  30.1278933  72.1872481  63.2266569
  29.5812853  72.1525162  64.0116644  30.9970673  72.4239545  63.5502911
   7.6790673  15.8588421  11.0999334   6.8841225  16.3593245  11.2838197
   8.3592659  16.5227365  10.9867752  42.2702408   4.5216960   9.5891219
  42.0080900   4.5144469  10.5096960  43.1705046   4.8467413   9.5990050
   7.0426708  17.0877552  28.8275623   6.5925652  16.5398371  29.4705415
   7.2447735  16.4927912  28.1054807  60.2797707  52.8420513  37.3980856
  59.4437703  52.6102560  37.8025770  60.5390080  52.0563000  36.9168210
  59.1229200  25.5590892  32.1614265  59.6723318  24.7986817  32.3515821
  58.2354212  25.2050805  32.1043777   0.0535981  67.7350588  60.7304710
   0.5212037  67.3259587  61.4586293  -0.2351173  67.0007963  60.1884996
  36.4476323  14.4433784  36.2042069  35.8799601  15.2133536  36.2375951
  36.5399313  14.2541635  35.2704453   6.7120034  42.3363495  29.8125911
   7.4844033  42.6318884  29.3306231   6.6722828  42.9110718  30.5770206
  40.0208195  62.4452691  20.5725980  39.2482193  62.0827859  20.1390958
  40.5570515  62.7892034  19.8581755  35.3887296  15.1417124  17.3228705
  35.5738139  14.2031097  17.3545253  34.5840359  15.2099621  16.8090224
  43.8192232  25.5236723  63.7193104  44.0600832  24.6048453  63.8375064
  43.0915173  25.6604578  64.3259130  65.9467793  38.7424159  10.8967519
  66.8005514  38.8527465  11.3152432  65.3334665  39.1849303  11.4834881
  75.1305008  13.6713624  46.8245983  74.3381023  13.1824052  47.0465374
  75.1098776  14.4352841  47.4009895  68.2245493  28.1746078  14.4597340
  67.5974226  27.5307226  14.1305566  68.6084986  28.5594821  13.6718976
  20.4088455   4.9035579   8.5551435  19.5516449   4.8883936   8.1294423
  20.7980877   5.7337362   8.2803291  10.1036221   3.5995734  24.6639132
  10.3853947   4.5134816  24.7040105   9.5445401   3.5551211  23.8882303
  34.6770310  11.9535136  39.8538446  34.2656016  11.1438477  40.1561689
  34.4451070  12.6025403  40.5180788   0.1361901  24.3731141  46.5075207
   0.2901226  23.8652015  45.7109308   0.3197533  23.7616158  47.2206879
  19.4125279  70.6165700  54.0700388  19.1222533  71.4374422  53.6723661
  20.3682526  70.6665277  54.0520525   2.5588852  10.9819305   7.8936946
   3.4702355  10.7866001   8.1116861   2.3742348  11.8030238   8.3497006
  24.1718719  24.8384116  13.8615120  23.2898949  24.4690106  13.8179768
  24.3300627  24.9711893  14.7961605  52.3779202   6.3156861  58.3063984
  53.1453562   5.9300506  58.7289619  51.9194651   5.5711114  57.9169655
  64.4923687  22.2762442  23.8069844  64.1512060  23.1069326  23.4756327
  64.1366482  21.6166306  23.2114983   0.3684765   2.0893665  14.6982551
   0.8989674   1.7512286  15.4196942   0.0702339   1.3075995  14.2333686
  58.4976912   3.6365545  19.6664774  57.5421953   3.6934718  19.6624756
  58.6834478   2.7483276  19.9710774  23.6525544  74.9474560  35.3011847
  23.3675202  75.8288093  35.0599289  24.5971974  75.0287989  35.4325724
  77.4882126  41.1940813  25.2752519  77.9572535  40.9126520  26.0607648
  77.9026842  42.0220566  25.0325513  33.7876556  53.1006584   3.9325989
  33.1375835  53.2441423   3.2448185  34.6165131  53.0072377   3.4630240
  19.0689617  41.4181948  30.6767368  19.1960675  40.9774923  29.8365831
  19.0608555  40.7095242  31.3201261  70.4806757   0.9268101  48.7920189
  71.3269567   1.3537139  48.9254045  69.9188280   1.6149341  48.4355831
  80.3542709  18.3957827  48.0437136  79.7566080  17.7831352  47.6151180
  81.2041664  18.2247758  47.6379156  41.8707466  19.0547371  56.8093872
  41.0478878  19.5154476  56.6454506  42.4826384  19.7429299  57.0705605
  78.9318132   7.3066545  16.5316641  79.8476744   7.4849749  16.7452848
  78.8279676   7.6275074  15.6358397   6.2381893  24.6759176  25.8929563
   6.0905892  24.7191906  26.8377185   5.9594876  25.5318761  25.5675435
  18.7132698  36.7570877  33.3886552  18.0524212  37.1905255  33.9286923
  18.6620671  37.2032690  32.5433564  19.9240025  58.2452255  24.1240883
  20.6691511  58.5879736  23.6306167  20.1853426  57.3567980  24.3662286
  53.6992550   3.1477582  56.7118645  54.4827175   2.9584104  57.2281599
  53.5480642   2.3501475  56.2047243  12.2311004  69.4449710  37.1122241
  12.5986918  69.1135680  36.2929058  11.2850197  69.4469934  36.9667625
  45.2248240   5.2849603  51.0150528  44.6843052   4.6020731  51.4122105
  44.9975634   5.2599871  50.0855589  35.1534375  56.2373011  13.0995631
  36.0961398  56.2766164  13.2608104  34.8521574  57.1378927  13.2195520
  69.5431336  75.0693837  33.1756139  69.0128907  75.7503113  32.7615976
  70.3207310  75.5299581  33.4909701  40.8826598  55.9284919  17.2928011
  41.0519751  55.7971614  16.3598943  41.2009581  56.8133014  17.4717605
  34.4597006   6.7779452  41.6090584  34.6819210   6.4546752  42.4821854
  35.3046846   6.8958956  41.1750984   6.1614178  65.9695385  25.7655037
   5.8814476  66.2844608  24.9060429   5.7475326  66.5687940  26.3866509
  63.6913776  21.9476748  40.0748348  64.1771841  22.5602818  40.6270456
  64.2372370  21.8430328  39.2955303   2.5351578  19.8891866  54.7024107
   2.1122509  19.5103347  53.9317942   3.4465843  20.0144601  54.4381475
   9.3655475  63.4546631  34.6467042   9.6772059  62.5820701  34.4065285
   9.7263463  64.0315645  33.9734721  75.0573254  13.0011189  29.9521065
  74.8410225  12.5521851  30.7693601  75.9627390  13.2887733  30.0692320
  78.3285666  20.3754330  59.8264694  78.5682106  20.7709122  58.9883757
  78.7715006  20.9150767  60.4813194  79.4069386  16.0497105  35.6614733
  79.4574881  16.5894103  36.4503980  80.2835846  15.6763840  35.5700922
   7.9215294   8.4946954  48.3355570   7.3678547   7.9207885  47.8061152
   7.3489434   8.7956709  49.0411043  55.8181143  24.6400952  59.8886299
  55.2375460  23.9917827  60.2872086  55.2288723  25.2412081  59.4329023
  16.4568327  34.3377540  12.2113932  17.3135899  34.7633175  12.2443808
  15.8319662  35.0610266  12.1599138  47.7381182  13.5695374  24.1900539
  47.9077148  12.8402102  24.7863364  47.0964336  14.1107357  24.6500301
  53.3481598  15.8219802  44.4654846  53.1732941  15.1878941  43.7700796
  52.5426435  15.8389091  44.9822855  61.1481524  33.7235427   1.4887600
  60.2470016  34.0004683   1.6545242  61.3753605  33.1823993   2.2449151
  51.7337513  19.0273559  25.6087494  51.4037752  19.2177629  26.4868689
  51.9746351  18.1014538  25.6389546  16.6068123   8.7235267  44.9591732
  17.1938513   8.0945785  44.5395994  15.7399843   8.5088832  44.6145391
   8.4676168  36.1341675   9.5810068   7.6728247  36.4327619  10.0230158
   8.3881472  36.4741548   8.6897553   4.0561730  16.2627137  37.0959496
   3.3085781  16.4346611  37.6684594   4.1124016  17.0372212  36.5362978
  38.7585640  11.8545270  24.4286084  39.0958428  11.2740350  25.1108885
  38.4904885  12.6447964  24.8974800   5.4652077  29.0524769  52.3567009
   5.1296288  28.2456875  52.7474880   5.2543789  29.7336459  52.9952908
  74.5872402  26.0849071  43.3275414  74.4618273  26.7953587  43.9566374
  75.3852844  26.3215685  42.8549385  26.9891697   7.1962225  28.1961918
  27.2085243   7.8622466  28.8477492  27.5437409   6.4491993  28.4212351
   7.1449846  23.4184051  36.8128133   6.3486087  23.7672853  36.4124393
   7.6523131  24.1940093  37.0521641  22.1933373  75.1761085  26.8028140
  22.6450261  75.0952122  27.6428533  21.8350180  76.0636959  26.8080401
  72.0111809  22.1473713  62.9641929  72.2739277  21.4847214  62.3253738
  72.5293408  21.9472821  63.7437483  61.7837095  45.7574368  58.4309053
  61.9852591  44.8243570  58.5014677  60.8873796  45.7842064  58.0960798
  13.1752735  20.8596063  47.1950626  12.8498799  20.8205152  46.2957191
  14.1249424  20.7751298  47.1100473  38.7992581  69.3666183  52.1470308
  39.6844633  69.3954294  52.5100899  38.7525900  70.1280939  51.5689230
  54.2693043  16.6852629  38.9940786  54.6848774  17.5475121  39.0017152
  54.8394203  16.1398005  39.5359921  18.3004822  54.5023673  59.4318247
  18.5577550  55.4237669  59.3992138  17.6487698  54.4602888  60.1316309
  55.8995541  74.2866178  64.5532417  55.8293160  73.5258036  65.1298332
  55.2139862  74.1549276  63.8983440  58.6833715  23.4743404  36.6529655
  59.6133757  23.2561183  36.7137790  58.6693621  24.3750143  36.3292050
  71.2514027  74.7160626  24.8532772  72.0561322  75.2117776  24.7019267
  71.2365635  74.5662822  25.7985711  69.4998407  18.5600638  45.7635164
  68.8322544  19.1077566  46.1765432  69.0122080  17.8204310  45.4010439
  66.0711288  31.0392976  40.5230093  67.0008230  30.9253478  40.7202673
  65.9626341  31.9845295  40.4181385  49.1793879  75.3139113  51.3323069
  48.5237320  75.4474233  52.0167923  48.7433823  75.5895018  50.5259657
   7.9391724  41.6505527  46.0598230   7.5911289  41.9952965  45.2374792
   8.3897167  42.3943901  46.4597607  46.9399937  72.7292835  53.2582855
  47.5794800  73.1677162  53.8195896  47.4438866  72.0551925  52.8022957
  35.1113518  76.0912834  55.6657505  35.5869158  75.7563344  56.4259338
  35.6557139  76.8077533  55.3393030  51.9471844  67.8162294  45.0236464
  52.3497399  68.6654448  45.2053452  51.3399084  67.6785826  45.7506275
  34.2705202  20.5220819  39.8790908  34.7300148  21.3605499  39.8336387
  34.8110199  19.9837947  40.4573107   4.9855477   3.6038327  60.0247955
   4.7469002   4.3168589  60.6171417   4.3104607   3.6199352  59.3463945
  70.6283903  33.2900286  32.2014499  71.4426661  33.3159828  32.7039599
  70.0556469  32.7100444  32.7032614  66.7121172  46.6554546  64.8794556
  66.3941383  45.8874226  64.4048548  66.4451647  47.3987103  64.3385887
  31.3147026  37.7111006   4.0487036  31.2406689  36.9580269   3.4625047
  32.2366577  37.7248335   4.3057212  20.1769509  63.7795441  65.4799557
  20.8938374  63.5720604  64.8805761  20.3723206  64.6638029  65.7900286
  42.9516800  64.1082113  36.0197949  43.5013827  64.8916178  36.0380387
  43.2761010  63.5710912  36.7426252  33.4643229  67.5980132  14.1506600
  34.0447148  66.8586420  13.9698100  33.1823500  67.4653672  15.0557172
  52.9359102  34.2360902   7.7452183  53.4732294  33.8476562   8.4356070
  52.0353889  34.1174173   8.0472368   4.5272023  22.5944567  42.3075104
   5.4210430  22.8568673  42.5275612   4.5652443  22.3710585  41.3775206
  65.8324669  51.3366220   7.5216043  65.6605194  50.5136321   7.9791582
  66.7187641  51.2368295   7.1741188   7.5247914  41.8135929  58.8554430
   6.7939240  42.1623659  58.3451271   8.2708508  42.3608637  58.6102343
  64.3096447  25.2487016  38.8309002  64.2108631  26.1747861  39.0519023
  65.2467346  25.0783587  38.9261746  10.7578808  28.6045480  61.8325901
  10.4161888  28.1026149  61.0926294  10.8425862  27.9633570  62.5382376
  66.9911814  24.1565275  20.7473731  66.4189529  23.8715744  20.0349188
  67.8302193  24.3365002  20.3232861   7.9100186  36.9447970  30.6354737
   7.3768574  37.5915933  31.0976791   8.8127381  37.1861196  30.8430481
  51.1298800  15.5882573  45.7004833  50.6543493  14.8814130  45.2640486
  50.6649828  15.7146609  46.5276003  30.3428563  70.0447976  61.3209820
  29.9806651  70.6327634  61.9838142  30.8693798  70.6130396  60.7587481
   8.8338717  69.3162136  54.2079401   9.2184170  69.1384231  55.0662804
   8.2368024  70.0487416  54.3600655   2.0960315  71.5045314  36.6987371
   2.3749836  71.4053046  37.6089954   1.9869574  70.6076758  36.3825345
  56.2424994  11.8309784  20.4749203  55.8648968  12.7021265  20.5963683
  56.9147253  11.7646372  21.1531115   8.2489735  33.7962079  25.1424265
   8.9367348  34.4474196  25.2807713   8.1431824  33.7578249  24.1918659
   1.7468029  34.1087437  41.5813780   0.9906060  34.6441031  41.3409805
   1.5240055  33.2290578  41.2768316  57.2961807  39.5905757  15.1860082
  57.1550369  39.0887213  15.9887874  57.4026155  40.4939938  15.4839051
   0.4322686  76.2134805  51.9183493   1.3203396  76.4667011  51.6664553
   0.4475655  75.2564048  51.9202900  78.1151247  20.7589769  15.4738188
  78.0726004  19.9090028  15.0356805  79.0220499  20.8298063  15.7716465
  15.9723908  13.3369935  17.2646832  16.0098416  12.7162063  16.5370488
  16.5358120  12.9529047  17.9364479   8.9880139  43.8513851  31.3080311
   8.8320118  44.7231817  30.9449053   9.8984677  43.6581945  31.0844326
  64.1952515   5.4909426  39.8978353  63.2713461   5.5116850  40.1472282
  64.5240593   6.3608992  40.1243162  74.7062302   5.9764189  31.1915398
  74.2075443   5.3732198  31.7426229  75.4735470   6.2024212  31.7172575
  63.8999748  13.5636377  31.8480754  63.7916136  13.8070738  32.7674389
  63.5833645  14.3238151  31.3601041  54.9182081   8.9934742  54.8271132
  55.6724119   9.5759118  54.7367096  54.1685486   9.5308876  54.5713186
  22.1015126  36.1767673  35.7923675  22.2737080  37.1089292  35.9252310
  22.5131375  35.7478523  36.5425849  61.4732885   8.1058198  53.6915827
  62.0099401   8.8983279  53.6786079  62.0365858   7.4289501  53.3163881
  11.1646420  47.4508667  56.4512157  11.1119992  47.3364925  57.4000978
  11.5995175  48.2957029  56.3355637   1.2585980  20.6725025  35.5951977
   1.1160618  21.4888477  36.0742545   1.6679341  20.0884843  36.2336326
  58.7575388  25.3322148  42.2771692  57.8416300  25.2650094  42.5470400
  59.0688419  26.1401176  42.6853561   0.3175885  21.5015602  63.4421539
   1.0091072  22.1626902  63.4113359   0.6942612  20.7402396  63.0008554
  74.4550896  39.5199752  40.5123520  74.4360638  39.5742106  41.4678288
  75.0210905  38.7708282  40.3262043  53.3374222  66.9721233  24.2655730
  52.7290829  66.4024108  24.7362924  53.5752209  67.6464330  24.9019647
  17.9768997  63.9981174  50.7728195  18.4558636  64.5878029  50.1904964
  18.4897190  63.9909267  51.5810251  65.7342148  43.9087725  34.7136164
  65.4453707  44.0870237  35.6086183  66.6899872  43.9091110  34.7658515
  69.8548603  20.6180906  56.0692596  70.2363396  20.9945822  56.8623304
  70.2479029  21.1179757  55.3538132  54.2568827  13.6677563  57.0313120
  54.6546793  13.0084670  56.4626932  53.3149624  13.5630906  56.8969059
  20.3540665  11.6703141  24.7475815  21.2137467  11.7669761  25.1572657
  19.9750763  12.5488269  24.7759867  69.3136215  18.2116342  51.3617992
  68.4677982  18.6575568  51.3174200  69.1078949  17.2910821  51.1990404
   6.2875801  15.6692576  22.2853041   5.7639176  15.5865860  23.0822849
   7.1785694  15.8238554  22.5991082  70.2388716  27.3966503  46.8450117
  71.1108494  27.3058391  47.2292423  70.0750017  28.3397174  46.8431139
  60.3459024  35.1463532  38.4380960  59.5437956  34.8038197  38.0437207
  61.0116053  34.4887018  38.2366776  62.5668526   6.6496933  46.7200041
  63.2219076   6.4903980  46.0404730  63.0001307   6.3952148  47.5347090
  42.2033268  24.3510795  12.3788726  43.1385762  24.3872762  12.1782875
  41.9432789  25.2672839  12.4746537   4.0931278  56.5926218  57.8532410
   3.9516407  57.3159456  57.2424936   4.8310429  56.8758726  58.3931255
  16.0587937  30.9598470  44.2692614  15.9166962  30.0251055  44.4185925
  15.8542877  31.0882306  43.3430195  39.5803402  56.3873420  11.5253771
  38.9313744  55.8887432  12.0218409  39.0680645  57.0436929  11.0531319
  21.3288647  15.8513141  31.9293928  21.3757950  16.8071914  31.9113016
  21.0817963  15.6067204  31.0375619  75.6826401  24.9871469  61.9696045
  74.8593712  25.2243018  62.3964787  75.4158640  24.5484924  61.1617422
   8.5126835  14.5762575  54.4545889   8.9794499  13.8711143  54.0061092
   9.0615994  14.7837830  55.2107954  50.9978676  20.2310896  28.3641791
  50.4517794  19.8976088  29.0760827  51.4284420  21.0020542  28.7335753
   7.8958279  18.6725879  53.9271688   8.2295948  19.5694220  53.9499855
   8.0916268  18.3219814  54.7960615  18.7691544  55.5768488  13.2323587
  19.5142935  55.8140896  12.6803482  19.1192053  54.9256358  13.8403214
  73.4514475  32.1935391  49.6773243  72.6744699  31.7766166  49.3048763
  73.2269669  32.3410273  50.5960655  72.8116655  47.0003653  27.8165174
  73.2466078  47.7752542  27.4607086  73.3891582  46.2734032  27.5835872
  33.4775215  25.9931064  28.9398050  33.4025055  25.1561046  29.3980956
  33.0922657  25.8301306  28.0788445  53.3886051  11.3311875  58.8715458
  54.2879152  11.3098752  59.1986942  53.2392788  10.4519117  58.5239697
  61.3800287  49.2091131  38.5148478  60.4783964  49.5203781  38.4348226
  61.8857479  49.7918367  37.9483509   9.2994839   7.3294359  61.9910336
   9.9024349   7.4715996  61.2613249   9.3707043   6.3941538  62.1818447
  16.5747887   3.7240341  44.0048790  16.0502964   4.3659711  43.5262823
  17.2701985   3.4797591  43.3941650  67.9724264  36.8787169  39.7600889
  68.0019999  37.7899051  39.4683838  67.9224253  36.3697124  38.9509869
  71.3746929  24.7733068  17.1321881  71.1586475  23.9154267  16.7666793
  72.0397520  25.1251674  16.5404737  79.9495077   0.3116304  37.4191499
  79.4284010   1.1052053  37.2970009  80.6252480   0.5633552  38.0486202
  63.3835735  35.1103072   2.5503862  62.6605167  34.7202163   2.0592058
  63.7600746  35.7547574   1.9510878  65.9084797  48.7509394  22.1340132
  65.6697130  48.3213329  22.9553914  66.8346167  48.9691830  22.2382641
  19.8715971  44.1204510  13.9945591  19.4952724  44.7540484  13.3836830
  19.2616461  43.3828888  13.9806164   2.8088719  37.5064373  39.4950151
   2.1218544  37.1541786  40.0608301   3.4954029  37.7888846  40.0992727
  59.9653339  42.1311092  65.4116726  60.3575373  43.0014324  65.4819822
  59.1733074  42.1813726  65.9468365  11.9767759  63.6977408  12.1227301
  12.5363586  63.3785365  11.4147699  12.5858066  64.0727899  12.7588499
   3.7360054  37.0736384  52.0498610   3.2101971  36.2751150  52.0038652
   4.6385723  36.7624474  52.1189833  14.2947537  52.3751640  59.8053026
  13.4525734  52.7332592  59.5246935  14.1689163  52.1639204  60.7303810
  64.3540049   0.3817781  50.6120205  63.9623117  -0.0821883  51.3519764
  63.8691759   0.0678632  49.8487186  71.8936205   5.7542205  35.8301044
  71.4504766   6.1531103  35.0812793  72.6015091   5.2391785  35.4429913
   2.1790749  34.4340611  16.1715519   2.8542382  34.3213987  15.5024517
   2.1206433  33.5796452  16.5990973  15.1132735  69.5431494  50.5592060
  16.0648688  69.4591080  50.4989195  14.9295052  69.5167362  51.4982319
  76.8013763  29.8393464  50.9275723  76.4109802  29.6186638  51.7732191
  76.1234236  30.3404641  50.4742575   1.8359993  36.5501066  13.8655937
   2.0356558  35.7149539  14.2885483   2.6302336  37.0721065  13.9793575
  72.8889036  54.5894384  42.5678349  73.4765720  54.6682835  41.8163967
  73.2282734  55.2186489  43.2043552  41.5624952  17.6667917  63.0715942
  42.2161484  18.2102418  62.6315594  41.0078478  18.2909715  63.5395670
   8.5032994   9.5974404  33.5445571   8.5538346  10.5524385  33.5038686
   8.0599266   9.4161457  34.3732834   0.0300167  76.9042728   1.9460619
   0.7912443  76.3270996   1.8857611  -0.6778767  76.4111779   1.5313614
  21.7838524  50.3478728   1.0244215  21.7718695  49.6743129   1.7044294
  22.6826713  50.3400336   0.6953466  33.5281618  74.5507597  41.9593763
  33.5264262  74.1041507  41.1127520  33.9120301  73.9159425  42.5642633
  80.5238438  14.3410635   0.4122750  80.2313900  15.0933158  -0.1023335
  80.6760597  13.6526120  -0.2351004  56.7050171  25.3385258  49.5249081
  57.2761774  26.0816717  49.3306494  56.2681055  25.1487923  48.6946440
  65.5943298  15.6792045  28.5969973  66.2741756  15.0500250  28.3558106
  64.7876930  15.3096902  28.2377839  78.8826036  35.2616835  41.3136005
  78.6517191  36.1014986  40.9165668  79.7987223  35.3627014  41.5719652
  77.4086905  12.3708749  46.2314177  76.6803837  12.9593337  46.4302206
  77.0039845  11.5070295  46.1525822  80.2381603  57.2008882  21.2141216
  79.6974556  56.9864128  21.9742954  79.6087495  57.4036012  20.5220402
  78.0668831  42.1858597  28.4334278  77.2777939  42.2194862  27.8926516
  77.7968311  42.5548124  29.2743659   3.5991722  19.1546154  49.8429918
   3.7709957  18.7491572  50.6928825   3.7337452  20.0904441  49.9924898
  64.3833160  39.1561055  40.3961658  65.3229952  39.2948699  40.5143929
  63.9948893  39.4249630  41.2286758  28.0898712  24.4475279  15.5442513
  28.2969234  25.3750191  15.6588161  28.8290165  23.9863644  15.9407700
  17.7866888   6.5873438  65.8983564  17.4390864   7.3924923  66.2819481
  18.6748457   6.5191191  66.2487221   1.1060673  52.1301556   8.2523406
   1.2986332  53.0218792   8.5421318   1.6790730  51.9945669   7.4976844
  66.3792839   6.0600142  10.1422489  67.2400798   5.7058673   9.9190271
  66.2844791   6.8301873   9.5818222  63.6459637  31.0710287   0.3415650
  63.7554789  31.1758232  -0.6035576  62.7165890  30.8715796   0.4543325
  57.7767611  12.4594235  59.7033072  57.0967817  13.0437100  59.3679428
  57.4789953  11.5822089  59.4623470  55.5102873   2.1360327  35.5698633
  55.9835672   2.6820374  34.9420738  54.9437475   2.7477798  36.0399985
  55.7160139  11.5330112  33.1588316  56.1372042  11.2153029  33.9575148
  55.0169420  10.9015322  32.9892468  78.6304226  30.3826289   3.1780661
  77.8524723  29.9239640   3.4953297  78.3953991  30.6710439   2.2961271
  13.8933990  55.9135590  38.3611286  13.8854835  56.0893927  39.3020046
  13.2654140  55.2004836  38.2454384   8.1895882  57.1788597  62.9732752
   8.1476265  56.3070202  63.3661747   7.4168450  57.2252989  62.4102974
  73.1900072  16.4325416  50.8772135  72.5953627  17.1197557  51.1778307
  74.0538454  16.8448555  50.8807564  36.3303240  74.2581425  64.8397541
  36.1647089  73.4108978  65.2532530  37.1851643  74.1572926  64.4210577
  69.9514294  14.9497712  57.3219919  70.3334808  14.1429543  57.6674080
  69.0122890  14.8580289  57.4827242  80.6192456  65.3534145  54.7119402
  81.2904845  65.7275982  55.2826070  81.0821972  64.6894212  54.2010402
  44.0440987  47.6145301  32.8039635  44.6784256  47.0110140  32.4171436
  43.1918858  47.2687457  32.5386322   6.0074375  49.0267525   5.4701031
   5.7830427  49.9432061   5.6313313   5.4406021  48.7654720   4.7443903
  66.7522573  34.6963406  14.5636868  67.6087332  34.2691207  14.5763922
  66.1274481  33.9775348  14.4679797  14.6987110  22.8029370  35.1850915
  13.8217980  22.6907659  34.8181081  15.2579933  22.2458744  34.6436858
  73.6021137  33.4037209  58.4601784  74.1084623  32.6075673  58.2989883
  72.7006721  33.1612468  58.2484150  15.0801047  70.9588163  60.5439329
  14.9854191  70.5121779  61.3852310  15.1483448  70.2509057  59.9032784
  75.4254675  17.2493291  66.1738539  75.7900476  16.7640448  65.4337072
  76.1622810  17.7572167  66.5135384  45.9880161  14.2226553  51.4312983
  45.7070017  13.3373320  51.2000751  46.9404507  14.1604161  51.5035868
  60.5483635  74.8947539  38.7019801  61.3059243  75.2693937  39.1513968
  59.7950371  75.3379678  39.0922308  58.2050991  13.7165320  25.5695033
  59.1532564  13.6725616  25.4458189  58.0937529  13.9130044  26.4996839
  70.8811617  21.9468999  58.3298445  71.7631912  22.2554803  58.5372829
  70.4048920  22.0086813  59.1578436   2.6510857  59.7917817   9.1911257
   3.2613943  59.4759724   8.5247791   2.4457071  60.6873081   8.9226473
  76.0742664  31.9394827  55.3026152  75.9219742  32.8240418  55.6351662
  75.7947683  31.9760871  54.3878603  55.0660276  35.4706788  56.2509251
  55.0923777  35.2361059  55.3232861  54.2965460  35.0145054  56.5915680
  49.9801970  26.3127398  42.7649546  49.7666693  26.3882279  41.8349361
  50.2420187  25.3989100  42.8771782  51.0755833  73.2674142  16.5228844
  51.5392121  72.4322410  16.4615285  51.6721304  73.8374378  17.0080984
  56.5775909  16.5523629   3.1750048  55.9896125  16.7548709   3.9026726
  57.0381107  15.7604175   3.4524572  77.5977461  57.7137778  35.1454056
  78.0545704  58.5548351  35.1325882  77.0653288  57.7182529  34.3499458
   3.3121830  39.3937922  24.9137044   2.6407391  39.3235898  25.5922818
   2.8338677  39.2869210  24.0915012  21.9639736  40.4118443  63.4461737
  21.3783222  41.1202192  63.1788731  22.7975327  40.8459044  63.6278343
  44.8538351  22.7197838  35.8021569  44.6569109  22.1050096  36.5089130
  43.9989614  22.9436684  35.4343224  77.1472788  44.3835449  66.2158918
  76.4062023  44.5051718  65.6223917  76.7659664  44.4479227  67.0914984
  32.1975207  23.3996081  63.6332893  31.6186142  23.0815101  64.3260479
  32.9797363  22.8525686  63.7048244  62.7408218  54.6760464  33.1827497
  63.6588335  54.8322678  32.9612064  62.7726555  54.1899443  34.0067172
  76.6593122  15.7804334  58.3671331  77.0482540  16.3139427  59.0601873
  77.3954773  15.5505347  57.8001785  64.8808670  20.3017020  33.0752683
  65.1578331  21.0672736  32.5718546  65.6475639  19.7286630  33.0810404
   3.7107807  41.1980867  61.9713449   4.6650082  41.1229038  61.9766283
   3.4137780  40.4422426  61.4646673  17.8919560  45.6082726  32.1094608
  18.6460263  45.1202631  32.4403000  17.7905327  45.3088474  31.2059736
   3.5947567  16.5992463  26.7454338   4.1132885  15.8436787  27.0219707
   2.8339630  16.2196338  26.3057518  32.8911511  52.7567513  65.0719945
  32.5507943  52.1181150  65.6985156  33.8356320  52.6015897  65.0610034
  34.1768320  71.1028003  47.7409697  33.6721810  70.6532156  48.4187841
  33.5953768  71.7966919  47.4300718  11.6304833   4.3541554  47.2279692
  11.5629917   3.4745732  47.5994682  12.4276978   4.3300962  46.6987181
   3.5203312  51.1779020   0.8633602   3.9660500  51.7268226   0.2181852
   3.0529211  50.5259631   0.3411186   1.6835984  61.7295854  46.5366268
   0.7285484  61.7005246  46.5937662   1.8712052  61.6201692  45.6043911
  18.6079842  15.2809358  49.8627090  18.7015110  14.6402836  50.5677271
  17.8189617  15.0082529  49.3944025  43.5478830   9.2530316  28.3037710
  44.3489265   8.7321693  28.3608890  42.8423309   8.6251724  28.4594011
  59.5445824   5.8590877  56.1994362  60.4743576   5.6852216  56.3461113
  59.4488430   5.8622676  55.2470398  72.9308224   9.5200711  53.3194876
  73.8064146   9.1514492  53.2025051  72.8963757   9.7669107  54.2436695
  70.9595021  57.2746437  29.5078254  70.4079731  57.8210502  30.0677204
  70.6207093  57.4185066  28.6242223  43.7285278  71.5900634  27.8857410
  43.0414246  72.1969269  27.6103485  43.5401199  71.4175890  28.8082302
  43.2997368  45.2796505  14.2660320  42.5158737  45.8030025  14.4330299
  43.6961506  45.6819300  13.4932077  10.8886764  19.4945152  18.7810862
  11.8228290  19.3130882  18.6777544  10.4629753  18.6498267  18.6344159
  35.2708006  19.1369319  57.1496105  34.6875572  19.5440125  57.7901936
  36.0618973  18.9265192  57.6457167   2.6869923  18.4727991  30.3730512
   2.0812088  18.3025813  29.6517444   2.2827107  19.1901267  30.8611417
  70.3742599  15.4873586  31.5724444  69.8844385  15.6396413  30.7642865
  70.3879738  16.3394237  32.0083690  42.0713470  70.0496242   9.8896492
  42.1097897  69.1148637   9.6872223  41.7498348  70.0865839  10.7904804
  77.9877949  31.2012625  46.9214678  77.7622747  31.3184309  45.9986258
  77.9610395  30.2539635  47.0561600  41.1018894  73.7193988   7.2358311
  41.0970638  73.6766265   8.1920612  40.2220009  74.0172646   7.0049561
  76.8296766  49.2308664  61.9905996  77.0016384  48.3348036  62.2799683
  76.0900879  49.1502905  61.3883162  60.1684292  70.3946977  61.1723042
  61.1138638  70.2611618  61.1047840  59.8520478  70.3270959  60.2714348
  41.3166142  25.7628942  31.0092545  41.0416317  24.8510575  31.1049962
  40.6851101  26.1404777  30.3969932  45.8635767  63.7777381  31.5332174
  46.7371901  63.5063403  31.2514925  45.6556280  63.1949799  32.2635484
   5.8186966  17.9921794  39.0781927   4.9828965  18.4463882  38.9715648
   5.6499249  17.1034312  38.7653422  75.9570742  17.5761485  54.5589828
  76.7658234  17.4073219  54.0756035  75.6867218  18.4496379  54.2758608
  71.7990883  75.2724723  34.8275089  71.4353283  74.3979754  34.6890569
  72.3822983  75.1729130  35.5799603  48.0034494  24.8087978   5.5280906
  48.6532545  24.1458559   5.2946591  47.1737099  24.4535375   5.2094126
  30.1691866  19.3435776  62.7370596  29.6615601  20.1164722  62.4897146
  30.3397465  18.8940859  61.9093513  64.0992308  55.3893280  52.4824619
  64.5369387  55.0016165  53.2403040  64.7766018  55.9159565  52.0581293
  14.7670426  72.8459947  40.6727982  14.3417134  73.3731609  39.9964666
  15.7028165  72.9332455  40.4913044  11.0388047  36.4851332  52.6218796
  11.1408287  35.5457926  52.4687099  11.7812687  36.8838453  52.1679974
  76.7005396  31.4210296  19.7164500  76.2138891  32.1852350  19.4075954
  77.5781536  31.7549729  19.9022102  19.1308171  21.9468188  21.8245482
  19.1908509  22.3398685  20.9538341  19.3959194  21.0362196  21.6950703
  77.2766821  58.2743953  13.6090315  77.4514906  58.7978432  12.8269375
  76.8922464  57.4643121  13.2740629  22.4339062  25.7289577   9.1461211
  22.3453289  26.3580418   9.8621118  21.6616493  25.1686049   9.2227292
  65.2447033  10.3596640  52.5229454  64.7398472   9.5528799  52.6251698
  65.3607893  10.6843305  53.4158897  79.1869450  41.4166355  46.8377542
  78.5892725  41.3619089  47.5834274  79.3758488  40.5051327  46.6148090
  61.5619946  36.1365223  35.1337934  61.2266111  35.2412224  35.0870466
  61.6301155  36.4147639  34.2204618  74.1949081  37.8706574  49.1453838
  73.4625864  37.2932720  48.9296055  73.8679075  38.7512469  48.9613724
  61.8397617  25.7579231  35.6418419  62.6737785  25.3507543  35.8760548
  61.3293266  25.7411337  36.4514136  66.1338472  48.8549566  18.1758296
  65.4432535  48.7920237  18.8356388  65.7291555  49.3301249  17.4501097
  47.5289440   0.8376180  28.9073920  48.0757475   1.6140509  29.0273619
  47.0547915   0.7485263  29.7341156  80.2911703  60.5277798   3.9831818
  80.5405800  59.6111939   3.8652885  80.7378904  60.9906314   3.2743538
  77.7495193  12.6386189  55.6198549  77.0802259  12.8915882  54.9840164
  78.5531139  13.0460584  55.2966452  21.0677105  24.1488051  20.3651834
  20.9110409  25.0522852  20.0905776  20.8425766  24.1387701  21.2954783
  16.9446532  59.0968628  44.0160214  17.8134600  58.8515849  43.6978304
  16.6479747  58.3349867  44.5137727  58.6163044  44.8975515  59.9025393
  59.0056944  44.2585754  60.4994583  57.7247906  45.0184011  60.2293873
  76.5437365  10.6008780  25.4895473  77.4746609  10.8232415  25.4765320
  76.0958862  11.4463985  25.5170727  42.3837471  23.8678265  35.3973818
  42.6604080  24.4227552  34.6681738  41.4567471  24.0741682  35.5171013
   8.2576329   0.9241357  50.2423143   7.3320347   0.9652189  50.0018835
   8.2566315   0.9229580  51.1995125  77.1969795  53.9484882  28.7461925
  77.1194744  54.0617609  27.7988839  76.3068247  53.7508821  29.0374064
  60.9816504  35.3670788  57.3942137  60.3367472  34.6990013  57.6266003
  61.8267822  34.9283624  57.4917603  65.0018215  37.4495745  57.0551395
  65.3941774  38.2922220  57.2836876  64.2122078  37.6781726  56.5647459
  54.5536852  21.6339517   9.1841429  54.0463734  21.5068865   9.9858391
  54.9337816  22.5075126   9.2771560  78.7001610   9.7194529  40.0140953
  78.7201500  10.6329095  39.7287393  77.9759836   9.6794558  40.6387568
  48.0972147  34.2360044  12.0190072  48.1162119  33.5057139  11.4005017
  48.0745602  33.8196301  12.8806055  36.7597252  11.0164165  31.5544105
  36.9802624  10.7908571  32.4581361  37.2707802  11.8051517  31.3728738
   6.0863167  28.3328509  65.7841158   6.2480027  27.4854517  66.1988497
   6.7543560  28.9110875  66.1523533   6.4458233  38.9833117  62.9678774
   6.9647175  38.4548998  62.3614454   6.8238026  38.8010287  63.8281822
  20.7544667  32.3574686  47.6728725  20.4565102  32.4590111  46.7689133
  21.2501484  33.1563044  47.8528404  68.1035185  28.1877732  63.1648064
  68.3169699  28.4172845  64.0692377  68.1469250  29.0180016  62.6903915
  65.3240204  53.4901428  30.2784610  66.2224245  53.2570457  30.0444341
  65.0140858  54.0179825  29.5425534  16.5849731  60.8766673  11.5274942
  16.0585545  60.5377410  12.2515381  17.2581528  61.4101050  11.9499958
  68.2361746  62.4914360  28.7148070  68.1222153  63.4316635  28.8534331
  69.1770506  62.3819637  28.5769534  73.0377626  25.8311558  15.0908732
  72.8574133  26.5320969  14.4644654  73.6333704  26.2262964  15.7275403
  18.3917767  42.6370001  55.8725166  18.8644463  42.5832033  56.7031336
  17.5043446  42.3462677  56.0826683  41.7066765   8.6085016  30.7441831
  41.7966318   7.9862636  30.0224066  40.9456348   8.2979459  31.2346983
   5.3710228  56.9497013  32.8782058   5.1535851  57.8476286  33.1285715
   6.2145001  56.7814970  33.2983017  79.0845919  47.0755339  36.8489480
  78.3833790  47.5836325  36.4410615  79.7398615  46.9744205  36.1585641
  80.3141785  25.4290676  59.8502779  80.0409222  24.8645711  60.5734015
  81.1615086  25.7785201  60.1262283  48.2842882  67.3052590  36.5544724
  48.5826262  66.9420158  37.3883080  48.4217080  68.2485568  36.6412878
  33.8142022  70.0294678   5.9624505  32.9784449  70.3757166   6.2752551
  33.7155732  69.0789907   6.0181016  71.5250540  20.4223299   9.0005016
  71.5477467  20.2543497   9.9425739  71.5997601  21.3736153   8.9249659
   7.6859520  20.0745080   5.5068577   7.3954533  19.7925959   6.3742531
   8.2131479  19.3446479   5.1818979   1.5155854  63.3981293  64.6528006
   1.0758080  64.2399316  64.7719479   1.8999924  63.4504609  63.7777424
  11.3156945  11.3831186  30.3384399  11.8803459  11.1335206  31.0699511
  10.6829983  11.9911253  30.7208681  18.5644490  46.2767267  19.4879138
  19.2809635  45.6728220  19.2926168  18.6845356  46.9984436  18.8707113
  70.6171503  68.6987274  34.1963649  71.3808312  68.3996742  34.6899152
  70.9623601  69.3636452  33.6005902  26.0530480  63.0624514  15.3928578
  25.3718909  63.6863451  15.6438816  25.5842884  62.2398536  15.2520430
  74.9058533   9.1403830  30.3234649  75.1279593   9.4581020  29.4482780
  75.1179934   8.2072687  30.3005099  60.6512976   0.7299315  11.4578438
  61.1455727   0.5440417  12.2561979  61.2313366   0.4553603  10.7476342
  81.0708332   8.3626145   8.3640712  81.2384796   7.6939881   9.0281981
  80.8844471   9.1565496   8.8652295  34.2518155  60.8238955  63.0819788
  34.1328065  61.6990562  62.7129784  33.4105031  60.3889914  62.9431661
  53.3186674  16.5190518  25.8409095  53.5517883  16.3628089  26.7560458
  52.7057028  15.8158290  25.6264710  47.4261808  15.0330412  29.3945909
  47.9078436  14.2068791  29.3534970  47.0094013  15.1102459  28.5363555
  45.7136401  66.5528183  31.6829896  45.8755310  65.6266575  31.8625736
  45.1254185  66.5511172  30.9278584  20.4283818  76.0902746  48.8599253
  20.7322939  75.9949419  47.9572725  19.4742449  76.0462675  48.7973166
  60.2773484  64.0137761  36.2445545  60.4200657  63.4406107  36.9977784
  59.6244343  64.6459835  36.5449715  25.5941351  61.1383741   6.7646164
  24.9615820  61.8311243   6.9548929  25.3495844  60.4229086   7.3515880
  43.2163000  13.0943239  11.9163406  43.5003090  13.9890337  11.7290807
  43.5548115  12.9141879  12.7933753  43.8742447   4.2972758  57.4350977
  43.9586115   4.7362781  56.5886974  43.2606745   3.5806680  57.2731209
  73.2966566  71.4821196  22.3048878  73.4179020  70.8081770  21.6360617
  73.0788183  70.9946775  23.0993557  11.7822224   0.3881215  24.4234657
  12.2914845   0.1408450  23.6516261  11.3050228   1.1729779  24.1541910
  65.9956217  31.5036964  45.3634119  65.7883406  32.3090005  45.8374929
  65.1557350  31.2111616  45.0095177  46.0281372   6.3479763  35.3901124
  46.4182281   5.9393990  36.1628509  45.2607679   6.8113238  35.7258010
   2.4131352  28.3651161  29.4010949   2.9996449  27.6515293  29.1500378
   2.9190785  29.1605783  29.2352819  39.3958052  76.1795846  37.1239376
  39.6865805  75.5260553  37.7600050  40.2058562  76.5330506  36.7563653
  80.4220200  42.4902725  26.5468359  79.4974136  42.5690746  26.7816043
  80.8787060  43.0385590  27.1848440  62.6468992  22.2098947   8.3691174
  62.0071793  22.0165634   7.6838332  62.1382952  22.2044349   9.1799951
  48.8756132  26.8752003  40.0158262  49.0643692  27.0380998  39.0916681
  47.9212475  26.8151617  40.0583935  22.1813258  68.8918071  25.0483346
  22.6065214  69.7407602  24.9270058  21.7424878  68.9626979  25.8960509
  63.4497595  15.5163014   9.3594480  63.8121653  14.6925449   9.6855116
  63.4949160  15.4373097   8.4065819  70.1209974  29.7171450  31.0104609
  69.5645905  29.6252918  30.2370214  70.9596777  29.3372774  30.7486463
  72.3915720  48.7051296  52.2126913  72.5251961  47.8901482  51.7287731
  73.0959034  48.7171030  52.8607702  71.0306406  20.1784372  39.3169451
  71.9388771  19.9051833  39.4460535  70.7163382  20.3882885  40.1963806
  10.1685292  15.4956055  46.4326572   9.5343071  15.4021704  45.7218361
  10.5260330  14.6157146  46.5518618  74.0248783  76.6828325  40.6391478
  73.6019333  76.9341193  39.8180509  73.3155831  76.3281324  41.1751652
  72.2278833  35.2654099  44.1864014  71.9293499  36.0374212  44.6671438
  71.5678835  35.1375198  43.5050297  39.4516333  73.1429269  23.1488419
  38.5355290  73.4019317  23.0493164  39.6808251  73.4104281  24.0388680
  61.3605547  26.4201140  22.9936528  61.8910646  27.2157240  23.0360627
  61.8446016  25.8405542  22.4054027  68.7839937  12.4109888  39.7653246
  69.4121075  11.7119491  39.5835352  68.7139702  12.8906739  38.9399576
  64.2010852   1.3461428  37.5691116  64.1041966   0.4740911  37.9516972
  64.8105605   1.2221198  36.8415249  44.5916931  58.8332436   8.4032763
  44.6660570  59.6454857   7.9023111  45.2592127  58.2586727   8.0284203
  23.3476363  51.4443145  18.7233627  23.3732770  51.3916407  19.6787727
  23.0134983  50.5914996  18.4453476  37.8654436  58.2747398  10.5952967
  38.4015540  58.7090013   9.9317968  37.1026055  57.9537652  10.1143778
  16.0362629  74.0401027  18.1649292  16.4164416  73.9415953  17.2920120
  15.7828216  73.1522582  18.4173763  46.7142018  25.3506951   8.1206072
  45.9450324  24.8274331   7.8952015  47.1575948  25.4970174   7.2850073
  58.8643759  48.0323219  64.9727821  58.9149040  47.9327440  65.9234476
  57.9625076  47.7969694  64.7549057  71.5834206  40.4187107  61.9119263
  72.5053626  40.6161165  61.7467403  71.5731102  40.0416565  62.7916765
  33.2958303  72.6740525   8.0333221  33.4756927  73.5208199   8.4418142
  32.8065477  72.1872781   8.6965597  76.3301833  18.9833932   5.6061399
  75.4552277  19.2081838   5.9226120  76.5044721  19.6190743   4.9120462
  61.9158586   1.8022399  31.5901077  61.3813742   1.6897826  30.8040321
  62.5003137   1.0441928  31.5928162  73.8798420  62.2291849  18.3068169
  72.9924528  62.0121143  18.5925663  74.0617172  61.6105745  17.5993717
  61.4277810  69.6013021  25.7353997  60.4750651  69.6257305  25.8246636
  61.7557448  69.8605490  26.5964818  43.6987176  74.2002065  62.1271038
  43.8957252  74.1149085  61.1942911  43.7886562  73.3122580  62.4730682
  12.9793253  22.6914411   0.5450571  12.9998054  21.8958621   0.0131977
  12.7416720  23.3849435  -0.0704157  11.4370382  48.8825846  31.5955544
  12.1752274  48.3881187  31.9516635  11.6442573  49.7964048  31.7910695
  20.2540016   9.8033786  64.8839426  19.4337285   9.8450798  64.3923664
  20.8815026   9.4206440  64.2707634  46.2829351  32.6355934  61.8624210
  46.0253859  32.1549678  61.0757160  46.9265652  32.0697665  62.2888184
   4.8237285  18.2867694  14.7519612   4.8240501  18.7680221  13.9245391
   5.5065465  17.6246667  14.6442068   7.2241855  62.5681829  58.4054995
   6.3464546  62.7461672  58.7433481   7.3390961  63.1978178  57.6937485
   4.8046388  21.3337569   9.8153198   5.4660382  21.9908338  10.0321949
   3.9950647  21.6740565  10.1961411  45.8658679   7.7686362   2.8610409
  46.1583259   8.4301381   2.2340525  45.0704773   8.1376367   3.2449997
  68.8840993  23.7828164   2.1969784  69.0502365  23.8415627   1.2561405
  69.1720267  24.6270614   2.5442160  60.9663804  14.7863393  41.5399731
  61.2846442  15.3262429  40.8164776  61.7575284  14.4037490  41.9193638
  23.9375496  47.5694132  65.5386353  24.7284412  47.0304632  65.5226231
  24.2124295  48.3857775  65.9560394  24.1722759  18.6738257  21.7784107
  23.6962112  18.0696492  21.2087143  24.8565682  19.0414767  21.2191189
  76.2473162  46.0303311  10.5534113  75.7535656  45.4855351  11.1663092
  75.6043609  46.2927442   9.8946417   3.3559999  27.4440217  58.5094547
   2.5309807  27.0952845  58.1718779   3.8237932  27.7477598  57.7315426
  52.0679614   5.4044490  21.1392963  52.7109787   4.6971564  21.0893620
  51.7354940   5.3630261  22.0359505  35.7578842  52.9878042   9.8661650
  35.2241979  52.6154385   9.1642035  35.2163450  53.6861012  10.2340639
  10.1592841  32.6870685  22.6982868   9.2888250  33.0222945  22.4834526
  10.7441892  33.4315209  22.5571812  14.8470652  55.2005577  66.0611629
  14.5546210  56.1104965  66.1133051  15.1627982  54.9995947  66.9421625
   4.9887743  25.9852509  34.0106094   4.6550216  26.6148858  33.3715523
   5.8564510  26.3163524  34.2424286  56.0869044  47.7219439  64.7720337
  55.3323549  47.1882010  64.5230198  55.7866782  48.6247826  64.6672773
  36.2024407  75.5699585   8.2698572  35.8359108  74.8503349   7.7560175
  37.1495573  75.4834244   8.1616247   9.8545351  21.1050181  20.6969822
   9.1136183  21.6917424  20.5452145   9.9213709  20.5905871  19.8925484
  17.6160230  10.1196866  18.9199913  17.8607978  11.0434489  18.9745796
  16.6732254  10.1310782  18.7549389  70.7715042   3.2885938   6.5102518
  70.4333576   4.1552215   6.7357433  70.4636343   2.7202325   7.2162378
  30.8062364  50.6894706   3.2568920  31.4111845  51.1973212   2.7161921
  31.2729074  49.8732386   3.4363831  64.6846692  67.1482442   4.8829449
  63.9272300  66.7243264   4.4794500  65.4393832  66.6788838   4.5275057
  53.5888654  51.6535478   7.9398001  54.2369769  51.2721543   7.3475826
  53.0533727  52.2150521   7.3792780  45.0117175  75.3827403  28.7857330
  44.2023055  74.8737619  28.7407482  45.6539909  74.8535941  28.3127392
  55.6616161  14.0611558  29.6820248  55.1335118  14.6976571  29.2001522
  56.0812651  13.5342746  29.0019405  42.9142710   7.7017980  25.7472408
  42.9446502   7.6519685  26.7026604  42.0022364   7.9126029  25.5472744
  55.2097336  74.1238330  46.2689865  55.2270929  73.7359855  47.1439159
  55.6175748  73.4651134  45.7068527   8.6482968  23.5330634  28.8435066
   8.0815639  22.7717357  28.9676941   8.0844154  24.1864209  28.4295071
  16.0590994  64.4884729  58.6977673  15.8790243  63.6561918  59.1349363
  16.0837483  65.1310349  59.4068050  62.9517569   2.5463920   9.1134203
  63.0945118   2.4417882  10.0541199  63.6294337   3.1625752   8.8353861
  22.1825218  56.6987467  58.6813402  22.3877096  57.5270796  59.1149139
  22.9793978  56.1764669  58.7732506  40.6673960  70.4097626  24.8835934
  40.5667667  71.2571047  25.3173149  41.1504106  70.6073044  24.0811527
  80.0275691  62.7267551  43.5780382  79.7882813  61.9809294  43.0278444
  80.2986000  62.3347902  44.4081831  35.3658104  35.0958204  65.3949594
  34.5806885  35.2285218  65.9261942  36.0536337  34.8958588  66.0298967
   5.7998246  44.8158741  41.1513662   5.1919550  45.4786301  41.4792156
   5.3329957  44.4004631  40.4262924  35.1649133  75.6963442  36.2417782
  34.3270526  75.8846448  35.8189762  35.0605802  76.0220120  37.1358097
  20.6168175  58.3070469  64.9634647  20.1216674  58.2286644  64.1480398
  21.4883137  57.9753876  64.7473049  49.7940914  56.3383839  22.0017422
  50.0804440  55.4311977  21.8956936  49.3964664  56.5639065  21.1607540
  51.9418017  57.4126814   4.0429533  51.8848459  57.8562472   3.1966484
  52.7667991  57.7194581   4.4191158  14.0468240  73.2747412  59.7353697
  13.6516798  73.0870867  58.8839674  14.3100619  72.4179554  60.0713110
  77.3016794  23.9091306  32.5419605  76.5515312  23.4340863  32.8995121
  77.6574071  23.3255725  31.8717754  56.5986811  22.9921107  14.5490063
  56.2425168  22.1038299  14.5305717  56.6914955  23.1936650  15.4801357
   1.3010806  68.8377094  64.6970224   1.6870125  69.6938372  64.5117140
   0.4229990  68.8838768  64.3187761   0.2954020   1.4706449  32.4169815
  -0.1442395   0.9486251  31.7458332   0.0406541   1.0612636  33.2438744
  21.0585586  68.1839845  10.6210077  20.9176729  67.8085921   9.7518337
  20.1835219  68.4317348  10.9196079  25.0178365  54.2871986   9.8744286
  25.8404919  53.9997552  10.2704657  25.2784055  54.6878729   9.0450895
  23.6524677  24.7268653  65.0932741  22.8159833  24.2616415  65.1028967
  23.4793544  25.5407095  65.5664778   1.1344258  61.2713931   6.0548914
   0.5890576  60.5130289   5.8458746   2.0231477  60.9968565   5.8289850
  37.9559795  71.5364335  13.9062965  38.4249918  70.8936904  13.3741844
  37.6868109  72.2119925  13.2838858  48.9005438  53.4725259  34.4035805
  47.9800264  53.2507572  34.5439232  48.9025466  54.4222007  34.2838085
  75.5874006  64.4135044  33.4463299  74.9267379  64.6568105  32.7978218
  75.4822199  63.4680174  33.5522736  55.9508768  18.3385901  14.6801842
  55.6081166  18.2013516  15.5633152  55.7474359  17.5268655  14.2154873
  22.9989676   5.0497730  65.2880049  23.4102846   5.8987052  65.1256371
  22.8792498   4.6711452  64.4170618  30.2576850  63.4206698   7.7358854
  29.9989156  64.1885684   8.2454002  30.2510835  63.7225745   6.8275679
   3.8053455  28.4088902  12.7838219   4.0336885  28.6093478  13.6915100
   2.8585233  28.5424476  12.7399385  79.3574928  31.1185884  64.3543625
  79.4511229  31.1863661  65.3045559  79.8059270  31.8925905  64.0136862
   5.6606688   5.1763682   8.7047136   5.2599086   5.9496455   8.3076466
   5.3474702   5.1820140   9.6092070  52.5892250  73.6569855   1.8892944
  53.2725064  73.7325499   1.2232245  52.1907345  72.8018115   1.7276848
   7.7559298   6.9296938  57.2109842   7.4873453   7.2769117  58.0615950
   7.3255819   6.0766029  57.1538067   6.1371102  16.6968780  25.3377140
   6.2551894  17.4672465  25.8934296   5.1880064  16.5882688  25.2773846
   4.8591831  38.7364149  55.6986475   5.5867314  39.0221143  55.1461267
   4.6903515  39.4808388  56.2761974  64.9713441   8.7009149  42.9719723
  64.3644222   8.6231141  43.7080563  64.4392844   8.5040479  42.2010029
  41.8753533  73.1261823  18.1546963  41.2195722  73.4327767  18.7809456
  41.3688151  72.6766107  17.4782837   0.6288356  47.6830912  54.8640966
   0.1325018  48.3594131  54.4031525   0.5613148  47.9242182  55.7879639
  33.6065149  56.7488432  65.3962326  32.8977966  56.1071539  65.3494930
  33.3139610  57.4698400  64.8387337  45.1240994   9.4875674  18.1892193
  45.3573753   9.3410163  17.2725189  45.8156856   9.0495973  18.6853207
   4.6899346  66.4296579  40.6298208   5.5078328  65.9566355  40.7831907
   4.1922909  65.8627939  40.0405407   3.1855677  60.1953671   3.9096821
   2.3768089  60.1383803   3.4008635   3.8790272  60.2487371   3.2520378
  44.3984222  33.9361811  65.0731039  44.9827766  34.1576481  65.7981682
  43.5276556  34.1857648  65.3824615  31.4422638   3.1383140  61.2728643
  31.5524573   3.8054187  60.5953312  32.0247386   2.4272258  61.0058308
   0.5725872  42.7126789  51.1349726   0.1158734  42.0656013  50.5974483
   1.1817425  42.1975899  51.6639805  16.3971557   8.4502988  13.3418692
  17.2209777   8.5803370  12.8721416  16.2331428   7.5091748  13.2817543
  33.1975583  72.3629782  24.7482193  34.1291134  72.2926495  24.5396793
  32.7517233  72.0430467  23.9639366  40.9819631  44.3603162  22.2206200
  40.4405109  44.1012988  22.9662598  41.0341875  45.3140924  22.2823990
  29.7332070  75.9621260  56.8004692  30.3454451  76.4831636  57.3200024
  30.0206388  75.0579474  56.9272697  26.7245433  63.8559435   8.6403692
  27.0593033  64.5312164   8.0503119  25.8460135  63.6649010   8.3118570
  15.6098251  47.4950079  12.2508181  15.3702084  47.9811970  13.0397642
  16.0827819  46.7289577  12.5759495  68.1598083  62.2150610  15.7667339
  69.0037099  62.6503346  15.6459320  67.8089849  62.5924132  16.5734280
   7.3803582  53.2129865  14.4209183   7.7575864  53.0288320  15.2811516
   7.3515000  54.1684823  14.3716133  59.2668668  66.8718455   5.6666172
  59.7423975  67.3797987   6.3239515  59.4719831  65.9601615   5.8739555
  55.9912650  65.4323957   7.3569000  55.8427183  65.1747296   6.4470804
  55.6200687  66.3124130   7.4202621  59.4548871  17.3681312  11.6549337
  59.6333035  17.9009013  10.8799780  58.7114440  17.7995019  12.0761717
  36.9883867   9.4971948   3.6181343  37.8848799   9.8269753   3.5566700
  37.0319553   8.8068871   4.2798031  52.7333644   1.8853383  37.8645027
  53.4576938   1.5586953  38.3982552  52.2544174   2.4756532  38.4462059
  80.5915255  57.0604515  49.8933029  79.6607754  56.8427372  49.8429394
  81.0378756  56.2827969  49.5582485  79.3686540  29.3800783  50.5524731
  79.5651257  30.0764990  49.9258709  78.4247115  29.4467998  50.6965303
  77.5297125   2.3943334  45.0266541  78.4648402   2.5923161  45.0773323
  77.2292598   2.8558927  44.2437637  71.1313339  10.0648599  36.9006146
  71.0767408  11.0056071  36.7325390  70.7684906   9.6594005  36.1130989
  74.5918544  34.3779187   8.7750567  73.9740833  33.9309411   9.3536795
  74.1597780  35.2032380   8.5550726   5.6216931  30.6103587  54.6992826
   6.1679578  31.1505246  55.2702904   4.8097676  31.1082029  54.6035671
  25.7410278  27.8902059  14.8987854  26.1154117  28.3867650  14.1711128
  26.5001716  27.5736957  15.3884304   8.2171597   3.3805995   5.2713049
   8.7134566   2.6902919   5.7110775   7.3048701   3.2023673   5.4997671
  36.9275991  63.7481473  12.5692118  36.7919008  62.8358267  12.3133028
  37.8528194  63.7942264  12.8102005  42.0293335  74.7076748  45.2146423
  41.2904207  74.3086908  45.6740463  42.6884810  74.8449562  45.8950222
  17.7886190  31.9436603  35.5837906  17.9415359  32.6767831  34.9876583
  17.2166576  31.3523488  35.0944603  38.2198803  64.4540999   2.8015554
  37.6271335  63.7974952   3.1672800  38.4914247  64.0890477   1.9593990
  13.5280075  11.3085752  40.0962341  14.3974914  11.0251956  40.3789318
  13.6586895  12.2022109  39.7791088   9.1732434  70.2908347  16.2566746
   8.2649044  70.0243876  16.1147011   9.4079177  69.9022291  17.0993794
   4.2889881  39.6606374  65.0353718   4.3407404  40.6139421  65.1043749
   5.1934105  39.3813491  64.8930693  15.3437221  29.2923164  56.6122103
  14.7565258  30.0375557  56.7388964  15.6322598  29.3666625  55.7025671
  59.6978631  12.7370172  33.7641895  59.2932608  12.9076247  34.6147240
  59.1223391  13.1703668  33.1339348   3.7922633  10.5877268  57.9917812
   3.1138867  10.9595358  57.4280500   3.9051616   9.6925461  57.6721907
  57.9688946  56.3486991  11.1786879  57.7310769  56.8188844  11.9778097
  58.8366000  56.6838322  10.9528387  37.6558296  70.7356642  21.3346565
  37.9779295  71.3659332  20.6902683  36.7262987  70.6364987  21.1288155
  61.9837602   0.0777965   4.0952480  61.1308189  -0.3560705   4.1172064
  61.9337120   0.7395105   4.7850788  15.1547360  48.5084295  61.2746572
  14.8089516  48.4386873  60.3848267  16.0993791  48.6090136  61.1573315
  29.6293361  61.6376302   4.0187729  29.6664924  60.7012437   4.2137898
  28.9382426  61.9738767   4.5893515  65.4712303   9.0921025  19.1443527
  66.0740705   9.2822509  19.8631371  65.9257634   8.4342151  18.6182201
  48.2209651  60.9070466  15.5572594  47.4864618  61.5121434  15.6601990
  48.3415190  60.8355901  14.6103752  27.5661039  65.9060955  62.6919603
  28.1276035  65.3870010  62.1162081  28.1592250  66.5371752  63.0996132
  72.4289854  29.3139558  22.8826321  73.2738312  29.6350293  22.5673855
  71.8483682  30.0729041  22.8268230   6.3383212   1.4320140   8.4862698
   6.6149273   2.0492654   7.8089846   6.7683639   0.6098299   8.2510984
  22.7231731  34.7640996  41.3161552  22.9543867  35.2397923  42.1139610
  22.7837934  33.8409142  41.5616787  78.9050025  69.2002630  46.1131382
  78.8842782  68.3077431  45.7678699  79.2196918  69.7324944  45.3824329
  34.2874183  31.2280612  20.6663025  34.2678012  30.5397992  21.3312424
  35.2167596  31.3430696  20.4679859  10.4691448  41.2581639   4.0290630
  10.7357874  41.9202332   3.3912552  10.7708349  41.6008525   4.8703611
  68.5083171  30.2438312  61.4398468  68.6302920  31.1584239  61.6945541
  69.2762371  30.0393443  60.9062660  41.8590506  18.8486485  15.4862202
  41.8078633  17.8930335  15.4659832  41.2908181  19.1036038  16.2130917
  66.0337575  56.3188081  41.5284718  66.9880350  56.2641244  41.5794075
  65.8377953  56.2234597  40.5964077   8.5190904  63.0919838  52.3321438
   7.5907499  62.9335451  52.5033522   8.9449227  62.9590702  53.1790400
  11.5187301  41.2252812  38.0737484  12.4405684  41.3983254  38.2648075
  11.1184420  41.0853200  38.9318932  26.9888439  24.8726277   2.3905981
  27.4545040  24.8602633   3.2268036  26.6725483  25.7720761   2.3058641
   4.6264901  10.0678496  28.5556591   4.2136445  10.0630193  29.4192398
   5.0267281   9.2019420  28.4766758  23.5420360   0.1438456  16.9263065
  23.5726108  -0.5626316  17.5714386  22.6357450   0.4509311  16.9501770
  57.7553259  16.6731267  17.8872479  56.9113757  16.5432792  17.4546803
  58.4015473  16.5613608  17.1900166  81.1515697   6.9394164  13.5756720
  80.3146013   7.3905044  13.6862934  81.7868431   7.6427608  13.4416330
  68.2282384  18.5252337  16.3576878  67.4112960  19.0240340  16.3516224
  68.3517762  18.2568650  15.4472244  71.3116378  59.1267204  53.1972742
  70.4289156  59.4136238  52.9633522  71.4083403  59.3747950  54.1166973
  71.8375846  54.8903375  12.9396904  71.2742682  54.9473767  13.7114704
  72.7117832  54.7252660  13.2929028  79.2452772  14.9745755  27.2183788
  79.5300420  15.6079440  27.8771484  78.7132390  15.4859309  26.6087139
  21.1380567  36.2706046  29.3032158  20.9446230  36.6595654  28.4502686
  20.3896083  36.5087466  29.8503387  13.4384622  60.8823304  17.0318878
  13.9777746  60.4876714  17.7171696  13.0211439  60.1385026  16.5973843
  54.7114640   0.2343476  15.6230343  54.8517019   0.4814923  16.5370739
  55.1383382  -0.6180847  15.5372036  24.2900085  73.9926434  60.5538702
  23.5201550  74.1109180  59.9974823  24.7905159  74.8013067  60.4452896
  16.6546382  19.0065484  55.4469383  16.3050689  19.8012547  55.0438679
  17.0424976  18.5198169  54.7196949  68.4933551   0.9323840  60.6413925
  69.0983899   1.0183792  59.9046600  68.7722989   1.6070895  61.2604130
  17.8989160  64.9089670  41.2287426  18.6093831  64.3770218  40.8702755
  17.8191411  65.6434965  40.6201935  18.5598397  60.8225060  41.2892008
  17.6120949  60.9534216  41.3187122  18.8974941  61.6113186  40.8649492
  18.1597650  73.4593821  54.4910336  17.2346306  73.7012291  54.4478273
  18.6254263  74.2955303  54.5068359  45.7110659  51.8561719   6.2777222
  45.6803099  51.3039122   7.0589388  45.3212170  52.6852474   6.5550030
  37.1745578  62.5997064  26.6193378  38.1275384  62.5671194  26.7029846
  37.0227615  62.8758238  25.7154835  61.4319698  68.5729239  36.4337814
  61.2353603  69.5068047  36.3600147  61.3445989  68.3828185  37.3678387
   2.5326552  20.1310782  33.1668461   2.0344247  20.6626706  32.5460327
   2.1550908  20.3429179  34.0205467   6.0162495   7.4553687  62.4108171
   6.3726137   8.1991489  62.8966379   5.7147358   6.8494613  63.0877209
   8.2166471  20.1822619  14.0614403   9.0715828  19.8062186  14.2709816
   7.8089037  20.3394608  14.9130714  51.4416361  72.8467274  55.3667593
  51.5351200  73.3165979  56.1954403  50.5410242  72.5226068  55.3754854
  41.0433569  48.0318265   1.2148893  41.2964716  48.1719022   0.3024519
  40.0929489  47.9218297   1.1856211  26.9600715   2.6350694   1.0384501
  26.0327425   2.8016095   1.2074316  27.1019163   1.7388921   1.3433683
  79.5930336  55.7409191  61.5806818  80.0334500  55.6899834  62.4290133
  79.3268339  56.6571283  61.5036440   2.8981207   2.3822696  43.4696674
   2.7956007   2.8949697  42.6678801   3.0058048   1.4810712  43.1655693
   8.4106340  37.0878034   6.9053162   7.9588070  36.5722280   6.2372864
   9.0284862  37.6285415   6.4132870  80.0403682  74.1271494  34.2230881
  80.9507982  74.0908597  33.9297665  79.5403806  73.7494109  33.4995068
  22.4523520  48.4326696  62.9441071  22.8535128  48.4913921  63.8112020
  22.6806402  49.2588997  62.5181293  52.5961398  37.7739196  57.0244396
  52.3274470  38.5771184  57.4704350  53.4736125  37.9657464  56.6935719
  62.5324013  15.1754956  51.6877258  63.0524971  15.7197957  52.2788895
  62.7996101  15.4512506  50.8109177   6.9653930   0.8737950  19.0456379
   7.6038303   0.1614933  19.0102089   6.8441453   1.0404878  19.9803818
  79.1519268  46.0874658  12.0424736  78.6862286  45.9820561  12.8720797
  79.6897276  46.8693929  12.1673763   7.2809138  32.2082906  27.1635330
   6.4038267  31.8540864  27.0169342   7.4978914  32.6565843  26.3461102
   4.3489708  26.8947988   8.3633364   4.6326532  26.0033231   8.1607807
   3.5363569  27.0055346   7.8697479  55.9195725  65.1682422  11.6487635
  55.4307095  65.9027264  12.0199478  56.0191361  64.5545600  12.3765743
  37.5063757   0.2950103  43.8226223  37.0811603  -0.4104846  43.3350754
  37.0141939   1.0808379  43.5850000  18.8872661  10.4304509   0.2032555
  19.2070236  10.6176429   1.0858381  19.1544332  11.1899858  -0.3143942
  38.2552709  46.8146996  28.0412949  38.2936992  47.3355775  27.2391499
  39.1715040  46.6497998  28.2639206   7.3721099  54.6460772  63.7197065
   6.4921594  54.3895960  63.4437799   7.3358738  54.6352911  64.6761608
  72.9620226  13.1219201  28.1596745  73.2179018  12.2452693  27.8728951
  73.6661228  13.3968358  28.7469471  33.2926869  68.8823414  55.1760864
  33.6201000  69.6417904  55.6580305  32.8818440  69.2531872  54.3951178
  19.0420401  62.3983097  63.1864452  19.2941105  62.5313663  64.1002226
  18.1096387  62.1850824  63.2238102  29.3279638  44.0265374  11.0199631
  29.4375505  44.9511819  10.7980431  29.2497291  43.5849099  10.1743353
   6.2433853  42.9179769  20.9548271   6.9200673  42.7060895  21.5978230
   6.6164770  43.6348538  20.4418743  32.0993509  26.2859683   9.6258534
  32.3305788  25.6695895   8.9309872  32.2145261  27.1491246   9.2284525
  20.3524007  40.7301478  19.7200764  20.7127895  39.8437028  19.7439755
  21.1135807  41.3010554  19.8244656  12.8646340  20.2755551  35.5052078
  12.6892128  21.0446029  34.9629677  12.0290079  19.8098330  35.5378330
  21.5906848  30.1109700  20.4518784  21.6029825  29.4932752  19.7207630
  21.8841447  30.9386830  20.0710953  17.0532837  48.8123898  10.3606403
  16.3982524  48.7210660  11.0526121  16.9947185  47.9950051   9.8659933
  44.5835114  56.4789248  64.3865013  44.2240095  55.7157326  64.8387384
  43.8708735  56.7814589  63.8235998  20.4759765  65.3336287  47.8698683
  21.0357213  65.3511667  48.6461496  19.9743700  64.5227957  47.9545450
  13.5821333  34.8404603  17.5532139  14.2446031  35.1573949  18.1671513
  13.1169834  34.1564183  18.0348290  69.4550951  24.8368268  38.0113781
  69.3695625  24.8941236  37.0597351  69.4609543  23.8974624  38.1952084
  35.6929769  32.6572375   4.3934143  34.8503866  32.4076657   4.0139521
  35.8631696  33.5320907   4.0442837  62.0105235  24.5523174  62.8342152
  61.7751853  23.6394317  62.6683950  62.9111115  24.5128162  63.1561089
  66.4216514  46.8766503   0.6240738  66.9031580  47.6437573   0.3143538
  66.7522033  46.7280011   1.5099991  64.4176596  42.5500202  63.7634325
  64.2669708  41.6282845  63.5538340  63.5461098  42.9453707  63.7452316
  14.7406663  39.6899180   4.9381149  15.2340593  38.9385753   4.6090687
  15.1345100  40.4450421   4.5011843  65.0631968  59.6445248   0.6584538
  65.1415507  59.0855668   1.4315355  65.9609548  59.7411535   0.3407705
  75.9446200  13.2579904  19.3469704  75.6287773  13.9730124  18.7945068
  76.6695197  13.6399178  19.8418320  34.8342228  67.0244265  65.7761335
  34.6902013  66.5315437  66.5839434  35.7317686  66.8102217  65.5216503
  39.0147525   1.2438595   5.7816923  39.5856339   1.8601620   5.3229034
  39.4765264   1.0516560   6.5978182  68.9867250   3.8903148  57.6850080
  68.2350008   3.7636192  58.2638741  69.6591894   3.3054454  58.0342102
  54.3236187  31.3857942  15.0215519  54.1647232  30.6909900  14.3826187
  53.4835949  31.4988809  15.4662979  25.7645512  75.7470369  49.7015667
  26.3155341  75.1547766  50.2133083  24.9447536  75.2677155  49.5814896
  81.0707625  13.8670259  22.8910339  81.3153132  14.7869496  22.7902210
  81.1326059  13.7045197  23.8323105   1.7472694  11.8898113  54.6977806
   2.6695726  11.6912467  54.5360231   1.7637442  12.6740176  55.2463913
  73.0914148  10.4269223  26.8746079  73.0667623  10.3958087  25.9182346
  73.6656686   9.7025447  27.1230877  63.3873087  29.6943355  62.6305914
  62.5428408  30.0179791  62.9442167  63.6293060  29.0113211  63.2560205
   5.7519879  45.1800923  32.8152264   6.2725629  45.7234197  32.2235954
   6.3307347  45.0138478  33.5593021  35.1899336  64.6149228   3.6203611
  35.2389083  64.0990136   2.8155792  34.6664522  65.3802607   3.3827484
  76.4949711   1.1417537   1.4121426  75.9778770   0.8600979   0.6574810
  76.2136920   0.5662827   2.1234453  80.2156313  10.6170802   0.9291876
  80.6616505   9.7707753   0.9618843  80.8505615  11.2068896   0.5227173
  14.4181814  29.0230327  21.8807686  13.9364852  29.7713571  22.2331989
  13.8369789  28.2758050  22.0224941  12.9783430  28.0414872  65.9582127
  12.8707780  27.4588733  65.2064026  13.1338968  28.9037137  65.5727184
  26.6499472  69.9802017  20.8627796  26.2965322  69.1771460  20.4801178
  26.5097046  70.6475067  20.1910138  69.6209868  32.6462464  46.1038101
  70.3970643  33.1609397  45.8823860  69.8970600  31.7365365  45.9922398
  24.4857693  20.8069134  51.4551973  24.8807955  21.6522384  51.6687727
  24.6038222  20.2807283  52.2460318  54.7704927  74.5495031  52.9270256
  55.1124684  75.2315471  53.5050381  53.8274280  74.7108124  52.8980053
  38.6570791  74.3574260   6.6252888  38.4737960  74.7836874   5.7880676
  37.9224388  73.7575672   6.7545403  64.4907888   0.6889849  19.0697563
  63.6891385   0.2578382  18.7736118  64.9316319   0.9552507  18.2629097
  77.9350607   4.5062072  61.5274906  78.0538599   3.5578639  61.5800667
  77.3469535   4.6330173  60.7829905  10.7581806  56.8720007  50.7491493
  10.5677378  57.4366903  50.0000858  11.7063761  56.9367933  50.8629847
  31.7829646  66.2825535   2.0657194  31.3633654  66.1516402   2.9160297
  31.1617891  66.8179105   1.5719927   4.7049775   8.9070420  21.5501202
   3.8902964   8.5583072  21.9119347   5.3921904   8.3744102  21.9504536
  36.3265634  70.6985426  60.5467033  36.8435216  70.9837723  61.3001204
  36.6346025  71.2454081  59.8240137   2.2630586  11.1781983   4.9858797
   2.0934143  11.1413579   5.9272039   2.4015894  10.2658467   4.7315920
  72.9410871  17.6530223  28.3536709  72.7002998  16.8095021  27.9706181
  72.9654523  17.4896913  29.2965210  46.7232513  75.7826567  65.9197617
  47.2106171  75.0436354  66.2838364  47.3844290  76.4609003  65.7817125
  57.5189439  10.4369075  54.4364738  58.2267849  10.4273803  53.7921906
  57.9557816  10.2847965  55.2744913   7.7207698  27.2602515  19.5733822
   7.3907222  27.6142220  20.3992165   7.8548231  28.0294423  19.0196503
   3.5653486  25.6853967  44.0059269   4.2510953  26.0542350  43.4492004
   3.9649286  24.9071031  44.3942822  21.7041673  23.6439853  33.6583221
  21.2778558  24.3144231  34.1921795  22.2641649  24.1361527  33.0579842
  12.3638191  23.4865861   9.8000467  12.9041662  23.5960011   9.0175570
  11.4639248  23.5562806   9.4813574  19.0823021  23.6246209   6.3552177
  19.6759834  24.3708377   6.2719429  19.0185489  23.2691817   5.4687441
  48.0221359  16.6662318  42.9495764  47.4719159  16.1425502  42.3671198
  48.3272783  16.0464580  43.6121559  62.6314433  17.1032577  21.6119087
  63.5245415  16.7878871  21.7502869  62.5358458  17.1419339  20.6602848
  56.8700878  21.4992912  66.3858032  56.4482371  21.5967090  65.5321169
  56.6274325  20.6193073  66.6738510   4.5351503  10.7662399   2.9682311
   3.9064835  10.0575835   3.1053895   5.1044653  10.4490192   2.2671738
   0.7358088  28.1878476   9.7686089   0.5805816  27.2529178   9.6342743
  -0.0890241  28.6056046   9.5208872   0.8256354  17.6921849   4.8162640
   0.6958713  16.8880277   5.3189791   0.1532163  18.2899957   5.1429213
   9.6076884  56.1130910  28.5334862   9.7203388  56.9903760  28.8994206
   9.0872302  56.2488561  27.7417076   4.5625875  11.6654880  15.1269710
   3.8838003  12.3389442  15.0830328   5.1775263  11.9878585  15.7858801
  59.3275444   5.2916629  53.5233212  59.0265552   6.0772140  53.0666399
  60.1624838   5.0776965  53.1069946  35.6824372   6.7432601  62.2705364
  36.2433026   7.0096404  62.9990339  35.4762081   5.8259399  62.4500275
  65.0024525   3.3602435  60.9448290  65.1537601   4.2198283  60.5518198
  64.8604814   3.5431678  61.8736029  14.1833685  15.5791957  65.9110403
  14.0529440  16.4790351  65.6118536  13.3410309  15.3284080  66.2902546
  33.3074035  63.5474782   5.3469217  33.5784139  63.3895020   6.2512577
  33.9859428  64.1206937   4.9901999  52.0992910   6.3058095   8.6848820
  51.3589819   6.0924058   8.1168736  52.3617220   7.1861081   8.4157408
  19.8615970  38.1376653   8.3134592  20.4550018  38.1485467   7.5624693
  20.4320564  38.2657485   9.0713490  25.4937162  26.6039090  29.3616856
  24.5977583  26.9141679  29.2304123  25.9466543  26.8291240  28.5490692
  62.2852294   9.7105224  30.8302617  61.3831917   9.6922500  30.5105329
  62.2915999  10.4043014  31.4897013  15.3380622  36.8276410  42.4630058
  15.9973945  36.4746623  41.8655766  14.9217357  36.0545306  42.8440655
  69.5603609  72.1716785  44.5767403  69.4387197  71.8790674  45.4799652
  69.9207973  71.4089966  44.1243744   4.1816821  63.6554055  31.5166939
   4.5130410  62.7608972  31.4374435   4.5377578  64.1111760  30.7539833
  67.9966021  67.2779369  57.9448080  67.6439095  66.4146757  58.1607056
  68.9263058  67.2186756  58.1647444  26.6345777  54.8153310  29.9046505
  26.1749258  54.9891095  29.0832222  27.4431696  55.3233342  29.8387516
  29.6225633  47.1220307  36.4520348  28.8828744  47.2301679  35.8542049
  30.3958406  47.2165208  35.8958424   3.9790305  69.5860999  23.5362792
   4.4667753  70.3461586  23.8535333   3.0670985  69.7786718  23.7542844
   6.3822788  58.1089163  46.9357872   6.4249194  58.6722708  47.7084732
   7.2753596  57.7816439  46.8284082  57.0023632   6.1279911  46.1303282
  56.2645054   5.5245930  46.2181616  57.7715445   5.5976671  46.3385248
  40.6334448   3.4932584  52.1098948  40.5453348   4.3111938  52.5992298
  40.8833599   3.7677270  51.2276030  78.7802452  34.6873832  54.8192358
  78.9245802  34.7396660  53.8744259  79.3633199  33.9870834  55.1122093
  25.1226568  10.6943595  50.4834032  25.1369810   9.8634279  50.0084543
  25.4592896  11.3344741  49.8563766   9.6626288  50.3495646  49.5198298
   8.9713526  50.4707003  48.8689089  10.3755927  50.9133911  49.2197990
  31.4911703  63.1629083  18.4299839  31.4940260  63.5961673  17.5764549
  32.4034522  62.9114411  18.5739887  54.3760443  15.9122205  28.3022690
  54.8126793  16.7314899  28.5354590  53.5918903  15.8941460  28.8509083
  42.1739817  18.2117558  49.9421835  41.6777468  18.6530268  50.6315756
  41.6518450  17.4384022  49.7288036  37.0936869  36.1696384  17.4307335
  37.2948412  36.5333923  16.5684975  36.6272936  35.3548557  17.2440804
  72.3531741  36.0075045  28.7305641  72.8565055  35.6532502  29.4636369
  72.8775454  35.7994866  27.9572630  22.1797706  46.0903654   8.5110891
  22.7886091  45.3537903   8.5659016  22.2375301  46.3816438   7.6011169
  11.8134252  54.2200635   7.3567617  12.5641755  53.9338694   7.8770483
  11.9740466  53.8581751   6.4852846  65.2793878   3.9556810  56.8031645
  64.7215813   4.6701920  56.4956665  65.9931773   3.9180699  56.1665154
  51.5513412  76.3005946  23.3450020  51.2590567  76.0126326  22.4802006
  52.4305956  75.9331796  23.4352673  56.3482579   1.1612682  32.0455730
  56.7280643   2.0335631  32.1508205  55.4267123   1.2714343  32.2797668
  28.8598561  28.4288645  62.0896387  28.3854938  27.6042342  62.1954536
  29.1288900  28.4342480  61.1710405  67.5849100  17.7798657   5.2841318
  67.3054310  18.4546618   5.9028185  68.5405834  17.7867799   5.3377378
  26.0663706  46.7318253   8.8622177  26.1159492  47.6172260   8.5018862
  26.8781888  46.3117854   8.5780514  53.6377517  72.5976727   5.6149996
  54.2745916  72.2457407   6.2369431  53.5923807  71.9402073   4.9208010
  72.5004856  33.0125103   0.3632725  72.3395816  33.8904683   0.7090080
  73.3618347  32.7742384   0.7061041  59.8590080  65.5779097  27.0224846
  59.1203324  65.4475782  27.6171291  60.1995341  66.4431808  27.2495926
  29.0133514  58.7603996   7.7522505  28.1554651  58.3862183   7.9528797
  28.9239761  59.6901748   7.9614437  71.5908331  41.4972639  31.4208031
  71.0008031  40.8045769  31.1236715  72.4679667  41.1553240  31.2477446
  15.1827931  55.7675028  58.3516455  14.3753421  55.2569389  58.4114552
  15.6431758  55.5843925  59.1706371   4.1752344  19.6683836  45.9819460
   3.7185708  20.5056357  46.0637808   4.4536024  19.6358466  45.0666952
  59.4399969  68.0062936   8.3698071  59.0297763  67.1475218   8.4721029
  58.7167637  68.6282323   8.4495390  14.7507954  39.4956112  58.6535835
  15.2343750  39.3297720  57.8443384  15.3541458  39.2373323  59.3503571
  61.8786907   4.3493900  56.7383575  61.7154169   3.5925096  56.1755896
  62.0517683   3.9732692  57.6013803  59.1623451  32.2316318   6.6472662
  58.2182713  32.3888020   6.6313589  59.3074985  31.5758185   5.9653032
  65.7996172  12.4526632  49.9566984  64.8814148  12.3103750  49.7267151
  65.8542591  12.2151494  50.8823490  27.2711992  14.2421591  48.1836557
  27.8035450  14.8861265  47.7165937  26.6536212  14.7664595  48.6934948
  11.4840869  47.8346238  14.8760784  11.1264602  48.7203143  14.8137272
  10.7222680  47.2799990  15.0441731  52.5972597  65.1997087   0.7424391
  51.6596977  65.3068660   0.9028280  52.7868096  64.3034218   1.0198820
   7.0611572   3.8545743  54.8657084   6.3131976   3.6522070  55.4276991
   6.7391425   4.5346642  54.2740870  68.9278581  70.9085917  63.2707596
  69.0689733  71.0008561  62.3285246  68.0137064  71.1603503  63.4018183
  41.8434338  45.6175426  11.0448683  41.6390316  44.8206870  11.5342272
  40.9986774  45.9138367  10.7059992  11.5848076  62.6515055  49.2863655
  12.2481298  62.8278255  49.9535561  11.0746658  63.4598827  49.2362928
  36.2497687  17.6774418  64.6445656  36.9916320  17.6683259  65.2493668
  35.6630802  18.3475578  64.9952459   9.8669392  31.3144851  40.8799171
  10.6680071  31.8089199  41.0532856   9.1684526  31.9675922  40.9223413
  65.8347183  35.8353281  59.7075081  65.9645051  34.8941469  59.5910406
  65.6098694  36.1559939  58.8340950  73.1956371   8.4472232   6.2957037
  72.2511872   8.2937627   6.3221157  73.4912296   8.2758765   7.1898497
  58.2624533  69.6738254  42.5655031  58.1707548  69.0225708  41.8700218
  57.4344166  69.6316265  43.0438375  76.2201655  25.0879169  36.8696690
  76.6198933  25.8349133  36.4242005  75.6643844  25.4800391  37.5431514
  74.8176169  41.3977718  46.8427610  75.1837969  40.5882311  46.4866972
  75.5306923  42.0328379  46.7760897   8.2402807  32.5546575  49.6495819
   7.8966922  32.8949952  50.4756260   8.1124681  33.2684660  49.0247822
  64.9408515  44.1536908   6.0669315  65.6824704  44.7479634   5.9525908
  64.2962428  44.6662145   6.5548122   6.8714279   0.8771630  45.2944374
   7.1934569   0.1691943  44.7364855   6.6469550   1.5797259  44.6843147
  14.1807989  55.8250795   4.1245497  13.3485929  55.7434581   4.5903862
  14.2942874  56.7673645   4.0002478  56.5394584  72.2579763  25.5486286
  56.9585148  73.1185649  25.5452717  55.6123392  72.4424408  25.3981197
  23.3367467  43.6748266  49.1295958  23.5149336  43.5362577  50.0598001
  23.8058901  44.4806528  48.9133072   9.2921285  64.0276859   9.3760622
   9.9810723  63.5677479   8.8964308   8.4969346  63.5280512   9.1909540
  67.5842031  39.8670917   7.5389040  68.5063597  39.7919517   7.7842892
  67.1463533  39.1784387   8.0391872  22.0581404  58.2676802   8.6002481
  21.4115397  57.5762103   8.4587896  21.5941481  58.9277623   9.1152561
  66.3194283   1.7712026   5.3906000  67.1337326   2.2160869   5.1556147
  65.9389420   2.3161464   6.0794390  63.9155191  14.7928655  59.8397732
  64.8385614  14.9206781  59.6209383  63.4423095  15.0786233  59.0583324
   1.7880279  30.1645899  35.4720926   2.1258864  29.9772143  36.3478637
   1.9760832  31.0932827  35.3364587  69.5852955   9.7200065  15.1123989
  69.0905376  10.4772239  15.4255665  69.2509540   8.9857583  15.6274975
  51.6534426   9.9566369   4.5304812  50.8810576  10.4256253   4.8462379
  52.2725641  10.6470733   4.2933786  22.5579214  34.4298267  44.9342966
  22.0417452  34.7453809  45.6760645  23.2925200  35.0407743  44.8765039
  32.0220733  70.4591608  52.8242731  31.4100432  71.0108519  53.3114004
  31.6289783  70.3744984  51.9556332  44.5734541  27.1917031  15.1699722
  43.7415854  27.6560006  15.2630127  44.6210138  26.9694588  14.2401493
  10.2460782  56.4987383  20.0330914  11.1179821  56.1726735  20.2560223
  10.2456454  57.4070869  20.3349770  20.8581829  16.9342482  44.5514441
  21.5475678  17.4602485  44.9567890  20.0544357  17.4290895  44.7106743
  31.3938383  46.6800837  25.1955689  31.1878509  45.7468347  25.2489269
  30.5546779  47.1189366  25.3350246  78.2680026  35.1034141  61.9948673
  77.7339789  35.5314255  62.6640844  79.1707039  35.2827549  62.2579241
  18.4561622  38.3858395  62.7615881  18.9484119  39.2063785  62.7868605
  19.0316761  37.7753735  62.3007822  63.6244265  48.1973086  15.0652206
  64.1382090  48.1858490  14.2576778  63.7717835  47.3356161  15.4551018
  22.7366662  24.6670175  58.4954929  23.5735250  24.3939424  58.1195545
  22.3508096  25.2382994  57.8314257  15.1242936  20.9516501  50.7597923
  14.4473851  21.2886477  51.3467026  15.0157940  20.0010943  50.7898331
  15.4816202  76.5852497  30.0479687  15.3869442  75.7171414  30.4399574
  14.9546091  76.5464375  29.2498577  72.4123873  67.3315387  65.3911209
  71.8575968  68.0187964  65.0221825  71.8488659  66.8805628  66.0198450
  30.7091832   6.8571055  57.0350504  31.6541672   6.9445091  56.9101667
  30.3509927   6.8387061  56.1475849  57.9997603  64.9288366  29.1373241
  57.5374214  64.9181841  29.9753941  57.4691192  64.3757150  28.5639942
  66.1495473  71.2252574  37.3582125  66.5196302  70.5763250  37.9566741
  66.3143351  72.0660730  37.7849507  51.9774250  15.6561856  14.4407166
  52.1204350  16.5883784  14.6044148  52.1439739  15.2364879  15.2847279
  68.6306959  17.7727151  26.5187430  68.4103113  16.8762481  26.2657428
  68.2217902  17.8868604  27.3766470  25.7605982  23.1820130  65.9836483
  26.1989260  23.5899544  66.7304325  25.0650167  23.7964082  65.7493019
  17.2588313  66.5611172  60.5189753  17.2887635  66.0241175  61.3107872
  17.6440215  67.3970509  60.7817984  38.4254829  48.0693881  30.4323566
  37.9945759  47.3038314  30.8124531  38.7447170  47.7670304  29.5821178
   9.9494213  40.1072502  54.1260338   9.6390182  39.3146396  53.6882544
  10.7660317  39.8427415  54.5496082   0.6930031  12.1395974  28.9192665
   0.4567351  12.9939942  28.5581291   0.7812371  12.2932630  29.8599232
  27.1478533  69.7907732   8.6868942  27.1680329  69.5306323   9.6078480
  27.0850600  68.9654157   8.2061947  34.5296349  69.8502599  51.4041042
  34.0379622  70.3079908  52.0859909  33.8946392  69.7151726  50.7007074
   4.1462555   0.7533293  14.4461239   3.9595284   1.6606359  14.6872890
   5.1017417   0.7057528  14.4142998  70.1437370  61.8991659   6.6616571
  69.5439235  61.8612907   7.4066580  71.0025541  62.0578144   7.0534409
  50.0105800  18.9333682   0.5823172  49.3384843  19.3496566   0.0426615
  49.6004220  18.8342290   1.4414871  10.0775588  19.0796793  50.8870888
   9.1666621  18.8981342  50.6557035  10.3571773  19.7432816  50.2564716
   1.5441885  17.8108077   0.7229317   1.9424595  16.9424729   0.6628788
   0.6018152  17.6435761   0.7088364  12.4250054  49.7098398  61.7934799
  13.0547988  48.9921713  61.7260265  12.9057479  50.4096222  62.2355413
  61.4642779  73.3396409  13.8609779  61.6534177  73.8664172  13.0844725
  61.6798560  73.9121888  14.5971478  11.7622948  64.4942093  62.4792385
  10.9629536  64.6024370  62.9945755  11.5175974  63.8848686  61.7827749
  69.9643749  14.8896575  43.9339256  70.0793356  14.2419887  44.6292973
  70.8501488  15.0530684  43.6099911  77.5202457  52.5203798   8.8073338
  78.3553926  52.7844939   8.4213198  77.4555341  51.5838323   8.6204517
   2.5728121  41.3316059  42.0362759   1.8933237  41.1696911  42.6907301
   3.3729836  40.9849644  42.4309874  39.0563679  19.5570612  48.6068964
  38.2140374  19.5077014  49.0588617  39.1940618  18.6756217  48.2600021
  25.2742624  68.7814903  42.8530073  25.9958124  68.5184050  43.4243059
  24.7909594  67.9716682  42.6891899  55.1196639  56.7062412   7.6365030
  54.1962783  56.5129934   7.7985132  55.1252953  57.1584366   6.7928684
  42.4903468  57.8390501  31.5628803  43.0647413  57.2966717  32.1033752
  41.9429664  58.3089707  32.1919907  52.8384916  70.3396843  13.3536137
  53.3296529  70.0817559  14.1336525  53.4028427  70.9762523  12.9148376
  59.2194958   9.3126349  12.9770363  59.6013011   9.3825488  13.8520039
  59.8710962   9.7094827  12.3989714  15.0873546  22.6464651   5.0943649
  15.6261651  23.2485912   5.6075514  14.1876833  22.9249094   5.2655209
   8.3834122  72.0494340   5.8190525   7.7135799  72.2872064   5.1779449
   8.4589050  72.8190229   6.3831985  59.9074620  50.3949213  18.6791539
  58.9696521  50.2849436  18.5221529  60.0836652  49.8661089  19.4573200
  50.1262442  54.7107885   0.8093441  49.4448988  55.0493524   0.2285040
  49.8827664  53.7969206   0.9569777  52.5259987  34.0450526  12.4252975
  52.5719825  33.0935023  12.3321903  53.3867089  34.3551270  12.1437538
  69.3731626   3.7241702  13.4405363  69.0127214   3.0939488  14.0643490
  69.0861245   4.5764880  13.7682426  60.1071294  21.4612918  18.2461346
  59.4244327  20.8330159  18.4815586  59.7604730  22.3081403  18.5270489
  59.0137309   8.7794429  34.2552090  59.6998495   8.4471089  34.8340249
  58.7636274   8.0247021  33.7222481   8.4907651  47.8005695  20.3203034
   7.6847506  48.1712914  20.6796575   9.1785771  48.1024599  20.9136057
  70.2069885  36.1485291  61.9945574  70.0903100  36.7360330  61.2479258
  69.3163985  35.9395957  62.2763920  56.2369386  74.1176174  15.7747448
  55.9010808  74.2431233  14.8872364  57.1437112  73.8374303  15.6502998
  24.2050876  10.8761506   1.9574345  23.6598196  10.4698997   2.6311434
  24.8781337  11.3489871   2.4469936  73.3547988  66.6559540  58.0972958
  73.7272598  66.5300184  58.9700174  73.7409319  67.4754070  57.7880526
  75.7234013  31.5983081  35.2361465  76.3791382  31.2453341  35.8375192
  75.3735816  30.8298087  34.7852945   4.4368091  55.5365086  54.2766047
   4.0656069  55.7933950  53.4325361   4.5836401  54.5940113  54.1968060
  14.3843782  18.5716093  60.0665808  14.6008897  18.8089669  59.1649055
  15.1726663  18.7843895  60.5661392  71.2165838   5.1353264  54.0651274
  71.9372052   5.5727255  53.6116743  70.9761709   4.4098353  53.4888458
  13.7007320   4.1951996  49.7774267  12.9971778   3.5467994  49.7487688
  13.2804191   5.0161630  49.5213270  23.6084708   1.1780457   2.1202171
  22.6637944   1.0289721   2.0802391  23.8488730   0.9515648   3.0186308
  37.6590085  22.4776220  59.2401695  37.0320320  21.8539023  59.6063805
  38.5076594  22.0436764  59.3279982  59.8206872  27.8074384  48.8883686
  60.4522437  28.4637952  49.1825819  60.0965708  27.5920415  47.9974556
  38.3164477  18.7463224  42.9267454  38.8089776  19.4102609  43.4092712
  38.1113935  18.0779624  43.5805607  55.5048529  41.3447357   8.8011063
  55.8621112  41.2965367   9.6878279  54.7345320  40.7769329   8.8220537
  14.2333150  26.2589860  24.3682265  13.8217461  27.1100831  24.5181394
  13.7336159  25.6518340  24.9140263  47.2850998   4.4182925   0.9429873
  47.9997708   4.5414500   1.5677345  46.6447564   3.8847976   1.4137018
  53.6840795  36.9083171   6.8687952  53.8786566  36.9085937   5.9315813
  53.6536748  35.9816842   7.1068275  40.4984458   3.9520936  22.0811928
  40.7026871   4.8273282  21.7518318  41.0889884   3.8322120  22.8249157
  24.9611163  60.3356645  11.2017191  25.3836904  61.1938403  11.1670959
  24.7425709  60.2134059  12.1255816  67.0474188  66.2068627   3.6308992
  67.8256933  66.1615274   4.1863001  67.0085804  67.1201966   3.3470905
  16.7651474  15.9136772  46.1192703  17.6834381  16.1837173  46.1263800
  16.7219937  15.1948261  46.7498446  48.6928328   7.0295005  16.9102371
  47.9092522   6.5964608  17.2489250  49.3827130   6.3703685  16.9866550
  78.3360418   2.9160886   1.4795197  77.6341279   2.2654586   1.4946783
  78.6900290   2.8658824   0.5916012   3.0988568  71.0600710  54.5446110
   3.2189861  70.8269262  53.6240435   3.0768588  70.2203083  55.0034618
  25.2836823   4.5956278  62.8334093  25.5956364   4.9787223  63.6532593
  24.5985079   3.9830089  63.1007385  79.6808718  25.6847596  65.6006575
  79.3226662  26.4660478  66.0219765  78.9165695  25.1363683  65.4236269
  66.9525605  64.9742699  63.9710712  67.7046913  65.4769182  63.6582232
  66.6281360  64.5197439  63.1936502  71.2063330  21.1663914  41.8213224
  71.9972235  20.7034922  42.0978165  71.3611847  22.0767498  42.0733118
  73.7290074  73.8980847  29.1606069  74.5996978  73.5184353  29.2789054
  73.6105396  74.4672202  29.9210548  60.3573004  65.7460759  23.1071556
  61.0598294  65.3245185  22.6122082  60.7478921  65.9405539  23.9591206
  78.3937946   3.1803334  53.4688663  78.3708033   2.2332922  53.3316946
  79.3017295   3.4260777  53.2913971  24.1532612  27.0061660  47.5525951
  24.6144795  27.7601552  47.1851635  24.8472500  26.3844633  47.7719116
  68.5793831  63.3967166  45.1548910  68.3156850  62.4985485  45.3548622
  68.4239890  63.4882968  44.2148399  62.8585889  70.8497947  39.6023154
  61.9092401  70.7656371  39.6911192  62.9776897  71.4947658  38.9051366
  41.6750669  36.6782451  20.4832125  40.9620190  37.2566319  20.7538819
  41.2932587  36.1331058  19.7952592   1.5757485  55.8914328  58.6397839
   2.5193012  55.9654379  58.4967375   1.2774715  56.7951488  58.7425423
  24.0522186  50.1379225  27.8104866  24.2278595  49.1970573  27.7981079
  23.1339044  50.2135728  27.5512398  60.6416845  27.5924182  32.1289182
  60.0460005  26.8451715  32.1838212  61.0489035  27.6381636  32.9939699
  67.8259983  75.8589136  35.3916073  66.8872597  75.6942185  35.3028488
  68.2384159  75.2033558  34.8291230  47.0562696   7.2583604  49.0026617
  47.9811335   7.0943701  49.1869354  47.0010757   7.2713816  48.0471420
  55.3383751  18.1606345  29.2641247  54.6040067  18.2689195  29.8684586
  55.7793025  19.0102248  29.2683495  18.6224198  25.1418471  44.4018602
  18.0684805  25.2830982  43.6341143  18.8689065  24.2182326  44.3527031
  26.6053295   9.3671668  62.8387642  25.8024192   9.7684014  62.5062370
  26.6780758   9.6867055  63.7381172  16.7653549  10.1849484  54.7405624
  16.8010831  10.7867646  55.4840517  16.2966144   9.4198829  55.0740147
  61.3252181   7.0327896  58.4057236  60.9776562   6.2204385  58.0375957
  61.0442823   7.7127147  57.7933407  41.5448515  66.2209246  38.5980499
  42.2106675  66.8231199  38.2659615  42.0293264  65.4245994  38.8157166
   9.4092774  24.6004868  54.8700094   9.5126677  25.4370761  54.4165087
  10.2243149  24.1303730  54.6941185  74.7303212   3.7363052  65.7527876
  74.8729962   2.8455278  65.4328060  75.2386183   4.2885011  65.1586962
  27.3440623  73.1082153  31.9275761  27.0897317  73.9801788  32.2296143
  27.9210472  73.2719851  31.1815882  72.5231904   6.5115476  56.1400938
  71.5988177   6.5447980  56.3863897  72.5155729   6.2750959  55.2125883
  10.5139434  24.0892601  30.8262873  11.0502887  23.3042026  30.7156014
   9.8396683  24.0158582  30.1508641  21.3117504  17.4005485  65.3626728
  20.4432034  17.7622986  65.5387163  21.7013407  18.0081475  64.7339630
  43.5046868  59.4688771  14.3229855  43.5588376  58.6335657  13.8587082
  43.4930388  60.1282118  13.6291683  14.7563338  26.6623425  41.6075563
  15.1348662  27.4690580  41.2580538  13.9326382  26.9386959  42.0092869
   9.4495801  64.6128175  12.2008837  10.3655867  64.3525932  12.2980869
   9.2649404  64.4957969  11.2689817  67.2445043  14.0825562   2.1514595
  67.2510608  14.0856128   3.1086290  66.3182696  14.1446738   1.9180859
  71.6252031  71.6594141  29.1990495  72.0166065  72.5325026  29.1716480
  70.6913569  71.8108993  29.0533948  15.8000221  18.6737399   7.6663673
  15.3690471  18.9779763   6.8676603  15.1285495  18.1665091   8.1225145
  68.1293257  32.8595214  27.0037926  68.7886413  33.1706338  27.6240719
  68.1504818  33.4983497  26.2912834  11.6099954  73.5785484  62.2657871
  11.3980794  74.3652630  61.7633867  11.7611170  72.9046154  61.6030598
  33.6635049  19.5964818   2.9683817  34.2253645  19.4286017   2.2118366
  32.8198036  19.8438363   2.5899399  66.5335361  41.5502072  10.1869762
  66.2657873  42.0522956   9.4172705  66.0044495  40.7534225  10.1491297
  35.3480152  63.6217687  29.2174995  35.8134870  62.7934168  29.3332565
  35.9828691  64.1952894  28.7882317  81.5745181  58.6335945  59.0573788
  80.9313042  58.6949301  58.3511591  81.0499049  58.6080980  59.8576069
  25.7006431  12.9302502  62.4179745  26.2620616  13.6741567  62.1996975
  25.8828330  12.7554834  63.3412790   0.6181922   3.9267259  10.4711378
  -0.1955948   3.4247642  10.5160893   1.2930002   3.2730393  10.2879465
  21.9010282  55.5203056  52.7488995  22.5301075  55.9425640  53.3338642
  22.3010397  54.6773386  52.5352955  21.3507833  37.1488147  16.3671196
  20.8934965  36.6401153  15.6975353  21.0807933  36.7520623  17.1953285
  27.5475718  36.0176011  13.1522215  27.0967453  36.6536517  13.7075794
  27.6089151  36.4460755  12.2984779  48.3466784  72.3268602  16.4403523
  49.0769617  72.9340575  16.5596378  48.1246249  72.0421956  17.3268497
  78.6775438  71.0115836  24.8989952  79.1687290  70.9742282  25.7197083
  78.9042656  70.1988695  24.4469727  67.9285296  10.9073739  27.3323715
  68.5900493  10.9222798  28.0240334  68.4020575  10.6129031  26.5543640
  64.4795291  71.4848564   7.0238245  64.2651097  70.9699700   7.8017366
  64.4852010  70.8480642   6.3091934  72.2289173  61.4384983   3.2851112
  71.4768306  62.0000122   3.4730089  71.9391767  60.8847354   2.5601137
  51.0913511  19.5602612   4.7393072  50.3607272  19.9206262   5.2418602
  50.8712881  18.6355882   4.6262348  34.8676060  52.0421491   7.3898542
  34.1132049  52.4997959   7.0188177  35.5877016  52.2437737   6.7923248
  29.5997389  37.6901154  24.0837372  29.0978297  38.4180121  24.4504631
  29.1308006  36.9068341  24.3714798  44.2204754  64.6973107  18.2954395
  44.7964064  64.9499295  19.0170467  44.7072331  64.0195105  17.8265179
  57.0066682  71.3116429  18.3732880  57.6346795  71.8404720  18.8654030
  56.5184466  70.8339093  19.0438450  38.3588155  36.2446647  11.5197552
  38.7665005  36.1808543  10.6560696  38.8938661  36.8836503  11.9905460
  79.8951014  11.3229041  15.3659809  79.4344385  10.8786540  16.0777844
  79.6831711  10.8095794  14.5863617  57.1081342   5.0988631  10.1431263
  57.5819405   4.3205552  10.4363335  56.6178781   5.3852849  10.9137381
  36.8955851  57.1146393  63.3716440  37.2760677  56.8980265  64.2228460
  37.1325517  56.3775539  62.8088093   9.1031518  49.3430333  35.7960117
   8.7099399  48.9130025  35.0366009   8.4334054  49.2852311  36.4774216
  17.9647183  49.8424053  52.8956079  17.9124272  49.4981003  52.0040083
  17.3296130  49.3243361  53.3900547  47.6228468  52.4211011  20.5594337
  47.6912681  52.4404786  21.5139950  46.7054979  52.6279805  20.3808201
  32.8767333  63.8959334   0.9966171  32.4979494  63.0825327   1.3299835
  32.2918312  64.5819876   1.3182533   7.8217949  34.1124110  22.2785557
   7.0575633  33.5470633  22.3906315   7.4607648  34.9980073  22.2383869
  68.6607357  14.3535333  19.3334473  67.9712697  14.8219829  19.8040092
  69.4048436  14.3544917  19.9355591  18.4880129  69.0571854  14.8046387
  17.9646979  68.8220833  15.5708588  18.7341450  69.9701188  14.9536503
  75.2090224  11.9828038  41.1809338  75.8594974  11.8753200  41.8748844
  75.3452571  12.8746037  40.8609951  75.7814781  55.4783557  17.1591366
  75.4544489  56.1705349  17.7337444  76.6352598  55.7952187  16.8643749
  66.0374614  26.6235929  13.5389364  65.8227571  26.6702991  12.6072968
  65.3059014  26.1456923  13.9296616  75.6839363   0.3195007  36.8850493
  74.8033659   0.6067188  36.6435313  75.7255022   0.4458101  37.8329682
  72.6858350  24.1411500   0.5722273  73.4170707  24.5439868   0.1039875
  71.9307764  24.6867185   0.3520668  53.0151693  52.9308400  18.7290562
  52.6924221  53.8167689  18.5641468  52.4603860  52.3691926  18.1877602
   0.2503123  15.7160048   7.1391762  -0.7066307  15.7331233   7.1531284
   0.4690280  14.8721700   6.7437780  53.7635444   3.4735589   5.6726826
  54.2118605   2.6330810   5.5786598  53.3587559   3.4334855   6.5391529
  22.2659435   0.0408249  23.7511910  22.9790725  -0.2620001  24.3133057
  22.3256960   0.9956627  23.7819279  62.7376143  73.4724043   6.1723125
  63.0424229  73.4483693   5.2652586  63.3640424  72.9286621   6.6499746
  56.9625775  69.6079753   8.0433596  56.4223806  69.1262338   8.6697329
  57.3743025  70.2981971   8.5632694   5.7104617  56.6234016  61.8381548
   4.8654920  57.0730877  61.8318033   5.4954833  55.7124615  62.0386648
  57.7078644  71.9479201   0.9145344  57.3069064  72.7162907   1.3208235
  56.9891540  71.3221691   0.8243883  72.9208453  30.3857093  26.4320076
  73.6494585  29.8882108  26.0607327  72.5244268  30.8267169  25.6806076
  56.6789149  24.5671849  32.1454037  55.8412947  24.1198688  32.0248497
  57.1309062  24.0530353  32.8144253  49.8306314  66.9396374   3.3344543
  50.5640427  67.5130866   3.5569323  49.2277733  67.5003097   2.8461540
  42.6095418   0.9310872  42.9625130  43.4977273   0.7427032  43.2656193
  42.1386902   1.1982448  43.7519169  66.9311245   1.3544803  26.7945755
  67.6654132   1.3745050  27.4082935  66.1672171   1.5742998  27.3278320
  67.6216169  42.4126439  19.1460979  68.5586139  42.2256951  19.0884865
  67.3227020  41.9077401  19.9023808  21.1389136  37.1637011  55.5642128
  20.8665490  37.3073030  54.6578884  20.3527260  36.8369269  56.0016584
  64.8136946   4.8257689   3.8380182  64.3238481   4.6863894   4.6484840
  64.3681033   4.2781501   3.1916464  63.7633101  56.4125822  10.9602297
  63.2623831  57.1775446  10.6771458  63.4878556  55.7131920  10.3675974
  75.2371844   8.4870868  38.5566319  74.5152338   8.6040263  39.1741646
  75.3671988   9.3544154  38.1731308   3.1682601   6.2265401   6.1700953
   3.7250819   6.6138892   6.8454779   2.3478522   6.7164712   6.2260426
  65.4272326   3.2301669   7.6136196  66.0537644   3.8539176   7.2467173
  65.9247561   2.7538733   8.2783402  13.5334921  40.0344801  49.6501637
  12.6605248  40.3285837  49.9102831  14.0537000  40.0900936  50.4517365
  77.8544791   6.5172629  11.5901936  78.1231387   6.6085439  10.6760109
  78.6405118   6.7301803  12.0932329  66.7172188  18.0859160  65.3970242
  66.7165559  19.0418983  65.4452801  66.3673216  17.8032064  66.2419415
  64.1692760  10.6901031   2.2568071  64.7243865  10.1528077   1.6916550
  64.4430848  10.4645495   3.1458462  74.5324715   3.5972934  37.4386776
  74.3840249   2.6519780  37.4627102  73.9801844   3.9083056  36.7214001
  38.4403785  12.6453071   4.1967619  38.1048544  12.4757485   3.3164728
  39.3583437  12.8806930   4.0619743  62.3117055  16.3985400   0.5465544
  61.8075176  15.7830577   1.0787237  62.2802712  17.2203116   1.0363853
  47.1400881  50.9210682  65.0582600  47.2867060  50.6554604  64.1504145
  48.0107117  50.9060717  65.4557848  45.0235979  10.4606254  31.0467124
  45.7365731  10.8703143  31.5366602  45.2832894   9.5426471  30.9684849
   6.7749524  16.5572250  64.7901869   6.2705606  16.4027083  63.9914703
   6.8400848  15.6959414  65.2027130  13.6067796  61.5452719  62.8451538
  12.9459143  60.8544493  62.7977085  13.3389401  62.0821428  63.5909843
  24.8765588  54.1214037  64.3075180  25.2312469  54.7120285  63.6429930
  24.2924547  54.6713972  64.8295879  54.0560102  62.8592062  64.0630865
  53.9729118  63.6122990  63.4781218  53.6805964  62.1300077  63.5695601
  31.5408845  68.1406710  12.1579254  32.2332493  67.8177879  12.7346504
  30.8938734  68.5226224  12.7509869  42.4301330  67.2888348   9.6397532
  42.7267186  67.0995448  10.5299461  42.8088645  66.5893505   9.1072929
  44.2941872  71.6293738  17.3875320  44.2976455  70.7564161  17.7801693
  43.3933560  71.9355629  17.4923218  25.9174528  38.4957318   4.1012276
  26.6491975  37.9892211   3.7487686  25.1726474  37.8953986   4.0681160
  17.9659853  38.5986424   1.2376774  18.6198662  38.0409340   0.8162106
  17.1810094  38.4959969   0.6996191  45.2203669  26.7032342   2.6676786
  44.8311718  27.0960097   1.8863428  46.0035207  26.2563949   2.3463762
  28.0877646   9.2099624   5.6436098  28.0482324   8.9872889   4.7135103
  28.8608440   9.7687154   5.7234705  46.1490063  62.9013751  16.9486034
  45.9342353  61.9926713  17.1592320  46.1210302  62.9386828  15.9925449
  56.4674568  63.9141226  57.6298285  57.3229980  64.2813301  57.8521776
  55.8390045  64.4915199  58.0632877  77.9690774  22.3453288  18.6813248
  77.2678932  22.9927020  18.7553204  78.7727769  22.8646045  18.6558426
   2.0735760  62.7621365  57.2212219   1.4854479  62.5143766  56.5078115
   2.0348781  62.0249128  57.8305101  43.3566618  32.9198790  49.7119522
  43.4133244  32.1898055  50.3284025  42.4223518  33.1228876  49.6663523
  14.8961723  51.3524151  45.3226042  14.2525125  50.6485796  45.4035234
  15.7304001  50.9006214  45.1954126  58.9951997  27.6251798  43.9649666
  58.2311275  27.2876267  44.4323814  59.5755037  27.9464440  44.6550835
  33.0477848  21.8253474  19.0854252  32.3454895  21.1758428  19.0514648
  33.3057775  21.9471459  18.1717289  22.8291559  74.5027971  43.2176208
  22.6423144  75.3016806  42.7245617  22.8625941  73.8139582  42.5538349
  63.4338037  71.0731147  10.2949226  62.5055925  71.3022373  10.2484930
  63.4541527  70.1264856  10.1545227  57.6242202  20.3316617  23.1097746
  57.0574516  20.4888654  23.8649535  58.4547776  20.0446415  23.4892797
  68.1807848  22.0960050   5.5886591  68.2312854  21.7814593   4.6860254
  68.8455458  22.7827601   5.6405247  38.1269459  69.7847436  23.8505734
  38.2030837  70.0894568  22.9463661  38.9481548  70.0520561  24.2633522
  63.2124861  20.2662854  22.2313393  62.3742356  20.1309495  21.7894638
  63.8640674  19.9256949  21.6184128   5.2229259  74.8210213  17.3067940
   6.1360643  75.0800750  17.1831120   4.7711895  75.6348870  17.5299347
  28.0185270  69.0762758  65.1572943  27.9430676  69.6920824  65.8862114
  27.5916529  68.2793617  65.4718399  74.7033437  15.9533935  21.2014854
  74.5937975  16.4034848  22.0391357  75.1371201  15.1303964  21.4267433
  31.3167357  68.7945175  66.2782574  30.7567191  69.5197582  66.5550852
  32.1361136  69.2123079  66.0131168  69.3749316   8.0272822   8.0073822
  69.5805963   8.0468373   7.0727432  69.9257108   8.7112908   8.3881796
  23.4013118  14.1498094   0.6309450  23.6781683  14.9015241   1.1548794
  23.0679264  14.5330672  -0.1803505  69.6264259   2.1687944  65.4424620
  69.2844001   1.5357215  66.0737085  70.4430286   1.7787750  65.1305819
  34.1463737  67.1428011   2.9744995  33.2595424  67.0092080   2.6399649
  34.6083830  67.5812385   2.2599686   5.5519809  12.8811030  17.4403847
   5.4229607  13.4731059  18.1814087   6.2072839  12.2539430  17.7461327
  59.6301486  18.7867265  26.9829453  60.3396686  19.3867116  27.2127903
  58.8497894  19.1764121  27.3771751  19.2856777  16.3831258  47.3553276
  19.0350842  15.8495867  48.1094980  20.1052117  16.8012571  47.6194572
  54.2456643  58.3669732   1.1068142  54.3179123  57.4361263   1.3178480
  53.3367244  58.5885928   1.3091600  31.4229774  54.9106979  65.5904675
  30.5730462  54.4941854  65.7331753  31.9976258  54.1952324  65.3182173
  77.2127994  15.0785832   9.9565971  76.9754561  14.1964631  10.2425468
  76.5870293  15.2814488   9.2612684  62.4257390  43.6565367  14.8143185
  61.7550532  43.4585587  14.1607082  62.8257267  44.4704626  14.5081127
  64.4039671  62.0316503  21.7699421  64.0099875  61.1595295  21.7904079
  65.1463191  61.9732878  22.3713863  44.2755508  34.8442936  62.5093317
  44.7797108  34.2814994  61.9216967  44.4273520  34.4779778  63.3805418
  55.8742658  72.5579641  55.0007046  55.2930276  71.7976115  54.9846161
  55.6752745  73.0287192  54.1913689  73.3854806  71.1701202  63.8763428
  73.9243001  71.3971567  64.6342087  72.4869001  71.1950684  64.2052221
  42.4324516  59.0427826   4.2698038  41.8392090  58.2916270   4.2775286
  42.0282642  59.6733377   4.8658455  65.3501387  19.6001916  13.0562485
  64.7792085  19.6895270  13.8193310  64.9646147  20.1800637  12.3994768
  66.1416453  45.8659363  58.4491873  67.0782608  46.0506344  58.5189819
  65.7714742  46.6529274  58.0493689  15.2752809  53.4127066   3.1294144
  14.8349289  54.2296527   3.3637751  15.0217156  53.2563541   2.2197521
  76.9503077  14.7645383  13.5234535  77.7651366  15.2252059  13.7236298
  77.2318896  13.9053683  13.2091749  13.4352267  14.5232570  57.6327848
  12.6122475  14.2578971  57.2222710  13.8645065  15.0716877  56.9761467
  73.7976114  47.5207005  39.2376125  74.1286031  46.8471781  38.6434353
  73.5830251  48.2588301  38.6672199  48.1287146  16.0793018  62.2857428
  47.5304747  16.6415346  61.7935705  48.3111620  15.3485525  61.6950226
  30.2604618  20.2468209  18.5070503  30.2804269  20.3581099  19.4575584
  29.5280208  20.7908301  18.2175434  67.6033397  20.5986075  20.1609695
  67.8562613  21.1995273  19.4601429  67.9177745  21.0185151  20.9616173
  10.5721486  54.3521738  65.7327080   9.6569622  54.5767832  65.9006929
  11.0710979  55.0615597  66.1377478  74.0203124  44.6544838  58.0593443
  73.2782370  44.3380404  58.5745335  74.7811508  44.2172575  58.4416962
  42.5047151  74.0988562  29.0269650  42.7057425  73.2878444  29.4939602
  41.7637889  74.4725845  29.5040215  14.6756017  45.7342625  48.2544470
  15.5396938  45.9559965  48.6014509  14.0762722  45.8954525  48.9831829
   7.6259518  37.7101779  60.9415579   7.1332413  38.1410718  60.2431345
   8.4206790  37.3923206  60.5130672  59.1564085  44.1364388   6.2854469
  58.7152534  43.3215146   6.0456455  58.7123819  44.8097997   5.7700241
  77.2519976  19.0255582  21.1564136  77.8281149  18.9864504  20.3930068
  77.8267226  18.8430727  21.8998003  73.9547237   8.1495862   8.9698399
  74.1675421   7.5466685   9.6821821  74.6239312   8.8317161   9.0254152
  73.8474091  14.8940043  18.1970966  73.2937213  14.7868638  17.4236763
  73.9461251  15.8413987  18.2916153  72.0351626  69.5428639  59.3376303
  71.4327647  70.2121656  59.0129995  72.8776517  69.9919819  59.4064569
  52.2047774  66.8699620   9.1976297  51.8296496  67.2499511   9.9920595
  52.5157897  66.0063265   9.4689978  10.2004421  51.0046959  60.1571560
  10.9561825  50.6534481  60.6280184   9.5912129  50.2686930  60.0990534
  16.2810099  25.9675097  45.9446049  16.3981307  26.4042830  46.7882538
  17.1528602  25.9719515  45.5495214  72.9968158  75.9448526  30.9910858
  72.8015701  76.1733124  30.0822819  73.3444301  76.7515204  31.3714588
  44.6423618  66.4273522  35.4170979  45.4581980  65.9294269  35.3649986
  44.9068622  67.3361156  35.2741993  70.9843198  56.0481820   3.5351885
  70.0327531  56.1455879   3.4995878  71.2078563  56.2130532   4.4512070
  39.4336738  38.0100970  21.2588585  38.6762132  37.5956111  20.8457268
  39.1010465  38.3385186  22.0941628  33.6507487  63.3296251  62.0837021
  33.6655164  62.9157829  61.2207127  32.8185797  63.8019657  62.1086073
  30.0032282  64.4822550  55.6178808  29.6157146  65.1679564  56.1618280
  30.2527189  64.9301243  54.8095512  37.2405171  66.0435343  65.2559614
  37.0324111  65.5688238  64.4512415  37.3745942  65.3581047  65.9105206
  63.3312078  46.8128877   7.6087177  63.4006580  47.4184899   6.8707121
  62.8303834  46.0730462   7.2651327  13.0854311  51.3280492  27.8844917
  12.3889770  51.9765477  27.7813995  12.7570262  50.5501561  27.4336517
  59.3456427  63.2787154  25.4791058  59.5092050  63.5130379  24.5655621
  59.6398632  64.0406797  25.9781826  31.5574207  16.8609147  15.1389301
  30.8980693  16.9574504  14.4517792  31.0727872  16.9848971  15.9550083
   4.0297493  46.9223976  53.1532049   3.6910307  47.7092552  53.5802364
   3.8528213  47.0599127  52.2226048  20.7308269  52.9417276  60.2035046
  20.1976538  52.1706963  60.3970766  20.3025365  53.3457661  59.4488144
   5.7510700  24.7521405  18.8724793   5.6521501  24.5109467  17.9514683
   6.3565507  25.4934411  18.8622463   4.2764630  26.2905936  15.0887764
   4.6555819  25.6222491  15.6595791   3.8553586  25.7949405  14.3864716
  42.1158210   2.8877694  64.1169882  42.7645151   2.5162179  63.5191774
  42.1725945   3.8326556  63.9748335  47.5899734   8.0857615   5.4174030
  48.4823706   7.7662711   5.2840364  47.1854379   8.0349069   4.5513762
  50.4564420  41.7798621   1.0289515  50.5731360  42.2355924   0.1953304
  50.7066719  42.4241046   1.6911972  75.0419438  67.9141426  55.6256056
  75.6595337  67.6281929  54.9525166  74.2743814  68.2100821  55.1362181
  69.2395743  38.3990102  18.6883820  68.5088785  38.6819844  18.1386078
  68.8840969  37.6765685  19.2060078  57.3685074  76.3247347  45.3772831
  57.6118755  75.4458189  45.6679964  57.6070070  76.3450718  44.4504976
  32.1820201  36.1968760  11.4212740  31.7281475  36.1195092  10.5820835
  33.1080427  36.0908132  11.2034119  29.4695473  64.2605162  61.5212822
  30.1065874  64.5774889  62.1615505  29.8984361  64.3853235  60.6746960
   0.5667915  38.5003667  15.3461254   0.8699860  37.7590232  14.8219860
  -0.3142939  38.6808925  15.0185097  79.7822769  41.6746192   4.6814287
  79.2236813  41.8418126   5.4405392  80.4211148  41.0324960   4.9909342
  19.9629249   9.8059182  38.8845051  20.7178249   9.6919637  39.4618881
  19.3927135   9.0641170  39.0865505  23.9227094  40.3097205   3.0401886
  23.4558000  40.8716254   3.6586512  24.4610395  39.7420220   3.5916889
  48.6910335  68.8304303  18.6234653  49.3692867  69.2776010  19.1296661
  48.6877886  69.2795394  17.7781761  51.9552489  11.3578849   1.4136208
  52.4534619  12.0833116   1.7901505  51.0630288  11.6954856   1.3348759
  33.1399335  29.2656760  10.6367481  33.1667461  28.5279183  11.2460316
  32.3808231  29.7782998  10.9145964  20.3758754  29.3040185   2.0903147
  21.2822332  29.0012507   2.1458185  19.8523702  28.5359960   2.3190535
  11.2643399  25.3330617  16.1537731  10.7497468  24.5424418  15.9914578
  11.7763366  25.4539685  15.3541077  27.8373851  22.8745942  13.2971609
  28.0871954  23.4755187  13.9990986  27.3993625  22.1512656  13.7456787
   1.1946072   3.9915042  48.5450161   1.5049042   3.6248879  49.3729866
   0.3690304   3.5373692  48.3764351  10.7857788  35.2769470  38.4049344
  11.3456595  35.0535560  37.6613879   9.9937272  34.7557974  38.2734370
  60.2568950  40.6543403  15.9793366  59.4462719  41.1615186  15.9358585
  60.2542724  40.1294999  15.1788605  27.9950929  57.5554705  64.0133524
  28.4900045  57.8478241  63.2479620  27.4709630  56.8211603  63.6934996
  25.2541995  73.9323139  64.8503971  25.5088425  73.0719614  65.1838446
  25.8482432  74.0902185  64.1166306  33.9144744  14.2156653   5.7637966
  33.0357732  14.5891957   5.8315743  33.7920560  13.2823758   5.9376133
  26.4673734  53.4990788  60.6585979  27.3990250  53.4521294  60.8731985
  26.1457729  54.2539072  61.1515903  71.9389005  48.3304315   0.1869667
  71.1571260  48.8738732   0.2856482  71.5997859  47.4512582   0.0188053
  34.9099302  73.0223036  52.8498077  34.7887897  72.7715302  51.9340181
  35.5508757  72.3963070  53.1867838  20.5041218  75.0213242  65.3440332
  20.3216910  75.1021767  66.2802029  21.0139513  74.2147589  65.2681494
  34.4703474   8.8748174  14.6846760  34.6527853   7.9453950  14.5463837
  35.3231182   9.2584376  14.8892487  46.7208958  76.0590649  56.4882994
  46.4929724  76.9033909  56.0992050  45.9543276  75.5079365  56.3306284
  25.4229393  28.8102155  10.4281033  25.4194107  29.7257571  10.7073916
  24.8575630  28.3650689  11.0593164  52.6725500  13.9649205   2.3482502
  52.6819839  14.9156527   2.2375668  52.5479372  13.8344579   3.2882917
  31.1758391  55.7368944  14.4909752  30.9077472  55.3050635  13.6798752
  30.3822217  55.7559417  15.0258053  77.2589167  41.6974835  11.9786776
  76.4758356  41.9741921  11.5028084  77.9176172  42.3565965  11.7597616
  21.3838853   7.4275212  15.6541336  20.8986559   6.6370444  15.4176415
  20.8567466   8.1458049  15.3042400  28.6215758  61.7758465  63.4862518
  28.7232828  62.6069546  63.9500856  29.1760349  61.1627769  63.9689064
  34.7916545  23.6138539  25.1703728  35.5856075  23.0819707  25.2249039
  34.0846052  23.0137687  25.4074562   4.8377242  35.1695256   0.6741655
   4.7337117  36.0004144   0.2104414   5.7681884  34.9620299   0.5880583
  33.6858835  21.3834624  30.4394615  33.0297937  21.8257384  30.9781349
  33.4837617  20.4524426  30.5320919   7.2536983  48.5958199  16.9437874
   7.0579090  48.6266522  16.0073269   8.0898394  48.1331067  16.9985474
  45.3519535  58.9010096  57.8687239  45.8065939  59.6520853  58.2500553
  44.8677921  58.5175514  58.6000109   6.5341081  44.3860726   6.6657866
   7.0391311  44.2784982   5.8598030   6.9206442  43.7582307   7.2762287
  12.9625835  18.6201577   9.7415722  12.6082053  17.8536801   9.2908419
  13.2535162  18.2858424  10.5899942  58.8485448   1.4050300  42.4116755
  59.7523801   1.2113197  42.6602554  58.4430353   1.7287070  43.2160568
  27.1712661  40.9718180  65.3620958  27.7512121  41.4915800  64.8055506
  27.5614166  40.0977421  65.3642797  78.3397873  47.0415120   9.2109478
  77.9544075  46.6991334  10.0174797  78.3025487  46.3077455   8.5974110
  36.6931057   2.5377941  42.1117592  35.8280063   2.2932023  41.7831087
  36.9261599   3.3208847  41.6130733   8.0953848  42.1643257  64.8953390
   7.3732841  41.9531870  65.4871368   8.4181106  41.3135672  64.5982027
   7.4629345  64.6151738  19.0923298   7.4565830  63.9796453  19.8080814
   8.0725493  65.2945046  19.3806160  30.1244583  29.2842584   0.9963835
  30.1503028  29.0539651   0.0676573  30.9915056  29.0479522   1.3259590
  75.9198817  45.3319745   7.0326126  75.1049217  45.2200513   7.5220478
  75.9153136  46.2515264   6.7668665  30.7341852  52.8204255  35.0262630
  30.7658424  51.9370370  35.3934849  31.6474046  53.1068997  35.0123585
  45.6722488   1.3899832   5.4724014  44.9567689   0.7545452   5.4955662
  45.2717342   2.2120576   5.7552612  26.3486232  50.2081399  20.8509434
  26.2296810  49.4589238  20.2671993  27.0700397  49.9519353  21.4255226
  74.4546564  27.5774102  16.9996727  73.8160082  28.0252604  17.5544632
  75.2927526  27.9809575  17.2254551   5.4217780  60.4202890  62.7082205
   6.3307470  60.2509975  62.4605370   5.3675479  60.1446152  63.6232567
  41.9251919  57.1907520  56.5798855  41.1885214  56.9468927  56.0194588
  42.1115351  56.4010191  57.0876551  19.0115490  47.8808694  34.6568954
  19.0978231  48.6762910  34.1314495  19.5344581  47.2282701  34.1911591
  57.0347730  70.3145716  12.8600824  57.5216500  69.5335195  12.5971354
  57.3719803  70.5251596  13.7308109   2.4062934  12.2287612  22.1283806
   2.2192397  11.4403920  21.6187561   2.0003404  12.9380374  21.6300285
  38.4766960  62.0917177  64.4920158  38.1039143  62.4886703  63.7048101
  37.7311134  61.9857073  65.0828648   6.1486282  44.3245225  12.1432198
   6.6033496  44.5925622  12.9417265   6.0080638  45.1401525  11.6623629
  16.5054931  28.8952975   0.9643114  16.8780269  28.8481717   0.0838411
  15.5926408  28.6298423   0.8526648  10.7098283  43.6813741  25.0086487
  10.1415147  42.9456525  25.2366341  11.5588774  43.2798676  24.8238647
   3.4139599  22.5745015  19.2055595   3.4706940  22.3933701  18.2673729
   3.7277116  23.4743695  19.2951668  47.5968885  26.4526033  59.7397614
  48.3642578  26.0378170  60.1338816  46.8544197  25.9494400  60.0741243
  15.5489387  24.2304807  22.9446114  14.8308458  24.7111230  23.3563889
  15.4188766  24.3635707  22.0056808  70.4103335  43.3486276  26.7759693
  69.4567474  43.3793550  26.6987598  70.5794068  42.6126866  27.3642147
  77.1484844  13.1940849  63.4643173  76.2985937  13.1705577  63.9040470
  77.6467554  12.4834354  63.8679695  40.6869459  58.2981682  53.7985468
  41.1694813  57.8049850  53.1350994  40.1208496  57.6484966  54.2153168
   6.5231957  20.1724582  21.3729084   5.7203450  19.9433379  20.9047592
   6.6623535  21.0977464  21.1711300  28.4194698  61.7046361   8.8454664
  27.7842798  62.4195294   8.8043058  29.1815462  62.0336061   8.3687580
  67.4253408  75.1660941  16.7715157  67.4748222  75.1763127  15.8156479
  67.2819749  76.0809777  17.0137203  31.9569816  32.2506194  30.1733101
  32.2153892  31.5270762  30.7442272  32.4582424  33.0000787  30.4946793
  16.0007761   8.0827052  56.4141417  15.2831982   8.3394820  56.9932652
  16.1121414   7.1451957  56.5719318  29.0521087  36.8616252  18.1747997
  29.1169872  36.3563209  17.3644436  28.6826887  37.7021317  17.9040325
  71.6141017  13.7506824   2.6937616  72.4357386  13.6607509   3.1765211
  71.8415316  13.5296779   1.7906225   8.6224927  13.6008506   1.4817560
   8.3271160  13.5980945   0.5712736   7.9166784  14.0346341   1.9612206
  49.8247480  62.6794624  63.4210825  50.7088518  63.0428123  63.3703613
  49.5473719  62.8490829  64.3213701  76.8047261  66.3768578  62.8293324
  77.2590756  67.0584965  62.3341894  76.1533892  66.8504858  63.3466959
  69.5770796  48.1574922  31.5673340  69.2043193  47.5589662  32.2146690
  69.7258576  47.6123052  30.7947624  64.0877314  11.5840631  19.1545189
  64.4455238  10.7016139  19.2519844  63.9382454  11.8823438  20.0516880
  60.1998951   5.8735280  24.7824276  60.2178951   6.6158586  25.3864658
  60.4500916   6.2464576  23.9371098  20.0727548  47.4675851   5.5995405
  20.0498571  48.1390195   6.2813652  19.2047681  47.5045876   5.1977146
  74.9029295  74.0634177   3.4370125  74.3586389  73.6579917   4.1119993
  74.2936556  74.2639539   2.7265108  37.2995520  64.3889236  60.8992338
  36.9434237  64.3777895  61.7876482  36.7970085  63.7220001  60.4313707
  17.1739554  61.4482641  53.8555193  16.8692648  62.1529055  53.2837868
  17.6282108  61.8976164  54.5682383  41.8596478  55.2461152  26.4626301
  42.5548919  54.9891763  25.8569515  41.0521003  55.1371675  25.9604061
  49.1649961  62.5270319  65.8988762  49.1480541  61.8957949  66.6182423
  49.8660898  63.1359673  66.1310291  37.5401153  20.0982814   1.5631617
  36.7088070  19.6934800   1.8107451  38.0465021  20.1213174   2.3751200
  25.6424546  24.6919203  47.6509666  26.2996697  24.0027308  47.7475023
  25.5009413  24.7573423  46.7065477   3.5167493   3.0792909   3.4155310
   4.1364803   3.3081632   2.7228678   2.6560797   3.2490258   3.0325544
  14.8430337  10.4401069   7.4019182  15.0125255  11.3794999   7.3309458
  15.2459659  10.0642209   6.6192377   1.9227781  62.3218827   8.4749449
   2.0154824  62.6157575   7.5687016   2.2883882  63.0360894   8.9969242
  21.1865558  12.2291141   5.4920137  21.7144718  12.4718289   6.2526835
  21.5267887  12.7723842   4.7811497  22.6438369  15.4499154   5.1193083
  23.0249252  15.4384952   5.9973038  22.6098432  16.3773732   4.8850096
  22.5428905  39.0508847  32.1047199  22.2538795  39.8253064  32.5873936
  22.4526109  38.3315806  32.7297676   9.9015894   2.8628879   9.3598831
   9.8224964   3.5648398   8.7139404  10.4536833   3.2325511  10.0489224
   0.0628394  36.5371585  47.1715307   0.8195552  37.1180749  47.2499418
   0.4399614  35.6595016  47.1104479  17.4800767  28.4717898  21.8208969
  16.6016903  28.1206326  21.6747463  17.5092687  28.6613517  22.7586830
  26.7144384  57.2100263  32.9736698  25.9751596  57.3134809  32.3745144
  26.6733446  57.9805760  33.5400665  29.9919786  43.8287740  14.7825516
  29.0878858  44.1366010  14.7185886  30.2969017  43.7911897  13.8759983
  18.7334766  42.9749398  20.5763996  19.1696968  43.4278779  19.8547447
  19.0387287  42.0700936  20.5107010  80.3955648  61.7892075  64.7467470
  81.1076975  62.3557472  65.0436115  80.7783396  60.9120274  64.7302818
  16.2244415  65.8454323  47.1322632  16.6388142  66.6544485  47.4322987
  15.3303826  66.1032581  46.9077206  50.4983155  75.2076624  59.5858467
  49.6135060  75.1091025  59.2342365  50.5175439  74.6324799  60.3507126
  41.7157640   8.4454970  22.2474182  41.6725435   7.5345902  21.9565189
  41.2442722   8.4535413  23.0804050  29.4247508  73.6872768  60.9522390
  29.9103212  73.4880924  61.7527246  28.5631466  73.9699125  61.2588120
  17.0408104  11.5198810  52.1664047  17.5854347  12.2850997  52.3509502
  16.5414045  11.3816268  52.9712105  16.4293826  73.3401871  36.8752408
  16.6468871  73.5610151  37.7808690  15.5217171  73.6255074  36.7705131
  18.0278673  21.5303760  29.2804516  17.0774927  21.4241176  29.3220127
  18.1680717  22.1558290  28.5695446  37.9906549   5.7375340  10.3299368
  37.8110733   4.9250846  10.8031261  37.6091709   6.4232879  10.8780659
   8.6614456  44.4761567  50.7730186   9.6077981  44.5919900  50.8580673
   8.3134236  44.7081475  51.6340054  66.6580077   1.8009953   9.9958647
  66.9529315   2.1587186  10.8332909  66.3946315   0.9032898  10.1983250
  73.7350504  69.9154184   0.2412975  72.8049747  69.7344373   0.1055038
  73.8118974  70.8640263   0.1389730  76.2993964  28.1688981  29.7601879
  77.2530802  28.1160836  29.6975124  75.9814151  27.5794845  29.0762890
  12.7207198   4.9073415  12.8255928  13.4104909   4.4910007  13.3424175
  12.7017774   5.8124690  13.1364239  34.3367147  65.1417112  59.4156313
  34.0047431  66.0082054  59.6506119  34.6317768  65.2357864  58.5099173
  38.5067177  69.8185682  62.1118736  39.0261865  70.1931715  61.4004993
  38.2316780  68.9628649  61.7827082  39.5362977  63.6535070   0.3661478
  39.6337346  63.0823586  -0.3957712  40.2858857  64.2468403   0.3181351
  26.0262003  26.6267257  34.5345581  26.2934007  25.7076411  34.5235050
  26.1187543  26.9140058  33.6261929  78.7953846   0.4783494  56.0423565
  78.7269298  -0.3935807  56.4313173  78.7118522   0.3278072  55.1007652
  25.3264560  46.4825540  31.0542572  25.7292451  45.6730466  30.7401169
  25.8957471  47.1773629  30.7235516   6.0852790  69.9816895  64.1791487
   6.2027049  69.5627117  65.0317287   6.8666393  69.7379637  63.6828566
  20.8282127  32.3278098  24.0472878  20.5764808  32.5738816  23.1571758
  21.7651405  32.1409516  23.9882267   2.9358067  23.3479028   2.8319967
   3.3701887  23.7994151   3.5556543   3.6326351  22.8444819   2.4110115
  69.7000297   6.5017562  28.8403500  69.3567272   6.0038095  28.0984390
  68.9639815   6.5623717  29.4492710  75.2663692  41.9441133   5.3250397
  74.5730766  42.0569139   5.9753120  76.0787996  42.0211987   5.8252895
  19.7629633  40.1013141   2.3144043  19.6255483  40.9353547   1.8652714
  18.9748897  39.5931249   2.1222723  73.3896347   1.3423638  35.8042229
  73.5186132   0.6600862  35.1453674  73.5053988   2.1629148  35.3251350
  10.6915178  40.6085925  47.4602783   9.7657957  40.7862477  47.2938240
  10.6945815  39.7751813  47.9310787  20.3051557  14.6349769  18.0717361
  19.8387470  13.8722234  17.7298344  21.0920753  14.2721086  18.4783257
  72.9857492  56.1711168  66.1398315  73.1364298  55.2799320  65.8246851
  72.1393251  56.1279297  66.5847349   2.2987284  13.4954362   3.7117565
   2.2555604  12.7224784   4.2746962   1.4039912  13.8354354   3.7027300
  40.5621688  64.3826077  35.0271595  40.1369778  64.9160216  35.6986607
  41.4680580  64.2998717  35.3250683  44.4604387  17.7723079  31.8284691
  45.0084343  18.5222201  31.5970314  44.8130836  17.4668412  32.6642693
  45.0912766   9.5432384  62.6567888  44.2003743   9.7727496  62.3925018
  45.4844813   9.1650016  61.8703032  11.3621869  14.3999486   6.0311735
  10.8856477  14.6985631   6.8057526  10.6776895  14.1593509   5.4068316
  58.6861925   3.5705333  25.5203808  58.2869475   3.5823779  26.3902653
  59.4407942   4.1546636  25.5952061  53.0691703  67.3562150  21.0693253
  53.5348492  68.1011777  21.4493263  53.4302275  66.5928559  21.5200413
   0.5667295  40.5807309  34.8089970   1.0651841  40.2243333  34.0736378
   0.1179566  41.3445096  34.4464005   3.0625262  27.2754674   4.4174612
   2.8972306  27.4522786   5.3435553   3.1201686  26.3215976   4.3623102
  37.4227285  67.3824930  61.4423752  37.4006343  66.5049458  61.0607290
  36.7648244  67.3581266  62.1372128   7.6604905  30.6311946  10.9588135
   8.5342731  30.7820992  10.5983103   7.0799698  30.6561475  10.1981533
  39.8533144  39.2906861   1.5013731  40.1394596  39.4923787   2.3922575
  40.0747528  38.3671336   1.3820017  13.4867706  30.3862863  16.7754639
  13.0765142  31.1338811  16.3406933  13.9769115  29.9451117  16.0816563
  44.3783559  13.4074311   2.6904095  44.1069593  12.9191213   3.4676683
  43.9117183  12.9867797   1.9682396  14.4521004  33.1017900  59.2202473
  14.2468315  33.9505816  58.8282681  13.6133152  32.6414371  59.2475462
  13.1797733  34.2204194  12.5071228  13.2976904  34.0268617  13.4371031
  12.2307696  34.2269902  12.3822964  31.2775173   3.4456639  16.8720806
  30.8561506   2.5898843  16.7925346  32.1655407   3.2486205  17.1701038
  12.7489231  74.8063395   9.3430794  12.6959751  75.6688926   8.9314592
  12.3656176  74.9313114  10.2112330  67.6269062  35.3759389  46.2925137
  68.3235105  34.7358279  46.4382351  67.4586960  35.3367238  45.3510273
  79.0112925  67.6324463  36.6263008  79.4252443  68.1295156  35.9207559
  78.4545612  68.2697773  37.0736146   5.6492947  75.6119893  28.9214695
   5.2803944  74.9836014  29.5421780   6.5912865  75.4431603  28.9410484
  77.5626747   6.6496856  56.5557814  76.6928283   7.0118720  56.7243671
  78.1663934   7.2972018  56.9197464  40.9025611  57.4969869   6.0802734
  41.6040792  57.1209626   6.6119850  40.3335704  56.7551045   5.8751429
  36.1008239  61.3349819  65.5034161  35.2863288  61.3115978  66.0056925
  36.2962127  60.4158592  65.3210258  21.1788917  72.1346569  65.0647974
  21.4575744  71.6703224  65.8540773  21.8252802  71.8904114  64.4024086
  12.0334496  10.6969361   8.7590731  12.9715623  10.5967526   8.5973776
  11.6149654  10.2975469   7.9964531   5.4984468  75.6463528  34.1770530
   6.3318127  75.8429003  34.6049547   5.1894522  76.4928389  33.8542366
  68.3392783  35.1231389  49.5861233  69.0156241  35.6843858  49.9653137
  67.5301345  35.3986602  50.0169457  41.6055679  68.6032391  36.3569641
  41.9328070  68.8249350  37.2287416  42.2897434  68.9063406  35.7600832
  34.1551485  17.6537375  15.4580200  33.2038869  17.6729875  15.3533066
  34.2920055  17.6601129  16.4053619  31.1661901  34.2887406   0.8133448
  31.5649070  33.7167220   0.1575602  30.2399959  34.3188243   0.5735767
  44.1109459  33.5872848  52.3290396  43.3224122  33.9011485  52.7716923
  43.8441626  32.7643497  51.9193745  39.2494965  67.1526957  59.0373135
  38.8124681  67.3020363  59.8757267  38.7071967  67.6156712  58.3987236
  78.1035129  11.6636951  65.5840731  77.8401653  10.8118732  65.2358341
  79.0400449  11.5717036  65.7592058  22.1720447  51.4389234   5.8322228
  21.5072956  51.9740014   5.3986061  22.3081913  51.8652825   6.6783417
  60.0095550   3.5436160  34.1602325  60.4864184   3.5155494  34.9897170
  60.6726281   3.7770183  33.5105467   8.2514427   3.7595851  37.1961474
   7.9638813   2.9679401  36.7413568   9.1975639   3.6504752  37.2919559
  55.5789892  14.1968257  59.3788767  56.0267893  15.0406272  59.4398546
  55.2069322  14.1862972  58.4970093  47.5182104  65.8889771  57.3944378
  47.1281290  66.4184284  56.6989183  48.2072306  66.4438200  57.7599955
  15.6595373  53.9847040  41.4615297  15.2360404  54.8345804  41.5823364
  15.2487504  53.4174967  42.1140385  77.2118551   1.2638199  15.1173676
  77.3436242   2.0836842  15.5934895  77.2823459   1.5086853  14.1947067
  51.4408390   5.1658828  35.4373288  50.4872529   5.1881988  35.5173922
  51.6021506   4.6738918  34.6322465  56.9421482  62.0564747  61.9279957
  57.6462030  62.5479841  61.5049601  56.3307142  62.7273560  62.2318029
  56.2895576   6.6190536  41.1752462  56.9639842   7.1048171  41.6500235
  56.3305585   5.7346256  41.5390205  63.0736494  43.0378437  44.3292093
  62.8363705  43.9648485  44.3534231  63.9482880  43.0042839  44.7166538
  32.4376382  20.6928401   8.8225353  33.3250560  20.3812556   8.6446608
  32.3930301  21.5469413   8.3927095  51.3148632  22.1030955   0.4506481
  50.3980484  22.3348956   0.3024805  51.6467609  21.8721824  -0.4169666
  52.5399971  70.7938671  63.4372044  52.3860073  71.7385578  63.4281349
  51.7104340  70.4131937  63.1488562  57.7943460  11.3582618  22.9215479
  58.3065526  11.7852123  22.2348237  58.3140890  11.4765556  23.7165999
   5.1125612  18.9243608   1.8140448   4.2323579  18.9174323   2.1901072
   4.9724593  19.0754228   0.8792770  30.2330303  61.6489410  61.1151505
  29.7725964  61.6241503  61.9539690  30.4763436  62.5678253  61.0025454
  34.8075237  18.9155059   0.4200638  34.5745649  18.0325561   0.7070530
  34.8649540  18.8501697  -0.5331766  25.8095398  47.0141702  16.3536919
  25.0491418  47.1761231  15.7953156  26.1621608  46.1805539  16.0422886
  36.0418797  74.0662813  58.3973455  36.8744898  74.4344473  58.6930609
  35.3823256  74.5008516  58.9380550  43.0079412  60.0949192  61.1531973
  42.7483702  59.5409107  61.8893528  43.2250404  59.4781399  60.4541445
  41.9912098  12.6735885  42.8624296  41.9033573  13.5258014  43.2893515
  42.0553158  12.8784854  41.9296169  19.9790277  27.6081424  22.2266663
  19.0896167  27.9469399  22.1246994  20.3713026  27.6999240  21.3583744
   5.8828392  48.3591466  39.9634254   5.0466837  47.9873090  39.6826828
   6.3146414  47.6476865  40.4362953  73.1628935  11.9671256  51.7377567
  73.2916204  11.1982257  52.2931337  74.0422336  12.1939952  51.4352274
  71.3606405  61.7982340  60.3018093  72.2991133  61.6099358  60.3083420
  70.9784126  61.1304998  60.8712482  32.9784288  23.9389663   4.2229641
  32.8835001  24.8544221   3.9599741  33.2934227  23.4950118   3.4356154
  73.1893635  76.0326815  64.4790649  73.6329794  75.2052832  64.2923880
  72.4362421  76.0392666  63.8883018  73.7557097  36.1604791  21.5985954
  73.9691790  36.9367270  21.0808170  73.5763570  35.4809718  20.9487236
  29.0309310  71.3235188  27.7876616  28.8202739  72.0090675  28.4215999
  28.3974028  71.4479113  27.0809770  25.7556476  43.8623147   6.9085062
  26.5719451  44.2924981   7.1631182  25.1463165  44.0655904   7.6181734
   7.2177472  40.8422618  19.5329464   6.4817490  41.1377387  18.9970100
   7.2248997  41.4400725  20.2804840  43.6852121  61.5741730  39.0273190
  43.8017559  61.3280392  39.9449611  43.0091190  60.9788752  38.7036729
   1.7530773   9.1247184  13.6653256   2.5633333   9.0059669  14.1609263
   1.9587706   9.8114021  13.0309892  49.3148843  18.0515868  56.8991899
  49.4661442  18.4656245  56.0495281  49.1921178  17.1244342  56.6953659
  77.4799053  14.7549731  50.3256464  77.3350374  15.5068977  50.8999777
  78.4267179  14.6159847  50.3472519  31.0485687  21.6789441   4.6561850
  30.3495302  21.0326915   4.5565260  30.7668438  22.4209504   4.1211260
  80.3348501   1.3708668  11.0425127  80.6162985   0.7917814  11.7508066
  79.4915612   1.7158179  11.3359488   3.8350787  52.9205041  10.7787931
   3.0835905  53.5048585  10.6787050   4.2209067  53.1682591  11.6190184
  55.5665970  68.7336016  51.0305643  55.8117485  68.7121105  50.1055384
  56.2532187  68.2336712  51.4719915  32.5335526  76.3973475  46.2663603
  32.5256085  75.8657360  47.0623255  32.0117116  75.8970451  45.6389761
  23.7485884  13.1899364  57.3183107  24.5471237  12.6731975  57.4258041
  23.4032295  13.2845695  58.2060051   4.1886805  19.8185832  61.1497831
   3.7255428  19.0213115  60.8927059   4.4385384  20.2280910  60.3214645
  69.4486809  75.6627846  21.5364361  69.9657345  75.8109760  20.7446504
  69.6515369  74.7623253  21.7899203  34.6165695  16.6694980  30.6893147
  34.1725292  17.4719624  30.4152477  34.3685283  16.5600829  31.6073216
  22.4279592  -0.0217955  53.5625601  22.6241110   0.6043060  52.8656006
  22.7960251   0.3753717  54.3518782  54.4548655  75.4016352  58.1810951
  54.7922945  75.1491213  59.0405178  54.5395327  76.3548756  58.1611729
  64.5557205  69.6988843  33.1713188  64.6946684  70.1445697  32.3356808
  64.8332278  70.3346346  33.8308895  68.6193705  74.9951649  65.0643396
  68.7356997  75.7902479  65.5844736  69.2696285  75.0686693  64.3657732
  80.7674087  43.9730024  53.4103203  81.1570274  43.6941290  52.5816727
  81.4972355  44.3463182  53.9045048  55.8859793  58.6123488  21.1098278
  55.2349297  59.2269299  21.4484394  56.1575214  58.1053887  21.8749989
  73.4342511  45.1541238  20.5374039  73.2686086  44.3076234  20.9524143
  73.8379153  45.6832604  21.2253750  18.8541353  48.0225611  57.8178978
  18.4360170  47.3251057  57.3129559  19.6575904  47.6258802  58.1545496
  60.6294966  42.9333115  60.5111313  60.6926870  42.1814680  61.1001825
  61.4235401  42.8877068  59.9785471  60.3190660  66.3963985  60.2305317
  60.5985594  65.5791330  59.8179865  60.9943485  67.0301008  59.9883604
  41.4480734  61.0416746  63.9583635  42.1766472  61.6180754  64.1889668
  40.6815004  61.6148853  63.9533567  18.6798706   2.4471383  14.7065247
  19.0499677   1.7489963  15.2467621  18.3089389   3.0657868  15.3357399
  29.4706345  67.0830870  60.0628281  29.1594744  67.8024626  60.6122923
  30.3209972  67.3797989  59.7386789  41.7220106  39.5254617  19.8432339
  42.2114887  40.3293471  19.6688641  42.1741571  38.8541274  19.3322456
  27.4091425  17.3477368  16.3147343  27.4517765  17.1091514  15.3887260
  28.0127039  16.7427735  16.7459667  40.3356391  17.8294766  24.2040527
  39.7427231  17.3132908  23.6579502  41.2058192  17.4830734  24.0065182
  76.1806385   8.9307220  42.0065928  75.7141678   8.8489825  42.8384256
  75.4901258   9.0603358  41.3564968  30.8876266  51.8915849  15.9089840
  30.9001722  50.9367185  15.9745968  30.1011600  52.1542077  16.3872517
  67.0544632  43.4505277   0.6841219  66.8048616  44.3456750   0.9135521
  67.7513679  43.2303147   1.3022364   0.4235973  24.7551446  15.9790504
  -0.2002702  24.1629033  15.5591953   0.1591339  25.6276183  15.6873692
  40.9866099  73.5999058  34.5725430  41.5642099  73.0326102  35.0832069
  41.2704555  74.4880197  34.7891415  34.2024507  29.4883018  23.0002487
  34.9963846  29.5287566  23.5334099  33.5102977  29.8128228  23.5762966
  43.2497501  72.1531200  47.0708227  42.9717731  71.8470812  46.2075138
  42.4392319  72.2114325  47.5766850  47.4034776  37.5463252  17.9870880
  48.2301559  38.0249362  17.9257000  46.7310323  38.2274537  17.9766071
  23.1401243  23.6558633  24.6187008  22.6551523  23.0879216  24.0199745
  22.6540508  23.6068397  25.4418457  32.5020599  59.9086809  58.2255650
  33.0073309  60.2947807  57.5101185  33.0973077  59.2734814  58.6236000
  52.9604952   0.3321082  62.8024673  53.2031480   0.3384359  63.7283754
  53.0509130  -0.5832093  62.5374222  21.6186466  48.0639367  10.8007992
  21.4483966  47.6015382   9.9801672  21.7191448  48.9802747  10.5429972
   1.1431851  20.8366256   1.3476885   0.7036748  20.0575261   1.0070026
   0.9762849  20.8130174   2.2899282  15.2716627  52.5689416  10.8038414
  14.7522058  51.8952661  10.3650225  16.1296215  52.1642880  10.9318960
   3.4404896  14.4922454  33.4898472   4.1301964  15.1550681  33.5246086
   2.6275680  14.9949653  33.4382486  36.7870927  71.5470743  57.3047304
  37.6780343  71.5264177  56.9553995  36.6768599  72.4416351  57.6269770
  71.4116383  68.3361387  61.7229128  72.3499393  68.4731150  61.8535137
  71.2006330  68.8506508  60.9438229   9.1558597  29.2481239  54.8201799
   8.5595034  29.9223716  55.1457357   9.1391371  28.5681350  55.4936552
  15.2890768   2.7698712  19.0235794  15.4928150   2.1650224  18.3102215
  16.0745706   3.3097701  19.1115273  40.7382146   5.8995445  53.7797880
  41.1953096   5.2986724  54.3682194  39.8553387   5.9657676  54.1436243
  71.8097067  69.1768074  45.8906126  71.4289665  68.3044052  45.7897043
  72.7323246  69.0142250  46.0870171  73.5290154  28.6420684  39.9667347
  72.9246958  29.3729644  40.0964153  73.5064657  28.4769969  39.0241421
  71.5092317  17.8357894  25.3313088  70.5632488  17.9657657  25.3980494
  71.8568174  18.1790073  26.1544871  73.8179390   7.3043926  25.8011460
  72.8823702   7.4182708  25.9683919  73.9461557   7.6448352  24.9157691
  18.8755822  76.4764643  60.1703119  19.4812644  77.0714760  60.6122875
  18.5422027  75.9122705  60.8680058  66.4822491   5.0468116  28.1084335
  65.9760638   5.8554893  28.0306519  67.3304148   5.2566104  27.7175034
  67.9545108  21.4648731  65.3068638  67.1077148  21.8362338  65.0593424
  68.5359947  22.2217567  65.3793049  73.8174864   4.2599635   6.7088068
  72.9522808   4.3410306   7.1101559  73.8369699   4.9455457   6.0411060
  81.0563310  15.4547839  17.7104366  81.2048658  16.1284022  17.0468033
  81.3063725  14.6365266  17.2812927  65.9978501  60.9003923   8.5040844
  66.9179646  61.1167619   8.6550892  66.0151736  60.2692292   7.7846659
   2.0733275  19.0892558  15.1747597   1.8891825  19.5474439  14.3547714
   3.0014720  18.8619666  15.1189125  57.9060221  69.7385263  55.0237322
  58.4954691  70.3574657  55.4546595  58.0971098  69.8356438  54.0908384
  34.8517313  22.6851802   2.1411026  34.8747911  21.8438058   2.5969399
  35.6981077  22.7405076   1.6974628  36.8474603  60.5755711  60.0350666
  36.3255620  59.8667383  60.4111099  36.2293243  61.2989950  59.9311495
  58.9915991  70.9296799  33.5842156  58.7353182  71.0292292  34.5010805
  59.8898602  71.2585449  33.5495400  44.4430818  21.4712863  -0.2545845
  44.0119924  22.2800832   0.0215376  45.0657644  21.2802558   0.4468430
  51.5673113  69.6012878  26.7351818  50.9333658  69.1623783  26.1679959
  52.3671150  69.6455765  26.2111712  79.6987923  24.7539239  18.8927162
  79.1389569  25.5269628  18.9650620  80.5093249  25.0808721  18.5023678
  23.0796136  54.3470197  11.9426191  23.1888761  53.5046964  12.3839701
  23.8329639  54.4092278  11.3554037  68.7390323  42.9104428   2.5290716
  68.5350188  42.7124410   3.4430779  69.6941050  42.9691510   2.5041378
   8.7972822  12.3890548  33.5612762   7.9939832  12.8555922  33.7921227
   9.4847812  12.8379731  34.0532673  17.8915109  29.4628386  11.4496840
  17.3229875  30.2312856  11.4997376  17.5449171  28.9558988  10.7154406
  15.1839532  31.1656480   2.4154318  15.9592332  30.7643704   2.0228088
  14.7586097  30.4511981   2.8896416  68.5971697  14.8592620  16.4004601
  69.3626769  15.3993850  16.2042606  68.4013470  15.0458722  17.3186482
   4.5551632  75.4116199  14.5562828   3.7582491  75.7897613  14.1845787
   4.2431829  74.8260281  15.2461994  65.4000338  22.9326920   3.4263170
  65.2881594  22.4985509   2.5806034  65.9705623  23.6781697   3.2392490
  50.1806633   2.8279884  49.1942406  50.5407898   2.6062066  50.0529337
  49.2437569   2.6488454  49.2739153  77.9786158  65.8335924  49.6767378
  77.1827173  65.4436207  50.0382566  77.7360725  66.7397022  49.4860363
  73.9096498  59.5484066  44.4230938  74.4180679  59.6392441  45.2290010
  74.1777229  58.7022114  44.0648746  61.5500488  52.6168542   2.5147951
  61.2577095  53.4835629   2.2326744  60.7470073  52.0985990   2.5673998
  62.2191207  18.7369449  48.7462282  61.4369313  18.9753062  48.2486391
  62.8400938  19.4435794  48.5693359  52.9177999  37.2093225  66.3711214
  53.0669117  36.8133140  65.5125332  52.6984739  36.4716411  66.9402933
  60.6330729  61.9147825  58.1398392  60.3602314  61.0515118  58.4505701
  61.1223173  61.7366171  57.3366356  68.4292746  54.2078304  48.8606024
  68.4365988  55.1556683  48.9939356  68.0536890  54.0916252  47.9878664
  25.2894153  51.5869813   8.0646551  24.6596088  52.2917085   8.2161129
  25.6060638  51.7361169   7.1737469  67.9684258  39.9303198  54.6563196
  68.5536337  40.3209496  55.3052950  68.0664539  40.4837799  53.8815260
  61.2192885  29.9567897  41.8362474  60.8532707  30.5634410  42.4798536
  62.0743505  30.3271110  41.6172457  39.1481342  30.8150582  10.0776566
  39.4843473  29.9652772  10.3623903  38.2587375  30.8509116  10.4296864
   3.0626096  53.1408982  15.0785625   3.7997760  53.2400041  14.4760693
   3.3537712  52.4798017  15.7065857  31.9162740   4.4990354  27.3418987
  31.2524118   3.9821248  27.7983273  31.4719715   5.3173547  27.1201313
  36.1344361  74.8115540  17.8117466  35.4480505  75.3098106  17.3680723
  35.6636500  74.1299963  18.2913995  45.0435581  57.5147443  37.9463757
  44.4017257  57.1354775  38.5467423  45.2786626  56.7947869  37.3610390
  26.9566192  62.9354386   1.2294233  26.5300550  63.2657628   2.0201004
  26.5141859  63.3883767   0.5115545  45.4353942  41.6942315  16.5424526
  45.5968322  41.5127139  15.6165970  44.4906511  41.8381219  16.5971363
  26.3298454  40.0282435  23.1796921  26.1599912  39.1252761  23.4480846
  27.2568740  40.1656775  23.3745468  34.1854999   4.1445453  25.5752444
  33.7990807   3.4706599  25.0159717  33.5498474   4.2635829  26.2809372
  11.8181465  15.4607303  39.3292856  12.7714441  15.5412681  39.3604612
  11.5380238  15.5784995  40.2369690  77.8614140  60.2057838  54.5431519
  77.8481674  59.6559095  55.3265333  78.4283924  59.7368288  53.9309072
   6.0067262  66.1270909   3.0052746   6.3285842  65.6675630   2.2297276
   6.2786569  65.5768304   3.7397802  18.0800809  59.5352559   1.8783081
  17.6870241  58.7006860   1.6229237  17.4220409  59.9489312   2.4369610
  27.1133890  72.6964192  10.8921516  26.9423475  72.8681188   9.9661387
  27.0792236  73.5588841  11.3059509   8.6663769  12.7597244  63.4815884
   8.8838098  11.8304355  63.5549927   9.0460775  13.1571681  64.2652321
  50.1003502  20.9578426  60.3599691  50.5795620  21.1818797  61.1577129
  50.6001900  20.2383239  59.9743891  64.2039146  30.4169278  21.4710510
  64.3479385  30.8197074  20.6147469  64.1550865  31.1555057  22.0779694
  27.2399853   0.2483995  26.3834858  27.4872635  -0.6609051  26.2154126
  27.4724625   0.7124097  25.5791974  39.6530579  17.7295501  40.8429861
  39.6447609  16.8484885  41.2170267  39.0138576  18.2165630  41.3630533
  38.2892503  48.6465650  14.4486225  38.7114658  48.9999967  15.2315987
  37.3523655  48.7550931  14.6120346  10.8057163  16.7219646  54.0217495
   9.9049471  16.9822414  54.2143440  11.2046526  16.5858466  54.8811436
  75.3673267  22.6910615  28.2484961  74.5947981  23.2513118  28.3229971
  75.6975603  22.8546786  27.3650885  24.9722145  10.8020599  60.6260586
  25.6013439  11.1069114  59.9722290  25.0819586  11.4033801  61.3626766
  38.6014223  74.0961790  32.6576948  38.8788319  74.9102497  33.0778861
  38.0059409  73.6918020  33.2886577   0.8161018   1.2738425  58.8259506
   0.0902365   1.8976457  58.8406944   1.5116785   1.7039497  59.3233538
  67.7244641  62.3768931  47.8961420  68.2206895  61.8929737  48.5563040
  68.2276442  63.1795340  47.7589941   7.2113866  44.9228954  27.1511292
   7.2630513  45.4600906  26.3605690   6.9236863  44.0648651  26.8392825
   6.0822803   0.7567809  31.8396807   5.9291130   1.4522162  32.4793220
   5.7892436   1.1280066  31.0074830  33.4428541  54.8542783  10.8747185
  33.0898569  55.0192056  10.0004089  33.3143685  55.6784365  11.3442791
  23.6426258   2.5688177  55.1303720  24.0617085   1.8836778  55.6511259
  24.3619847   2.9776731  54.6491289  34.1290073  30.5843804   2.4356020
  33.4352116  30.1594786   1.9312799  34.1246966  31.4919666   2.1314610
  51.2012531  65.2065342  40.2271509  51.4073588  64.3771558  40.6582928
  51.7178809  65.8579307  40.7015038  58.6965494  66.2847870  14.8566961
  59.2405703  66.0434609  14.1070056  58.8966768  65.6245773  15.5202496
  16.8754423  13.7498152  48.2088518  16.8152285  13.3553946  47.3387718
  16.3961244  13.1480002  48.7783289  63.7196398  12.8916800  53.0944729
  63.4743309  12.9604733  52.1718025  63.4039259  13.7053406  53.4875536
  65.8433715  51.6430066   3.5721481  65.3117863  51.4938555   2.7902258
  65.2410356  51.4998017   4.3021572  66.8899709  14.8247898  56.9205856
  66.6959947  15.3342724  56.1337996  66.5253347  15.3434336  57.6377201
   0.9134256  15.6100690  35.7860470   1.7548618  15.1614916  35.7024145
   1.0592632  16.4687395  35.3889966  46.0041714  12.3179090  40.9047461
  46.0377121  12.9029870  41.6615725  45.3711796  12.7262926  40.3141689
   1.7628437  22.2765708  42.2851562   1.5330984  22.7325058  41.4754868
   2.7146801  22.3585963  42.3444176  27.6463417  21.3261376   8.2090128
  28.2710480  20.6881438   8.5538853  27.2678155  21.7354439   8.9871014
  65.2130928  55.2894585  32.5551319  65.3460040  54.8210924  31.7309976
  65.8016374  54.8571151  33.1739402  75.3392780  22.5552869  65.4623032
  74.7814786  21.8269682  65.1890945  74.8360729  23.3387136  65.2403641
  52.2256843  60.3281424   7.6956785  53.0168239  60.3784511   7.1592081
  51.7386524  59.5870874   7.3353041  30.2061343  12.5860441  45.1382637
  29.3655300  12.5187469  45.5911303  30.1460671  13.4022295  44.6418095
  39.7277023  70.7038592  38.6263919  39.1379549  69.9499541  38.6188650
  39.3367209  71.3074987  39.2580462  24.1459942   1.1488787  42.9501104
  24.5601559   1.2752202  43.8037729  24.1376328   2.0213561  42.5564766
  66.5372433  58.8676410  61.0403585  66.4506783  58.0963223  60.4801750
  65.6902244  59.3084638  60.9735394   8.1412303  28.7211299  51.7174101
   7.2530031  28.9954686  51.9454956   8.6909479  29.4679236  51.9547796
  62.6352900   3.9785871  51.9202280  63.0282348   4.8438177  52.0351267
  63.1091326   3.4169602  52.5336409  61.8060857   0.5714710  42.8101969
  61.5456659  -0.3049865  42.5269365  62.4401659   0.8571947  42.1525192
  36.2709330  45.1797519  26.9018925  35.5944769  45.7688759  26.5678680
  36.8691979  45.7507823  27.3837936  18.9613998  14.0428817  40.2562428
  19.6740472  13.9618683  40.8901262  19.3829358  14.3731606  39.4628620
  77.0961937  27.5306797  36.0404992  76.8792278  28.4606791  36.1057591
  77.9625747  27.4581885  36.4409494   8.1968125  74.5106596  57.1636534
   9.0219434  74.5925707  56.6854477   8.4488328  74.5572638  58.0859041
  70.1641434   4.3382347  44.9487066  70.5167943   4.9328798  44.2866898
  70.7058817   3.5522950  44.8776340  74.0650686  13.4738641   4.3380154
  73.9782484  12.5320773   4.4854343  74.9696954  13.6718230   4.5802820
  63.4090296  57.2115240  23.1061924  63.2953064  56.4004526  23.6016357
  63.0738370  57.0078264  22.2330463  68.1432845  43.1389802  43.2514429
  67.2317674  43.1645673  42.9603815  68.6430587  43.4639137  42.5025225
   1.7235447  26.5906668  36.6465425   1.3276699  27.0529985  35.9077835
   1.9502597  27.2822952  37.2682214   6.4059218  69.8238241  59.9134731
   7.0410021  70.5165665  60.0951719   6.7154225  69.4220715  59.1016626
  66.7233306  30.4070473   3.9793646  66.6437966  30.7576132   3.0922294
  66.3505036  31.0873771   4.5400620  32.7958965  14.7426486  58.2851076
  33.5776949  14.4616723  58.7605810  32.9515314  15.6674814  58.0935526
  20.9721160  30.4666686  53.8345766  20.3806806  30.5617547  54.5811653
  21.5569019  29.7503948  54.0819788  21.2789559  41.1184120  54.2169285
  21.4648914  41.0802460  53.2787371  21.3197422  42.0503712  54.4314623
  76.3482549  71.6822391  61.9096947  76.3053181  72.2060650  62.7096939
  76.8612339  72.2148513  61.3019037  71.5637841  72.0843466  35.2142453
  72.1000590  71.5017395  35.7520270  71.6312303  71.7238202  34.3301034
  57.6297474  16.1800218  64.2707634  57.7638388  15.8677077  63.3759403
  57.6457024  17.1341908  64.1963387   5.3067146  20.0480504  54.3382191
   5.6124030  19.7838457  55.2059650   5.9123478  19.6227033  53.7311589
   7.0392331  50.3858392  41.5086555   6.4649900  51.1134141  41.2696791
   6.6291746  49.6169775  41.1125040  18.5346488  11.2743614  10.0010860
  18.3846007  11.0479496   9.0832317  17.6866869  11.1370013  10.4233683
  17.5480747  30.8250785  58.6602068  16.9183600  30.7188821  59.3732357
  17.8616309  29.9381232  58.4834909  13.6883759   0.0315392  45.3781509
  14.4501328  -0.0694630  45.9489059  13.7995827   0.8952838  44.9808979
  31.2194372  14.2573474   1.0522163  30.3613953  13.8507865   1.1734760
  31.0665757  15.1896880   1.2058533  17.0146430  15.4751360  60.7268143
  16.5853751  15.2618742  61.5553522  17.2737098  16.3918567  60.8202934
  13.6375558  16.2692213  36.3121724  12.8081608  16.7463136  36.3389969
  14.2119503  16.7539060  36.9049478  37.0298598  36.5718237  20.1292789
  37.1643213  35.6548724  20.3687561  37.2353486  36.6079978  19.1950882
  74.9413437  17.6058686   3.0367720  75.1205146  18.5411334   2.9397672
  74.2006505  17.5653815   3.6417237  70.3647415  44.0961025  10.5150545
  71.0390798  44.7129683  10.2304924  69.8869268  44.5630095  11.2005651
  63.1254594  66.1261795   9.0401066  63.1106464  65.6414435   8.2148493
  63.5092608  65.5157159   9.6695984  11.0151704  73.3663188  38.7486148
  11.0138234  73.8442831  39.5779395  11.9119128  73.4511431  38.4247422
  36.2187449  39.2587409   7.7794064  36.9184218  39.8508946   8.0551565
  36.0764269  38.6880655   8.5345924  54.1917277  58.2774930  32.4772501
  53.8685818  58.4286194  31.5890098  55.0735349  58.6498468  32.4779034
   3.4704858  24.7925806  37.8887916   3.3612448  25.0237060  38.8112235
   3.2665408  25.5984259  37.4141836  51.9643799  35.5164886   1.0190809
  51.2878577  35.4120282   1.6881407  52.2562949  36.4232231   1.1131609
  71.7405887   3.0731730  12.6623190  71.5454694   2.9756598  11.7303074
  70.9000202   3.2990317  13.0606497  64.0126270  22.8757167  27.6309276
  64.9158913  23.1897140  27.5890827  64.0258545  22.0443368  27.1567297
  39.8269725   7.5332868  63.6454868  38.9029622   7.4780792  63.8891840
  40.2526045   7.9261172  64.4075584   8.1458944  45.7877111  37.6385069
   8.0411357  46.0245895  36.7170167   7.4914384  45.1049900  37.7862000
  29.7342467   3.2694304  45.1676941  29.5377016   3.1800255  44.2351675
  30.4180455   3.9381900  45.2053022  71.7119795  11.5659583  61.8636513
  71.6556752  12.2609913  61.2079144  72.6278448  11.5727353  62.1418190
  67.0273358   6.7374003  19.3261003  66.3989133   6.8297607  20.0421906
  66.8645436   5.8615017  18.9760554  64.6468343  67.3566883  48.7773800
  64.6060266  68.2852863  48.5487461  64.7911777  67.3491149  49.7236061
  60.6069819  35.0278054  16.5682686  59.8770873  35.2702529  15.9984386
  61.2166897  34.5656846  15.9930027  48.4781710  64.1778753   6.3989294
  48.4129731  64.6858070   5.5902374  47.8558771  64.5951150   6.9946611
  54.1071741  52.8736148  10.5936182  54.8515908  53.4434102  10.7870329
  54.3675796  52.3990164   9.8042000  16.8880928  20.2093840  62.4830246
  16.5264714  21.0716295  62.2781038  17.8163576  20.3725290  62.6501751
  63.0619526  16.1964619  62.3156214  63.2933903  15.7094383  61.5247536
  63.8826942  16.6010642  62.5965309  47.0522877  58.4894233  34.0470409
  47.6780887  57.8685932  34.4201016  47.0480516  58.2916622  33.1105018
   2.2228320  48.9716094  35.5038357   1.2811740  48.9428323  35.3344727
   2.3630699  49.8148792  35.9344864  20.8902359  33.2110691  54.0316153
  21.2856054  32.4984455  53.5295391  20.5278683  32.7846098  54.8081827
  71.6187394  14.1323793  50.4154062  72.1406424  13.5099411  50.9217834
  72.0503944  14.9754059  50.5540133  14.7795105   9.4378674  50.7273245
  15.5644894   9.1787183  51.2099028  15.0793767  10.1270342  50.1345682
  32.6986863  74.9284809  48.6483049  32.7845766  75.7790833  49.0788031
  31.9349744  74.5265300  49.0623236  61.5768590  51.9224088  50.8616495
  62.2957863  52.4183147  50.4699183  60.9186115  52.5835340  51.0757875
  31.0876586  64.3885510  59.4230270  30.8408525  65.2147501  59.0074396
  31.2428882  63.7899297  58.6924171   4.6118245  19.1474378  42.8096771
   4.3182710  19.2417455  41.9034958   5.5554485  19.3038976  42.7732754
   6.8928750  71.1884837  47.1552324   7.5910028  71.7208233  46.7738342
   6.8572100  71.4614152  48.0720043  68.9416734  47.6463471  16.8118465
  69.0877144  47.6601116  17.7577389  69.3162290  48.4700439  16.4996517
  31.4941788   2.8170910  41.1788940  31.3153005   3.7455177  41.0297012
  30.8987713   2.3599952  40.5849361  59.8430816  75.1013587   5.1466597
  59.8884670  74.7001813   6.0145462  59.7850863  76.0409687   5.3198612
  10.5997751  65.5811785  14.7641838  10.6426237  66.3078187  14.1425789
   9.9437616  64.9893401  14.3959415  17.4478614  12.2710443  14.4491506
  17.3750591  13.1366348  14.8512506  16.6430771  12.1750641  13.9398956
  13.5738411  17.7787976  18.9078606  14.1041889  17.2179704  18.3417881
  13.1866493  17.1784167  19.5449245  42.8473429  38.4990547   0.5629147
  42.7102677  39.0933926   1.3006199  43.2520620  39.0441670  -0.1118338
  49.2046897  41.4396895   6.3459766  49.0803472  41.3951404   5.3979338
  48.7058989  40.6977984   6.6880835  43.1576586  15.3073823  31.9083333
  44.0418911  14.9417043  31.9337583  43.2911253  16.2545407  31.8721437
  23.6399611  56.0131614  43.6988878  24.2922934  55.7683008  44.3551922
  23.5393008  56.9593828  43.8026428  37.8408337  17.2790873  50.6578541
  38.2030010  16.8756044  51.4466953  38.1386518  16.7166948  49.9428368
  12.8826213  42.9750156  23.7912822  12.2223258  42.6737213  23.1672120
  13.5838580  42.3263788  23.7298608  75.7247068  72.9892050  41.8737459
  76.1737015  72.2784393  42.3313951  74.8385908  72.6579772  41.7277288
  33.1581497  20.3932881  61.5407372  33.0789709  19.7780025  62.2697020
  32.2661591  20.7087755  61.3956356   1.7957248  13.3168988   9.3977678
   1.5566792  14.2157226   9.1714895   2.5822391  13.4064870   9.9359167
   4.3071636  51.1740964  29.5866251   3.5939773  50.7088535  29.1494226
   3.9716442  52.0614641  29.7140431   1.6810640  66.1037128  56.0013914
   1.9473155  65.7377129  56.8448305   2.2525056  66.8616598  55.8780909
  20.0742825  61.6900795  60.6789541  19.2963084  61.2092726  60.3964520
  19.8739584  61.9654207  61.5735435  22.4820746  32.8804986   0.5169333
  22.8690363  32.0575456   0.2181995  22.0936410  32.6683454   1.3656652
  32.0317025  52.7032612   1.7543304  32.2554688  52.0951424   1.0498083
  31.4423103  53.3370505   1.3454807  76.4590408  75.8056083  37.1029878
  76.8883230  74.9564367  37.2071910  76.5946605  76.2470349  37.9414272
  47.6458597  22.5859642  49.7802925  47.6456118  23.1400418  50.5608273
  48.2698727  23.0061793  49.1884708  64.6176281  61.9961982   4.0357319
  64.0044459  62.5195580   4.5518076  64.1159638  61.2219327   3.7806267
  24.1416788  10.7026744  63.6338711  23.4545493  10.8564830  62.9854679
  23.6848497  10.7167506  64.4749069  49.4874994  54.2835913   5.5102909
  48.6604134  54.5288918   5.9250057  49.4402568  54.6689115   4.6353424
  33.3755851  21.3973117  54.4128084  33.3382583  22.3513293  54.3443632
  32.4881482  21.1402297  54.6630049  61.5216108  25.0013785   2.6069534
  62.4102416  25.0350003   2.9611290  61.5125074  24.2181067   2.0568359
  58.2236945   0.8125358   1.4232815  58.3564420   1.6502266   1.8669975
  58.3361964   1.0131865   0.4941309  10.8100347  52.1853791  13.4316719
  11.1254183  52.5676749  14.2505825  11.5585534  51.6944716  13.0926121
  29.5195055  19.7859418  27.4042559  28.6196375  19.7007954  27.7192450
  29.7704124  20.6803894  27.6349950  21.5503232  45.0664506   3.1847656
  20.7462446  44.5471356   3.1858576  21.8187867  45.0903199   2.2662962
  66.7520553  30.8842683  48.7638521  66.6939503  31.7364264  48.3317852
  66.3209277  31.0141206  49.6085405  38.3458046  65.6223772  14.7294128
  38.3853559  66.1643360  13.9414108  38.1667272  64.7399972  14.4044960
  42.6070309   8.7914759  57.8198051  42.6877832   8.0459720  58.4147263
  42.2261190   8.4220099  57.0231628  28.4438825  16.3538396  46.5535641
  27.6849866  16.2929451  45.9733915  28.2819366  17.1378624  47.0782661
  60.0576067  20.4715490  56.6404867  59.6263075  21.0997224  57.2198057
  59.4819832  20.4147220  55.8778191  80.8904078  55.1229160  36.9270682
  81.5546944  55.3236358  37.5863576  80.9574606  54.1765754  36.7998791
  69.0231725   2.5138383  21.8960560  69.1910275   3.1877522  21.2373531
  69.6133872   1.7976146  21.6617477  39.6335224  27.6497207   9.9728716
  39.5456604  27.0506714  10.7142532  39.0227751  27.3115394   9.3180025
  15.2146633  76.9956053  50.6906271  15.1035126  76.5109346  51.5085316
  15.0060519  76.3604366  50.0055885   4.8943327  57.1369694   2.3847569
   4.9281786  58.0917535   2.3258102   4.6330307  56.9619308   3.2888115
   6.7022663  26.4174438  51.5730047   6.4225477  26.3735461  50.6586409
   7.3239136  27.1448565  51.5986443  15.4907441  12.5723624  50.0765467
  15.0607610  13.2469988  50.6021070  16.2015498  12.2526765  50.6322336
   8.8664353  55.3264618  56.0035801   8.2244307  56.0256577  55.8803511
   9.4266486  55.3764486  55.2290535  70.4439213  67.3215823  59.0241957
  71.0706021  68.0334454  59.1536379  70.9350481  66.5282898  59.2379999
  68.8098661  51.5593825   6.9626225  69.2757980  51.2707041   6.1778915
  69.4851057  51.9649396   7.5065029  45.4768801  25.4722214  61.2160444
  46.1984110  25.0062895  61.6385746  44.8572874  25.6471395  61.9243813
  34.2582862  50.4007242   4.8869122  34.3112878  50.4516790   5.8412874
  33.9093397  51.2513552   4.6206558  51.8269316  64.9834655   6.9752634
  52.2089497  65.6508777   7.5452269  50.9770600  65.3432749   6.7213238
  76.5729721   6.6339116  14.8638809  77.1554263   7.3615699  14.6459568
  75.7515105   7.0531373  15.1201618  47.5563685  62.7877734  19.1757000
  47.0328919  62.9746149  18.3964146  46.9244436  62.7889369  19.8946560
   4.5381877  32.9079652  62.6983309   4.0578783  32.4982905  61.9788122
   5.0244009  32.1889114  63.1018019  26.5577507   3.8592225  54.2287445
  26.1939764   4.4179115  53.5418940  26.2997651   2.9722822  53.9777231
  55.2532546  18.1716011  25.3157700  55.9502641  17.6483319  25.7114971
  54.4437758  17.7537511  25.6096638  18.2174885  18.7451982  65.1909971
  17.9941440  17.8155923  65.2376986  17.4493134  19.1941142  65.5440044
  68.7199966  26.6621397   9.8907888  69.2961446  27.1345697  10.4917038
  69.1712944  26.6991577   9.0474690  71.4940492  45.5935887   0.1039064
  71.0929910  45.0200937   0.7569683  72.3190443  45.1624558  -0.1191055
  21.8685675  12.4965131  35.9396935  22.5351644  11.8162549  35.8441424
  22.3566794  13.3185303  35.8920765  41.8534331  45.3022901   7.1775330
  42.5487069  45.6016997   6.5917194  41.7109648  46.0364232   7.7750147
  29.4714808  21.0425377  35.8381605  29.2643809  20.8981729  34.9148512
  28.8490319  21.7123032  36.1213589  51.0326878  58.7759874  37.7234352
  51.6014353  58.8483236  36.9569290  50.1832811  58.5149405  37.3676384
  22.9019297  50.0696335  31.0243691  22.5794647  50.8258984  30.5341518
  22.7639748  49.3267498  30.4367245  35.0911321  52.5903719  34.3655896
  34.2964150  52.0569341  34.3756533  35.0654676  53.0424731  33.5222745
  63.6746279  46.8975452  22.6082504  62.8426568  47.3335324  22.7925671
  63.4447781  45.9732101  22.5133598  30.7096577  26.6317892  33.8263178
  30.3440070  25.9783697  34.4226170  30.9446621  26.1355972  33.0422258
  64.0460628  42.7339792  55.4478741  64.7061008  43.0202913  56.0792303
  63.2408732  42.6598644  55.9601355  40.6278229  23.4414792  47.4007034
  40.6884670  24.1460705  48.0457687  39.8569942  22.9397178  47.6658249
  52.8385345  57.3436926  15.0968349  51.9502393  57.1213327  15.3756130
  53.0311219  56.7236099  14.3935288  51.7823664  45.4920892  10.5057991
  51.4182321  45.1875142  11.3369835  52.3944179  44.8035870  10.2458179
  60.7374446  64.4675610   5.6229198  61.4835159  64.0700100   6.0718811
  60.0403420  63.8153813   5.6932056  36.5166650  47.1499030   3.2863415
  36.7535792  47.1359430   4.2136562  35.6806312  46.6855446   3.2457150
  17.1428116  74.9638373  61.8779469  16.2756070  74.6016945  62.0597076
  17.4563082  75.2728074  62.7279425   2.5558704  58.0878258  25.2555561
   2.5291467  59.0412235  25.3364658   1.7862943  57.7848911  25.7374454
   5.8976799  33.2769656  33.2181501   6.6177124  33.7885451  32.8492761
   5.3844768  33.9116669  33.7181568  31.7585897  16.2261152  50.3187609
  32.6651049  16.0794926  50.0486374  31.2415552  16.0345709  49.5363140
   5.5565488   3.7616217  23.6921310   6.0641497   3.2818410  24.3466425
   4.7529244   4.0114307  24.1482186  48.8327567  68.1715605  22.4942101
  48.0986849  67.7104089  22.9000557  49.3499605  67.4808262  22.0799339
   2.1654256  57.6648765  61.2994051   2.4260839  58.0456846  62.1380186
   1.5342840  58.2879310  60.9392691  24.2124271  11.3620341  16.5890825
  23.8444161  10.4850638  16.4808035  23.4722781  11.9517791  16.4455080
  35.0936413   6.4109606   8.2523781  35.9939361   6.2217551   8.5167706
  35.0574565   7.3655432   8.1915951  41.1722994   4.8369718  24.9432778
  40.3902388   5.2645713  25.2922368  41.0720921   3.9172220  25.1887369
  16.5860677  51.2278080  25.9312797  17.3180652  51.8427515  25.9787440
  16.7900813  50.5614948  26.5875077   8.1960901  59.9077504  45.4214382
   8.9126333  60.4022448  45.8192682   7.4438198  60.4979091  45.4665375
  43.9079730  58.6532877   0.7739580  43.2333807  58.6103628   0.0962294
  43.4634618  58.3692429   1.5726793  74.3943431  55.4522507  63.1734228
  74.3287422  54.9610751  62.3544741  74.9843266  56.1782329  62.9706907
  13.0213416  11.1260641  14.1494906  12.5258946  11.8326271  13.7353253
  12.8680682  10.3655016  13.5888791  65.4345099  39.9858468  19.7393024
  64.4968764  39.8043279  19.8035133  65.4910461  40.7574428  19.1756714
  66.5539187  58.1399155  45.0312185  67.2443873  58.5246277  45.5711126
  66.7651480  57.2067928  45.0013494   2.3621796  51.2916217   5.8399046
   1.6080759  50.7727752   5.5599869   2.9642532  51.2595067   5.0964582
  34.4442892   8.8009346  38.5178185  34.0187120   8.9972180  39.3524384
  33.9607120   9.3193066  37.8746414  39.8382664  24.1981053  36.1196470
  39.1251183  24.6469283  35.6655478  39.4022250  23.6750984  36.7923760
  19.5331621  21.3670397  52.3358774  18.7010419  21.8368912  52.2806740
  20.0533938  21.7153716  51.6118240   7.3497055  59.3073032  32.9506577
   7.3538826  59.6488760  33.8448227   7.3225401  58.3564828  33.0576027
   9.4369614   3.0381137  55.4448462   8.6399001   3.3905405  55.0489664
   9.2146128   2.9224262  56.3686466  35.9605954  29.9683521   9.4640053
  35.7037852  29.0598170   9.3063820  35.7609514  30.1167689  10.3883112
  23.1925583  17.3214102  35.5597091  23.1621480  17.7318108  36.4239311
  23.6860633  17.9380715  35.0189543   5.2164555  40.1376009  39.2527938
   4.7605133  39.4856286  39.7850370   5.3055888  39.7254109  38.3934975
  62.4223407  74.4175540  22.8850222  62.8399368  73.7841552  23.4686756
  62.0407691  73.8849293  22.1872091  27.8920068   8.3054118  20.5176724
  27.1789350   8.2248931  21.1511410  27.5878324   7.8188758  19.7515190
  10.7883594  47.9671560  21.5630138  11.4497755  48.2504497  20.9317387
  10.7595776  47.0150433  21.4687527  17.2825299  44.1498254   0.6330002
  16.4704935  44.3895326   1.0795105  16.9996599  43.8330362  -0.2248203
  21.6060567  25.6498146  47.5582838  22.5073123  25.8635616  47.3168612
  21.1053848  26.4339328  47.3330784  19.6889353  25.4199505  29.9297500
  19.4406974  25.5300593  29.0118790  18.8955688  25.6355906  30.4199576
  80.6650640  21.1161208  16.0665083  81.1097147  21.2737250  15.2336347
  81.2923744  21.4016795  16.7307150  66.7674200  39.2406184  16.2837780
  67.0494429  39.8340594  15.5877007  65.9305851  39.5989791  16.5796078
  32.7139854  29.7414851  61.1793900  32.1961188  28.9673948  60.9584141
  33.5980463  29.5322847  60.8778858  77.3587070  38.8554562   6.1467875
  77.4355207  37.9968058   6.5627802  77.9877577  38.8294222   5.4257811
  23.0272245  19.5338905  63.9502573  23.8603091  19.1273582  64.1888666
  23.1648827  19.8573768  63.0599546   1.1775405  31.5839791  30.4674363
   1.6026300  31.3538265  29.6412659   0.9388192  32.5053048  30.3654456
  71.8990678  11.2282801  21.0227990  71.4753997  12.0255256  20.7047796
  72.5515419  11.0206354  20.3539252  57.5651065  54.1879711  15.8678806
  57.9089944  53.9695261  16.7340553  58.0644361  54.9592397  15.5994690
  28.0398011  17.4382675  53.2718039  27.9577518  17.9760838  52.4842453
  27.5071955  16.6640592  53.0896950  35.1810813  22.5336337  36.5416217
  34.5940304  23.2886529  36.5022755  35.4532337  22.4893570  37.4582481
  63.2745028  25.8369160  47.1575069  63.0926418  25.5901074  46.2507343
  63.5217571  25.0164604  47.5840664  80.2299778  58.8465593   0.6359137
  80.8202545  59.5767329   0.8220709  80.2098791  58.3415768   1.4488209
  51.7808072  62.4981163  13.1864918  51.7534153  63.4502814  13.0923450
  51.5455286  62.1649454  12.3205412   2.1283664   1.3678699  22.7722347
   2.7656927   1.8321090  22.2295273   1.7057004   0.7531505  22.1724785
  73.7217800  58.9160106   0.5455483  72.9089824  59.2911194   0.8844936
  73.4784786  58.0352352   0.2604616  18.0860209  32.0727158  41.6142225
  17.2439504  31.6478992  41.7775583  18.7103796  31.5793085  42.1461582
  24.7167659  13.7494850  51.8727684  24.3003750  13.1975412  52.5347424
  24.5337653  13.3081365  51.0433388  22.7378345  20.1174617  43.3224297
  23.1033516  19.3887174  43.8239861  22.1107817  20.5275464  43.9181376
  75.7066967  64.8011225  22.3001218  75.0748159  64.1501944  21.9947553
  76.5591123  64.3831377  22.1780133  41.8380547  20.3793049  41.6090822
  41.1283159  19.9685240  41.1153555  41.4086294  20.7565069  42.3768997
  39.9563694   8.1844497  60.6351423  39.8123455   8.1095648  61.5784788
  40.9068537   8.1350291  60.5333042  67.2938675  31.8961525  66.2363768
  68.0114299  31.2689710  66.3257170  67.4112982  32.2717524  65.3638172
  66.5253774  71.5550540   5.2920807  67.4387161  71.4545367   5.5603064
  66.0529677  71.7205284   6.1079729   7.4189317  35.5022550  49.3092537
   8.3420712  35.6811643  49.4882393   6.9931108  35.5624580  50.1644039
  65.6493680  53.2605419  22.5768459  64.8140685  53.3872292  22.1268929
  66.0569755  52.5234339  22.1221340   2.6886018  76.5237129  35.0435328
   2.4238785  77.1119476  35.7507348   3.0808528  75.7734795  35.4902101
  75.5478620  29.7188163  53.2404423  75.7535285  28.8246632  53.5132504
  74.7536355  29.9408031  53.7264013  35.6696129   1.9012702  56.9698906
  35.5009794   1.3520107  57.7354670  36.5106058   1.5916790  56.6335583
  13.4802628   7.8692269  57.8689146  13.2981217   7.2465533  57.1651125
  13.0520988   8.6784536  57.5895214   2.2979161  15.6378543  48.2700348
   2.1585873  15.0159478  47.5558567   1.8997534  16.4513540  47.9603291
  37.2179675  18.8392413  37.3545814  37.2038054  17.9898167  37.7956128
  36.2963200  19.0878713  37.2840142  34.0177989  24.9672699  41.2657976
  33.5851526  24.5589113  42.0156622  33.3004832  25.2273917  40.6878519
  38.3717851  48.6403713  25.9938896  37.8972701  49.0295813  25.2593315
  38.5021881  49.3649147  26.6056622  19.4181202  50.4779897  29.9324310
  18.6889623  50.0902579  30.4164017  19.2016129  51.4088068  29.8782528
  36.1858783  51.5056942  16.7222202  36.6778449  52.1101508  16.1664951
  35.3210078  51.9072328  16.8058670  80.7729730  50.7123232  51.6928482
  81.4328499  50.1894999  51.2373829  80.5361766  50.1864386  52.4567890
  79.9571230  70.7498716  42.0175886  80.4239394  70.4302513  42.7897024
  80.2575662  70.1853698  41.3053370  40.1015520  13.0947089  29.3772388
  40.7125235  13.1738377  30.1098275  40.4411745  12.3644435  28.8599348
  43.4984247  68.2036278   3.0335415  43.7823419  68.6622236   3.8243092
  43.1354109  68.8911817   2.4752176  32.6724346   8.5864120  25.9823692
  32.1921953   8.2893138  26.7552460  32.0783718   8.4165339  25.2513016
  81.0527970  44.5975082  62.6063013  81.4901497  43.7469380  62.5677967
  80.2559115  44.4344514  63.1108999  32.3502135  26.9198298  37.2330284
  32.0725632  27.7187037  36.7847610  32.6852465  27.2228265  38.0769324
   3.5156766  26.0920310  40.3863049   4.1836554  25.8719850  41.0356236
   3.8120723  26.9202971  40.0090027  24.1208863  21.3663173  26.8035603
  23.1796646  21.2713552  26.6575503  24.2650104  22.3122501  26.8294454
  80.6815885  10.4131842  48.2642031  81.1336599  11.1049247  48.7472725
  80.6250385   9.6859092  48.8839626  64.3164935  66.1057620  39.1484451
  63.8087352  65.9154706  38.3596468  63.8040217  66.7704754  39.6086168
  73.8424545  31.6835904  44.1410875  74.7248620  31.3130426  44.1242886
  73.7830716  32.1224093  44.9897003  24.0600419  13.6694562  41.3144636
  24.9742508  13.9267957  41.4337635  24.1051221  12.8339028  40.8496523
  10.7626851  73.2599415  64.7979164  11.1043461  73.1788569  63.9074516
  10.7228931  74.2034589  64.9541950  50.8105087  10.0601816  55.4247284
  50.7054567  10.9890759  55.6305218  51.5917206   9.7942704  55.9097385
  63.8382498  51.0808633  34.9528397  64.4657699  50.5196295  35.4083241
  64.3306152  51.4413688  34.2153729  47.7576725  65.5181644   4.2746723
  47.3792211  65.1231215   3.4892118  48.4555046  66.0846112   3.9454306
  12.4340498  44.6142054  46.7852402  11.9563460  45.3751945  46.4551926
  13.2590950  44.9727249  47.1123457   1.3609268  19.1825962  62.2502661
   0.5091126  18.8084722  62.0251513   1.9147637  18.9895666  61.4938021
  67.3464195  48.3044348  27.4601257  67.2826139  47.4052189  27.1382988
  67.3453561  48.8427375  26.6686333  80.8088867  65.8800361   9.9889935
  80.8214275  66.6976021  10.4866446  81.3345853  66.0652349   9.2108048
  19.9490869  27.7244043  46.6888142  19.0984941  27.3561406  46.9277811
  20.0921059  28.4276414  47.3222446  71.7634877   0.1891737   2.5642288
  71.2860616   0.9739833   2.8332413  72.1674546   0.4286938   1.7301596
  76.8317439  54.8580663  43.1703520  77.3924687  55.5064028  42.7443504
  76.5616061  54.2730134  42.4625587  67.6362658  20.6546021  46.3338900
  67.3780060  20.9895945  47.1925592  66.9149876  20.8997369  45.7543230
  19.2037304  58.8492601  26.7775321  18.3893021  59.3315702  26.6350031
  19.3997343  58.4538799  25.9281278  66.8457460  28.8839769  44.6067238
  66.6454124  29.6995521  45.0660038  66.0808039  28.7266707  44.0532303
  76.9544607  35.4903841  32.7300406  76.6720206  34.5759773  32.7479315
  76.4511514  35.9102130  33.4276462  55.6285477  20.4092169  51.5923119
  55.4397774  21.0288453  52.2970486  55.8434582  19.5924103  52.0427275
  26.1289525  29.7648835  48.8784790  26.4092565  28.9288759  49.2509747
  26.9087672  30.1051760  48.4399319  22.9667974  25.5533290  43.3206081
  22.2510195  26.1032057  43.6392450  22.7272058  25.3482080  42.4168682
  54.4070530   5.1089811  59.6316385  54.9654675   5.0836557  60.4086590
  54.6605206   4.3346852  59.1291904  67.7771846  39.0267643  13.0126513
  68.5221807  38.4974983  13.2974184  67.8343765  39.8238909  13.5394800
  62.7907379  64.5289784  63.3901501  63.3512111  63.9404898  63.8958979
  62.1704014  63.9486282  62.9490042  67.2301346   7.4033535  29.9992585
  66.9406110   7.8823739  30.7757568  66.5177602   7.5147206  29.3696928
  76.9851820  24.8026369  11.6015852  77.7890817  25.2073071  11.9274939
  76.4890234  24.5859967  12.3909748  70.4460015  63.8977103  52.5081873
  70.6686034  63.4589248  51.6871214  70.5313792  63.2161217  53.1748056
   8.6131662  30.1633692  43.3221674   8.8420135  30.7244372  44.0631533
   8.7266099  30.7230306  42.5539589  53.3870125  20.0935221  35.3765082
  52.7184248  20.3228688  36.0219693  52.9600143  20.2295232  34.5306921
  14.4381855  33.4978253  35.3736485  13.6816404  33.8837240  35.8151901
  15.1316879  33.5085259  36.0333241   6.6137028  13.8682377  33.8462067
   6.5300006  14.6875262  33.3583617   6.7918319  14.1423094  34.7458649
  73.5152342  40.5065410  49.1298389  73.9936831  40.8549564  48.3775616
  73.5010018  41.2274211  49.7594118  17.1613026  10.4109931  34.5219016
  17.5584137  11.1919308  34.9074793  17.9025674   9.8396844  34.3209887
  80.8734213  49.3203306  40.9143019  81.2136450  49.0367317  40.0657463
  81.6198701  49.7376537  41.3442898  62.7616215   6.7862409  50.1249123
  61.9843864   6.2304461  50.0680304  62.4153709   7.6710802  50.2406883
   2.8617938  58.7635176  63.7526608   3.5417398  58.3473664  64.2824936
   3.2379111  59.6065026  63.4993935  14.1845810  27.5589800  53.8439846
  14.9378812  28.1398129  53.9507723  13.6546302  27.9764271  53.1649256
  80.9734251  68.9628600  22.0579338  80.6361320  69.7762864  21.6826963
  81.9205405  69.0143996  21.9292951  44.3168640  27.0724988  51.8040943
  44.7858286  26.6593075  52.5290585  43.7572193  27.7265811  52.2226715
  44.5647971  45.3862593  17.4043358  43.8666634  46.0096625  17.6048553
  45.3092519  45.9329967  17.1531475  27.6790810  11.6092670  49.9411011
  27.2185779  12.3919320  49.6384335  28.5953212  11.7675197  49.7137451
   8.8086951  34.7638035  64.6476269   7.9817784  35.2305722  64.5269251
   8.7495488  34.0145707  64.0548515  49.6173803  51.6147170   5.9727943
  49.5917098  52.5607298   5.8291567  49.1346161  51.4831732   6.7888010
   0.2885771  51.4401007  64.0224695   0.2028494  50.5654669  64.4018078
  -0.4046053  51.9512939  64.4400930   3.9614056  43.6477558   0.3222120
   3.6716459  43.6712561   1.2342012   3.2694099  44.0996353  -0.1606762
   0.9730562  50.9207671  55.0674152   1.4103087  51.5119546  55.6802273
   0.3500970  50.4341738  55.6072140  36.3757873  15.4471958  55.2332783
  36.6255736  14.9544835  56.0149860  37.0252585  16.1478508  55.1740885
  39.4261622  35.3505945  61.3282967  40.1542091  34.7387552  61.4370728
  39.3474150  35.7827973  62.1787262  40.3715952  71.8794098  47.7613115
  40.1901492  70.9697556  47.9976130  40.0975903  72.3848911  48.5265827
  30.3952885  17.5179493  17.6874256  30.3167844  16.9595850  18.4609234
  30.3350401  18.4101188  18.0289447  52.3686973  47.7709494   1.6269053
  52.7681986  47.6979373   2.4936808  51.4298455  47.8383569   1.8008078
  16.2590384  29.6136546  35.6526256  17.0241690  29.1681623  35.2888346
  15.6367493  29.6525764  34.9263525  61.5597534  20.4358912  27.8615785
  62.2343254  20.7693815  27.2700000  61.2767267  21.2031960  28.3589411
  49.1006156  19.6676211  13.6992157  49.6309074  19.6675973  14.4960964
  49.0902080  18.7525945  13.4184206  18.9392304  27.4586058  66.1412907
  19.7171772  27.9351282  65.8515358  18.5792768  27.0780015  65.3401613
  81.0076358  61.3259356  27.4487543  81.0934259  61.1049896  28.3761477
  80.9516384  60.4796129  27.0050931  72.8836006   7.1435261  40.6224728
  73.1023461   8.0413085  40.8722115  72.5250763   7.2214490  39.7383809
  45.7069365  27.4849639  10.4695881  46.0226444  28.3324681  10.7831133
  45.6243793  27.5956080   9.5223988  79.4341971  53.0140083  32.3667169
  80.1968410  53.4492176  32.7477694  78.7017824  53.2868569  32.9193044
  10.7340668  62.0641086   7.3219097   9.9346445  61.5489838   7.2132862
  11.2954948  61.5211890   7.8753222  51.7263317  17.6511335  39.6125102
  51.2328482  17.2860169  38.8780737  52.6112890  17.3031318  39.5030522
  47.3870325  35.3875136  53.5702133  47.9994249  34.7813082  53.9870119
  47.7758503  36.2516308  53.7056828  17.4803340  27.1647811  48.1364918
  17.7792907  26.9978547  49.0303564  17.2923553  28.1031609  48.1181192
  66.7574604   4.2596440  18.2724560  66.2173291   3.5241036  17.9835403
  67.6575752   3.9636426  18.1367672  34.3858433  36.0406327  57.1307278
  34.0471029  36.3355112  56.2854290  34.9279523  36.7671585  57.4381542
  51.7713165  25.8184600  61.5372229  52.0649385  26.3144231  60.7730007
  52.4948454  25.2214384  61.7277479  21.1404753  11.6166401  59.8148584
  20.6315732  11.3041556  59.0667915  21.4822674  10.8203387  60.2214432
   2.2628878  64.7918747   9.5141829   1.7730711  65.3346083   8.8963259
   3.0312298  65.3172086   9.7375858  79.4025699  62.6187179  13.4998072
  79.1924087  62.5912521  12.5663698  79.9949114  63.3651850  13.5900915
   6.3390873  72.9506061   3.4678829   6.4189766  72.9392574   2.5140894
   5.8884285  72.1332619   3.6802280  31.0622931   8.9354843  62.7706766
  30.4716611   9.3111122  62.1177673  31.8815637   8.7906229  62.2973442
  67.1597338  10.5108213  45.6189442  67.5674772  10.4814005  46.4844561
  66.8521690  11.4128506  45.5296135  35.6196117  20.1325178  54.4941664
  34.8070812  20.6361866  54.4457340  35.6500602  19.8131752  55.3960085
  37.6666737  33.0361080  52.7234840  36.9971156  33.6633778  52.4506140
  38.0423403  33.4169149  53.5172653  72.5073671  30.3191829  32.7165842
  71.9142914  30.0145531  32.0297861  73.0913687  30.9344602  32.2731781
  74.0675259  29.3301821  61.1703253  74.3356466  30.1653385  60.7871103
  73.3971643  29.5652652  61.8118763  44.1560841   5.7807904  30.8774471
  43.4101248   5.9196556  31.4609647  43.7667036   5.4657793  30.0617385
  35.2298117  15.2129710  64.3101025  35.5938482  16.0452306  64.0083504
  34.3155503  15.2349365  64.0274715  65.7648985  50.6665979  13.7061966
  65.8481852  49.8346279  13.2402313  66.4274947  50.6223915  14.3955791
  63.5868804  67.3454259   1.1205090  63.3726875  66.6510794   1.7435968
  63.4303800  66.9530819   0.2615536  13.8735531  33.4526370   2.0113934
  14.2388962  32.5950841   2.2290123  14.5062683  34.0788231   2.3632324
  41.9404936  16.4521301  57.0034075  42.3492336  16.2869120  57.8530359
  41.9341373  17.4058473  56.9220877  64.7191135  29.0638802   9.2117823
  64.5501820  28.4021620   8.5410965  64.3010394  28.7178848  10.0002850
  44.3612051  51.7890549  47.1636438  45.0840855  51.4303589  47.6784372
  44.2842293  52.6964140  47.4586105   5.9525361  42.4532895  35.7092178
   6.2774934  42.7512174  36.5588463   6.3683500  43.0377583  35.0753963
  30.4433846  61.9930220  25.1281643  29.6815228  61.4428377  25.3100920
  30.6217170  62.4369240  25.9572482  73.0514097  39.6383166  25.5402207
  73.0470705  40.5281782  25.1875806  73.0623055  39.0742874  24.7669268
   8.5264252  11.9886119  45.5666304   8.7313936  11.9674403  46.5013838
   7.7562139  12.5533778  45.5030441  54.0754938  57.2859573  10.6161618
  55.0174427  57.4544096  10.5919135  53.9273024  56.6525555   9.9139673
  53.5028410  62.8887224  37.9521847  53.0889940  63.5133553  37.3565316
  54.2967272  62.6115561  37.4948502  54.9298143  55.5099058  43.3143997
  55.2757072  56.0948849  42.6403141  55.4146910  54.6933317  43.1946802
  41.0833921  48.1834798   6.1754978  41.2873497  48.2554917   5.2430571
  40.1539507  47.9559998   6.2004984  17.5107914  46.2124872  29.2697787
  18.1710297  46.7851114  29.6601772  17.9396302  45.8443499  28.4972501
  60.5337731  14.6869094  63.3185482  60.8905665  13.9837653  63.8612461
  61.2883870  15.0222499  62.8344679  15.3619152  73.0437899  54.0244341
  15.2538258  73.4762001  54.8715258  15.2487999  72.1125412  54.2147303
  19.7349443  21.9570260  15.1108444  18.8655271  21.7140679  14.7925365
  19.8421087  21.4570479  15.9200180  73.0615560   2.7195365  58.3670187
  72.7090446   2.6224859  57.4823999  72.8511993   3.6208637  58.6111212
  28.5409917  24.9241691   9.7338236  28.7030115  25.8575921   9.8705853
  27.7589788  24.7381501  10.2535189  35.0853576  42.6923852   1.8863667
  35.5135669  42.9692273   1.0762871  35.1138868  41.7360406   1.8576324
  56.6426992  62.0444298  50.1778316  56.6255999  61.7938566  51.1014938
  55.7533455  61.8748426  49.8671532  49.8102274  21.9651370  24.6771896
  49.7806921  22.5900464  25.4016483  48.8951435  21.7263894  24.5293701
   1.6002136  59.8014259  32.6474047   1.0305458  60.4278994  33.0937743
   1.4517933  58.9741421  33.1054568  63.9052725  76.4936638  35.2068186
  64.4508314  77.0935440  34.6981525  64.3758345  75.6605530  35.1797199
  12.6830878  11.9310765  11.1893309  11.9509830  12.2679143  11.7058504
  12.2706403  11.4074903  10.5023277  53.8858414  45.8768082  63.7417793
  54.0735483  44.9743748  63.4836864  53.0169201  46.0532618  63.3811188
  51.0477062  42.6459603   7.9555786  50.5039232  42.0380025   7.4546612
  51.2223272  42.1889787   8.7783278  20.5535275  47.6305723  37.4993372
  20.9518868  48.4282827  37.8474736  20.0564057  47.9245615  36.7360091
  72.4792528  46.3954115  50.4710054  73.3754492  46.6489792  50.2501726
  72.5312614  45.4546976  50.6400585  49.1218231  11.5361030  65.3347063
  48.7466476  12.0449836  66.0533905  48.5057304  10.8151824  65.2045488
  53.1576578   8.0753238  35.1882958  52.3397009   7.7294261  34.8311830
  52.9395620   8.3275134  36.0855484  33.7162294  18.5627036  17.9183186
  33.8334932  19.5054488  18.0354012  33.5920467  18.2248120  18.8052452
  68.6598873  57.4680758  52.4642134  67.7710962  57.4868965  52.8190708
  69.1890526  57.0850134  53.1638432  68.5576200  44.9105883  52.3003626
  67.7194452  44.6906281  52.7069473  68.3796310  45.7073212  51.8005943
  26.8902053   9.9877696  10.0639427  27.5883569  10.4150777   9.5677364
  26.0862960  10.4047732   9.7539890  68.5455942  76.3577795  61.9549131
  68.8567162  77.2630072  61.9545889  68.6288404  76.0755777  61.0440540
  67.7009288  14.5865638  42.5806284  67.6603071  13.6303527  42.5650930
  68.5446445  14.7838695  42.9873800   4.7281796  28.4581399  39.5600748
   4.9328285  29.0941739  40.2454996   5.5586010  28.0133343  39.3904114
  79.7909196  28.1093698   2.3207558  79.0023287  27.6547341   2.6168287
  79.7196301  28.9849191   2.7009714  64.0876532  39.9993205  45.5528688
  63.3715534  39.3655276  45.5945778  64.1457462  40.2344704  44.6268225
  74.7094488  42.6502943  37.3126197  73.9659977  43.2290411  37.1436286
  75.4754972  43.1627560  37.0541978   4.3937872   5.8707149  47.7328873
   4.4142292   4.9694736  47.4110603   4.7941063   5.8241470  48.6011076
  20.9719920  70.5443144  50.6086016  20.2525377  70.9438992  50.1197767
  21.5699220  71.2693739  50.7902575  72.6782465  38.8285255  28.1205010
  72.4618149  37.9626369  28.4663773  72.8607082  38.6772418  27.1931100
  52.5737466  56.1205487   8.5022295  51.8576898  56.4326291   7.9489697
  52.1656169  55.4776578   9.0821970  40.8221817  56.5278435  37.5632119
  41.4385748  56.4145947  38.2867193  40.6776762  55.6419373  37.2307754
  27.8385152  30.7961659   6.1388147  28.2542314  30.8239846   5.2770508
  28.1066074  29.9542670   6.5069998  47.8818464  72.5536299  49.9341440
  48.1293249  71.9605494  50.6435394  48.0488396  72.0539618  49.1349697
  46.7907800  18.2282977  17.4910057  46.2500658  17.6340537  16.9706810
  46.1784257  18.8903337  17.8118790  25.8429231  28.7267690   5.5944670
  25.8701362  28.4813695   6.5192736  26.1659135  29.6276431   5.5761135
  66.3257170  62.7796173  51.4352989  65.7643843  63.0681896  50.7156706
  65.8726501  63.0741119  52.2253847  58.5040665  74.5204544  55.1571703
  57.7477121  73.9737034  55.3698349  58.8618135  74.1339779  54.3578672
  12.9590565  46.1647940  50.3240919  12.4218136  45.8269358  51.0406446
  12.3929554  46.7932796  49.8760319  68.5168791  58.5818768  47.0545673
  68.6370897  59.4389772  46.6457129  69.3022442  58.4585571  47.5876999
   9.6845911   9.9324996  62.7205515  10.5068348   9.7491653  63.1750154
   9.2776440   9.0737350  62.6059151  51.3879059   9.8034007  39.7969031
  51.6640327  10.0027282  40.6914711  51.2704609  10.6599147  39.3860221
  12.2145031  15.6732089  28.8104248  11.5671585  16.3023002  29.1288805
  12.5125740  15.2171046  29.5974207  62.0876074  37.0033741  55.5785084
  61.7627335  36.3566208  56.2049246  61.4000416  37.6683426  55.5424881
  68.9274732   8.7635143  54.7324896  69.2481939   9.6099384  54.4211388
  68.9338152   8.8411815  55.6865120  65.1698818  27.4514585   7.1015060
  65.4218902  27.4673085   6.1782110  65.1248970  26.5209823   7.3215616
  11.8870558  36.3590865  28.9029968  11.3237109  36.7976813  29.5405758
  11.3195219  36.2054305  28.1476677   5.5897576  61.7041302  55.3163671
   5.1602608  62.4183989  55.7870913   5.6597286  62.0191336  54.4151974
  46.6825867  49.6816635  36.0159779  46.4318275  48.7579775  36.0283685
  46.3195801  50.0392818  36.8262696  63.3593647   0.7794959  63.0078602
  63.7493698   0.6291682  63.8689852  64.0363876   0.5087335  62.3877335
  28.9572229  35.4462199   7.8018988  28.0725469  35.8089786   7.8464830
  29.1036691  35.2859454   6.8696440  22.6049699  17.1981101  19.5747936
  22.2904958  16.6858487  20.3197277  23.0404605  16.5586619  19.0111530
  28.1575098  29.6943049  23.0838192  28.9725437  30.1792197  22.9541576
  28.4349336  28.8508325  23.4413422  56.6951895  59.3290901  32.3958039
  57.3904419  58.6711693  32.3967123  57.0089388  60.0082827  31.7987347
  56.6757727  58.3618021  37.0615649  56.9995975  57.7283812  37.7019930
  57.2081709  58.2070160  36.2812924   6.4891432  16.2146384  15.3888249
   5.9605835  15.9494025  16.1414921   7.0397661  15.4540641  15.2028763
  71.2482691  59.7120857  45.6411552  71.2309170  60.6380558  45.8830500
  72.0639324  59.6077728  45.1512098  13.7201307   3.7188346  57.0492029
  13.7534903   4.1198070  57.9177380  14.1382406   4.3591888  56.4735556
  13.7216614  11.5954406  59.0256977  13.6412332  12.5408656  59.1519594
  12.8648661  11.3240440  58.6963463  36.2625112  18.8372283  11.0719383
  37.1259393  18.9258533  11.4754999  35.6496944  19.1084104  11.7554224
  18.5830019   0.6489665  37.6740456  18.8851021   1.3033445  37.0441604
  18.8784597  -0.1863759  37.3119044  65.6708288  71.9315529  31.0320878
  65.9379292  72.4662447  30.2844262  66.1115980  72.3311329  31.7819476
  74.6325866   4.6058662  40.4724121  74.3918935   4.5733173  39.5465374
  74.2903177   5.4453857  40.7794809   0.6369454  27.3864603  60.9283161
   0.0893360  28.1113768  60.6269026   1.0674053  27.7222848  61.7145491
  49.7702875  64.1924577  10.3803146  49.2375888  64.9792676  10.4960764
  49.6201791  63.9332013   9.4712008  44.0349440   5.0641448  62.5028181
  43.7074868   5.6754691  61.8430567  44.9196140   5.3733451  62.6977205
  10.8729996  63.9896779   2.8535688  10.4164376  64.2682176   3.6474169
  11.7994465  63.9998059   3.0940378  11.7605740  76.2409258  46.2018967
  11.0270935  76.4811754  45.6357527  12.1666676  75.4932261  45.7634211
  47.2237768  12.9510550  10.9282673  47.9228344  12.5337033  11.4316261
  46.8929805  13.6405711  11.5039146  40.9063911  61.7673779  30.0060511
  41.0778189  61.4731741  30.9006405  41.6835213  62.2724962  29.7669768
  21.5464773  42.4372106  17.0141495  22.2054090  41.7567830  17.1522224
  20.8354654  41.9920354  16.5531433   7.6642146  25.6981330  10.5203760
   7.8446498  26.0136752   9.6348751   6.9304647  26.2343793  10.8208550
  32.3633176   9.9002278   1.1858690  32.8783900   9.5614922   1.9181192
  31.7042285  10.4605496   1.5955961  42.5366402  66.5146303  12.2768831
  42.9175329  67.3069096  12.6556265  41.9164944  66.2073135  12.9380977
  58.4488716  63.0473428   5.3284252  58.4391155  62.0968251   5.4408920
  57.5294437  63.2834153   5.2053726  80.6857626   9.6488101  28.6986494
  81.2565796  10.4092223  28.8089681  79.9510423   9.8130805  29.2897820
  25.3351011  31.9824605   9.1759193  24.6276750  31.5090375   8.7381399
  26.0412683  31.3408093   9.2523802  64.5041513  72.7309370  61.8905210
  64.2488384  73.4596443  61.3248062  65.2542162  73.0624056  62.3842430
  66.2243795  58.9964771  63.7831402  65.5898666  58.2799101  63.7955999
  66.5829754  58.9834595  62.8957462  66.8852939   6.4053493  12.6944674
  67.5637092   7.0793920  12.7350939  66.9084682   6.0964828  11.7887676
  32.0812366   0.8959586  59.2044020  32.2714756   1.0474021  58.2786036
  31.1685036   0.6078775  59.2173624   3.0731541  46.7540884  65.6108189
   2.8195149  47.1861506  66.4264297   2.2928768  46.2676764  65.3447533
  10.7933805   6.3238151  25.2067637  11.7501400   6.2946899  25.2053094
  10.5768011   7.0518214  25.7892847  74.3976355  70.8054972  59.6696424
  75.0923586  70.5215883  59.0755177  74.8487568  70.9955835  60.4921913
  64.7588539  58.6286020  43.0548906  65.5435133  58.4896421  43.5852003
  64.8392296  57.9987526  42.3386097  18.7260864   6.9565112  43.8818121
  19.6161173   6.7396171  43.6042786  18.6449001   6.5666110  44.7522259
  75.9207153  69.4776535  57.7543974  75.7412338  69.0148926  56.9359446
  76.6409826  70.0709152  57.5411320  53.8548851  73.3791685  25.1354003
  53.5902929  73.9676619  24.4283676  54.2809820  73.9496946  25.7750702
  80.1541615  74.1109800  40.6715155  80.1682568  73.2964420  40.1689625
  79.4926977  73.9638710  41.3475800  30.0853052  23.7194114   3.4177912
  29.4276323  24.0338712   4.0381182  30.8710088  24.2254691   3.6246765
  30.4494045   6.6961486  27.0105910  29.9708031   6.1465175  27.6311350
  29.8066280   6.9091613  26.3340592  59.1894627  74.9047661  32.1177554
  59.6790695  75.7042599  32.3109674  58.2715034  75.1752663  32.1380401
  73.9213610  50.6264400  49.5841646  74.1196299  50.1877642  48.7568283
  74.5029402  50.2110386  50.2208996  12.8115708  54.2666388  22.9636359
  12.6792103  53.7285948  23.7441659  12.5398690  55.1451445  23.2294202
  63.9175002   4.4017513  47.7208996  64.6579734   4.9373348  47.4361563
  64.2547599   3.9030559  48.4650707   5.4075295  13.2958508  61.1687469
   5.4317814  12.5318515  60.5925989   4.6684891  13.8134670  60.8491850
  77.4956179  47.2811747  54.9606848  76.7017078  47.3309803  55.4930925
  77.8646278  46.4209366  55.1608038  15.2488470  74.5887280  51.8528557
  15.6943381  73.9038706  51.3541174  15.0893342  74.1950512  52.7106476
  47.3474455  57.3163748   5.4649788  47.2834301  56.4603996   5.8885789
  46.4536333  57.5118637   5.1837021  80.6040859  36.4095640  55.9315777
  79.9881077  35.8014750  55.5228758  80.0518990  37.1024370  56.2938595
  48.3942938  70.6901121  33.0093908  48.0776405  69.9309301  32.5198984
  49.2874527  70.4565239  33.2622576  41.3204946  16.7089324  29.7774494
  41.5005388  17.6142173  29.5239246  40.9638156  16.3050704  28.9863003
  54.7451067  69.8167849  15.4933798  55.4829550  70.4177618  15.5965459
  55.1507616  68.9651966  15.3306758  40.4485359  28.9644628   6.9705809
  40.5042686  29.6823268   6.3398731  40.6110658  29.3775516   7.8186214
  68.9926863  65.7034159  40.8290386  69.2636728  65.4422331  39.9489331
  68.5431862  66.5390778  40.7031393   4.9355084  14.1646874  42.2468472
   4.2094094  14.2583644  41.6302156   4.6764714  13.4378195  42.8132343
  67.8762150  65.0966358  36.8102431  67.3358440  64.7812700  36.0858250
  67.6900387  66.0343695  36.8573666  24.8519029  33.4219699   3.6825693
  25.4143800  33.5893016   4.4387806  25.0813713  34.1089110   3.0567205
  16.2059456  48.3575869  56.0805893  16.2585121  48.5647917  55.1475620
  16.7662960  47.5888920  56.1871576  75.8972168  73.4548092  51.0595369
  75.2112532  73.9432049  51.5146828  76.5885830  74.0989161  50.9066534
  37.1125078  73.6432981  12.1922314  36.2780499  73.2736015  11.9037211
  36.8984914  74.1211843  12.9935122  72.1428967  57.3780584  63.5167646
  72.6513958  56.7673063  64.0502834  71.4425564  57.6769972  64.0967560
   4.3848989  68.2631800   4.5107878   3.9154909  67.9877923   3.7233532
   4.5887945  67.4462579   4.9660910   5.0514187  19.0302567   8.6831320
   5.0511779  19.8553424   9.1683758   5.9688320  18.8907342   8.4483612
  81.2098789  64.4436932  37.8552270  81.1961842  63.7521410  38.5168934
  80.3351021  64.8302698  37.8946686  64.1147470  71.3420343  24.2020392
  64.1495085  70.3854656  24.2028904  65.0020504  71.6137457  23.9673138
  36.4385269  10.4609020  36.3539147  36.8027447  10.9380920  37.0994735
  35.5217026  10.3154475  36.5873981  62.9818869  62.8915644  32.7764082
  62.3839331  63.5576439  33.1155610  62.5761604  62.5986099  31.9604445
  10.9871052  -0.1335614  37.8162575  10.4375551   0.0011356  38.5883236
  10.4523800   0.1751859  37.0848393  32.3485516  28.5787685  34.8781228
  33.1862114  28.1299216  34.7637153  31.7220829  28.0449397  34.3894529
  69.3356514  68.0926657  25.3213811  69.6726465  68.7785006  25.8978271
  68.7787151  68.5571480  24.6966338  70.8664608  69.2752552  64.1102886
  70.1683617  69.8867655  63.8758755  71.1089897  68.8599634  63.2826757
  62.4797916  74.6459246  11.7361045  61.8362141  74.4287014  11.0616744
  62.3989534  75.5931091  11.8481016  79.3233538  58.3973026  44.4947863
  78.5834122  58.8378811  44.9126482  80.0536251  58.5301781  45.0991726
  58.6457862  17.7986436   1.8875206  57.9150142  17.3082643   2.2640074
  59.0504016  18.2376294   2.6357210  74.2753983  66.3898754  60.9689188
  73.7893629  67.1075964  61.3749695  75.0747967  66.3168097  61.4903212
  22.5752447   2.6107557  25.0732970  22.7865313   3.5370261  25.1899362
  22.1410749   2.3596198  25.8885646   9.8905083  54.2799096  18.5024632
  10.0703903  55.0326066  19.0657795   9.8881813  53.5303502  19.0977753
  65.4430056  75.3930187  45.3236771  65.8622694  74.6837091  44.8365116
  66.0956144  76.0931349  45.3365564  37.3403430  74.0314436  55.4310703
  37.6367497  73.1664610  55.1479149  36.7460942  73.8541651  56.1602306
  29.0198173  33.3041339   9.6353758  28.8710441  34.1378932   9.1893471
  28.5077657  33.3690410  10.4414976  65.2543392  69.0752034  22.9680717
  66.1417617  68.7852387  23.1793392  64.7457542  68.2664304  22.9091919
  76.4289093  67.0046806  46.8657732  76.7328453  66.1305094  46.6214895
  77.0537806  67.2990227  47.5284433  31.3683643  70.4067330  15.7523525
  31.7935695  69.8595338  16.4126671  30.9625806  69.7833543  15.1498783
  75.1567221  69.0549755  22.7635670  75.7898998  68.3471680  22.6438689
  75.6585360  69.7580338  23.1760287  10.7518814  16.7798049  58.9930010
  10.0376461  17.1325118  59.5237541  10.3782413  16.0049827  58.5731459
   2.7560280   4.1917426  58.3622313   2.1060799   4.4235522  57.6988554
   2.2467373   4.0660484  59.1628885  16.5696490  71.0531235   9.5401073
  16.9259107  71.1531258  10.4228926  15.6837523  70.7170391   9.6759939
  71.2826482  18.0716808  32.2537470  70.7930509  18.3772762  31.4901137
  72.0770685  18.6056335  32.2583199  70.8271503  64.3772173  59.4239283
  70.8243465  63.5773659  59.9497223  71.5940666  64.2891121  58.8579702
  80.3025238  14.6448238  59.2211390  79.7383634  13.9693744  59.5976067
  81.0378782  14.1606815  58.8455153   6.6499899  30.7009132   6.7089003
   6.5193794  30.0864799   5.9866470   7.3871229  30.3391177   7.2008055
  76.6161625  33.9520175  25.6234121  76.5677635  34.7016341  25.0301456
  76.3182108  33.2102401  25.0968933  41.2067936  23.9838607  59.7274160
  40.3912781  24.4804866  59.7947168  41.3595245  23.6530692  60.6125593
  38.6169384  19.9924857  23.7318683  39.1203068  19.2222984  23.9958096
  37.8262947  19.6349342  23.3277988  29.7799450  53.6157084  32.5915504
  30.0307995  53.1942081  33.4135222  29.9501187  52.9538584  31.9213057
  30.5610798  11.8712051  49.6598721  31.0781811  12.4378783  49.0874100
  31.0626743  11.8315227  50.4741573  80.4265022  42.8262568  32.4498129
  80.7772732  42.3409462  31.7030454  79.9753332  43.5743904  32.0586944
  54.6319628  72.1216488  48.9139175  55.0794983  72.2366476  49.7522020
  53.7031507  72.2216606  49.1225719  76.5919495  43.7260199  46.7777872
  76.6434336  44.0173388  47.6881266  77.4719095  43.4063721  46.5784693
  23.2056330  14.2099292  19.0005076  24.0660856  14.5457561  19.2516637
  22.9906605  13.5703094  19.6794057  21.0821579   9.7913272  48.6623669
  21.2776897   8.8605792  48.5542011  20.1902626   9.8099429  49.0093660
   7.5039194  20.1272304  61.9874144   7.2584103  19.2822463  61.6106558
   6.7111824  20.4320438  62.4288845  73.8817120  70.4973030  28.5245657
  74.5748568  71.1203146  28.7428212  73.0745697  70.9294987  28.8037825
  48.9547100  20.1236396   6.3112629  48.4613218  19.3039470   6.3412893
  48.3321991  20.7655148   5.9696281  16.0826832  68.1031132  42.9845142
  15.6452996  67.3568439  42.5746202  16.3290554  68.6681461  42.2522116
  33.9917324   0.7529599  17.6894045  34.6235607   0.5199487  18.3696520
  33.8623569   1.6954334  17.7953780  72.5310840  59.8417191  23.6317719
  72.7703037  60.7672124  23.6816204  71.5805568  59.8457627  23.5190285
  60.3744459  50.4175472  28.8807106  60.9605885  51.0298491  29.3254089
  60.9594297  49.8346615  28.3966923  71.2166548  66.6600561  46.3145399
  70.5436134  66.0206842  46.5478706  72.0179367  66.3206673  46.7132807
  70.5506325  65.6176996  49.4535780  70.3324175  65.0183725  48.7398386
  69.8361540  65.5122614  50.0817728  45.1023094  13.0239303  44.0707350
  44.3382744  13.0974490  44.6426392  45.2850083  12.0850188  44.0346384
  34.7220029  33.7782102   1.0000599  34.2419138  33.6657481   0.1796377
  34.2364492  34.4556193   1.4707840  69.9659395  44.1237164  56.8392324
  70.3152132  43.7833834  56.0155725  70.5681658  43.7973070  57.5078249
  73.8999271  67.2462130  51.9714689  73.2888269  66.9236565  52.6338482
  73.6577702  66.7766476  51.1732817  19.9725968  60.2428961  55.5484962
  20.4336602  59.9033976  54.7814274  20.0534016  61.1938477  55.4750633
  17.5216721  14.6758277  32.3665190  16.7054365  14.9833114  32.7607846
  18.1292627  14.5997436  33.1022334   2.7350956  59.2452955  47.7072191
   3.6103779  58.8785219  47.5823641   2.8478390  60.1859570  47.5705290
  39.9996448  74.8055124  43.3656788  40.7548189  74.4927216  43.8637781
  39.2413068  74.5083809  43.8685369  36.8496742  62.9658704  22.9841602
  36.7639579  63.7616925  23.5090912  37.7920713  62.8016381  22.9502857
  81.2075806  33.5520530  35.9664655  81.6971302  33.0805278  36.6404343
  80.6467152  32.8865147  35.5680680  11.6131399   4.8044784  10.3751016
  11.9793747   4.6180064  11.2395859  12.3777340   4.9278171   9.8125941
  35.1323746   2.5837762  38.5751653  35.4283283   3.4565360  38.3164692
  35.7519195   1.9866903  38.1557846   1.0333290  61.7305951  19.3904579
   1.1778512  62.3215394  18.6514557   1.9055142  61.5902047  19.7589863
  15.6093691  26.5147121  65.0498724  15.0268839  27.1079166  64.5754814
  15.9730242  27.0495898  65.7554817  44.2629385  76.0095406  58.3868980
  43.9762402  75.3566265  57.7483559  45.0586605  75.6384325  58.7681246
  26.6732158   8.0827384   0.4542482  27.2910156   7.3717170   0.2839458
  26.0337486   8.0194764  -0.2551949  73.4786836  16.4239413  45.5105591
  72.8604452  17.0655257  45.1607180  72.9722969  15.9304435  46.1557436
  75.4890251  45.7667208  42.4503899  76.0858440  45.5157137  41.7453861
  76.0165596  45.6991053  43.2462358  34.0493002  15.2741294  20.1566113
  33.7639703  15.7056098  19.3512333  33.3085861  15.3702979  20.7552231
  35.9164657  61.2447839   6.1923636  35.7896318  61.2313371   7.1410263
  36.5334835  61.9612412   6.0433472  80.9501839  72.0357132  29.3091607
  81.8989372  71.9133759  29.2754173  80.6287384  71.6403055  28.4988761
  59.1852417   6.9908195  29.2384899  59.0764560   6.8727784  30.1821316
  59.8709526   6.3682656  28.9967144  35.5209865  27.4833446   8.3732212
  35.0334110  27.1599202   7.6156605  36.3646116  27.0336919   8.3248508
  60.4201412  60.7673025  36.7963362  60.9964800  60.2020931  36.2819409
  59.7335958  61.0306025  36.1835027  68.0110645  76.1762810  26.6905379
  68.1819725  76.3025427  25.7572198  67.6896572  77.0259190  26.9922662
  69.2118682  19.7486596  30.6555641  69.6350898  19.7745566  29.7974003
  69.1032543  20.6685452  30.8969105   4.3629605  47.9607487  12.4931324
   3.9155728  48.2717085  13.2801378   3.6574608  47.6662827  11.9171166
  15.4430952  18.4288888  28.9860046  15.2026214  17.5318437  29.2177761
  16.3695039  18.4958844  29.2173279  73.3816091  37.4114520  60.7573986
  72.4510471  37.4967487  60.9647894  73.5982124  38.2191570  60.2916479
  12.4950169  21.5028865  44.4482565  12.7974413  22.1993072  43.8653660
  11.7521046  21.8863971  44.9143362  39.3514194   3.7981944  18.3623207
  39.6854677   4.6577649  18.1058491  40.1011409   3.2110934  18.2650555
  30.1358628  57.8080511  26.3535762  29.4074678  58.4259129  26.4161873
  30.2896190  57.7135181  25.4135466  70.5042068  12.4808700  58.0621433
  70.9382860  12.6616008  58.8958979  69.5732776  12.4390514  58.2809067
  53.9391269  32.6049762   2.9131735  53.2274284  33.2295566   3.0532444
  53.7095298  31.8536572   3.4600199  15.8876512  21.5317828  54.3921137
  16.4092348  21.7929847  53.6331987  15.0239895  21.9119270  54.2314625
  42.1503878  57.5287485  34.9545836  41.8549109  57.4328327  35.8599710
  42.5529766  58.3966541  34.9246955  38.8159933  50.9114270   5.1587999
  38.3688345  50.1535039   5.5354059  38.9783754  50.6655793   4.2480743
  13.9066464  36.9742680  38.7055159  13.9378792  37.8902912  38.4295487
  14.3976551  36.5042114  38.0315828   8.3750294   3.9921672  19.3300390
   8.0967567   4.7120292  19.8962414   7.6706551   3.9067371  18.6875510
  80.5983734  48.5942698  33.4986782  79.7112799  48.8215113  33.7773705
  80.8987331  49.3594265  33.0082250  50.9255457  72.6602459  45.1084518
  50.5066442  72.1516180  45.8027506  50.2129126  72.8775549  44.5074797
  26.3311432   1.2081105  34.8476434  26.4456890   0.4631192  35.4376411
  25.3919456   1.3912112  34.8726082  51.8750429  76.3120985  48.7267256
  51.7385626  76.3797951  49.6717215  51.2921190  75.6048584  48.4505939
  77.3740101  63.0138683  61.6220045  77.1465302  62.0973063  61.4658022
  76.5852642  63.3938026  62.0089960  18.0927704  32.4362762  56.5810061
  17.3860405  32.9971130  56.2612724  17.8091095  32.1683509  57.4550629
  63.5586643  67.7359247  25.6710267  62.8794909  68.3701372  25.4413986
  64.2967796  68.2707071  25.9633136  81.0237217  73.3785963  51.7321968
  80.3717136  73.8724899  51.2350178  81.4025402  72.7730513  51.0949850
  36.9008770  52.7296548   5.9061945  37.4540128  53.4483914   6.2122763
  37.4599208  52.2359471   5.3062284  -0.1522678  69.4343758  43.8624477
  -0.4625457  68.5333443  43.9524412   0.7272202  69.4236755  44.2400980
  56.2438716  32.4982886   6.2181652  55.4257431  32.9339557   5.9792221
  55.9763374  31.6225200   6.4968861  18.4448773  30.5717468  19.8640275
  18.5730130  31.0892367  20.6590223  19.1504341  30.8506417  19.2803860
  57.8304768  67.8478098  59.7616768  58.5870981  67.2630358  59.8039913
  57.2280645  67.4165630  59.1555738  57.6951885  73.7634325  40.2972031
  58.1225586  74.0141201  41.1161900  56.7838287  73.6029625  40.5419636
   8.0924175  33.5160453  38.4401870   7.4968956  33.9392764  37.8217554
   7.6269768  33.5410697  39.2762303  26.0204266   4.9457938  30.3661704
  26.5104721   5.5222041  30.9525466  25.8264969   4.1731078  30.8968186
  18.2132107  37.1971869  40.5163145  18.1186348  36.2781405  40.2660227
  18.2515866  37.6692295  39.6844888   7.2120196  54.1161585  53.6717319
   7.7634960  54.8804140  53.8391256   7.4515176  53.8369036  52.7880526
  69.4423199  59.6352053  61.5903425  69.2455196  60.1768684  62.3546076
  68.5894299  59.3122816  61.2996101  29.0257881   5.3052909  28.7591290
  28.8531921   5.3439624  29.6998453  28.9805267   4.3733508  28.5454202
  29.9474706  29.4548612   7.5242126  29.9150123  30.2606540   7.0085753
  29.6997108  29.7260051   8.4081400  18.5262497  73.1882831  29.8336434
  19.0148171  73.0580278  29.0208888  19.1991528  73.3568235  30.4932094
  74.4076816  64.8948739   5.3449286  74.4987814  63.9798591   5.6107843
  75.2566139  65.2884958   5.5464304   4.6364805  17.7271438  51.9026470
   4.9661213  16.8584812  52.1328545   5.0190949  18.3100533  52.5584316
  11.2591445  26.4075208  37.7183008  11.5793169  27.2227621  37.3321629
  12.0188713  25.8252716  37.7126813  37.4221446  70.7908242  28.6513948
  36.9850280  70.9069132  27.8077793  38.1781258  71.3766377  28.6120582
  46.8765648  75.4086868  44.3768930  46.7335548  74.9288695  45.1927090
  47.6374449  75.9616424  44.5544720  38.0536413  42.0414066  17.3702204
  37.9601383  41.1705494  16.9840801  37.4677300  42.0319748  18.1270897
  67.8406503  71.7940899  26.0775566  67.1140959  72.3970576  25.9201360
  68.0890455  71.9510137  26.9885492  79.9470498  58.6793225  61.0813951
  79.0080502  58.7952655  61.2265348  80.3557565  59.3855851  61.5817785
  19.9451995   1.9094990   7.5407708  20.8867598   1.7378597   7.5561976
  19.7583330   2.2969721   8.3958596  18.1169947  57.5190573  39.7736192
  18.0138119  56.6476600  39.3911910  17.2884138  57.9613118  39.5889473
   9.7957371  39.0981708   5.8247698  10.6489323  39.2612850   6.2268627
   9.8512552  39.5181578   4.9664200  54.4942570  23.8931966  50.7548237
  54.1116142  24.3689418  51.4920378  55.1690531  24.4808316  50.4148674
   7.5427183  68.9794301   6.6813934   7.7229055  69.2088347   5.7697254
   7.0613130  69.7311740   7.0268822  10.8430064  11.6389227  43.7067747
  11.0226631  12.3514080  43.0933237  10.3075457  12.0410573  44.3907309
  38.4149480  27.3990631  63.9086819  39.0532303  27.9157686  64.4004583
  37.6049948  27.4759507  64.4129562  67.2983923  48.6602299  39.3930221
  68.1633689  48.7626808  39.7899485  66.7727866  49.3603175  39.7801256
  46.4705038   7.5926584  24.8302150  46.0688877   6.7622054  24.5747042
  46.3182545   8.1720543  24.0836549  76.9178192  52.8416381  17.2922886
  76.5421001  52.0246098  16.9643677  76.1815635  53.4530173  17.3117149
  53.2367086   3.3183283  48.7822819  53.2768726   2.5609124  49.3661833
  52.3316002   3.6229816  48.8470888  23.8994797  71.0340165  43.0470610
  24.4101818  70.2248173  43.0223799  24.1056689  71.4215182  43.8976860
  72.5495100   8.3015847  45.7671833  73.4488624   8.4123546  45.4587603
  72.1839529   9.1862178  45.7622814  10.0363968  51.9077740  20.1869953
  10.7355974  51.7716513  20.8263767  10.2427528  51.3032935  19.4740761
  65.5444243  52.0728557  32.9732108  65.7276704  52.3655288  32.0804644
  66.2571325  51.4675515  33.1778669  64.8142149  14.6236699  44.1015244
  64.4211771  15.4815858  43.9411116  64.0727927  14.0562289  44.3125677
  65.9291379   7.5352500   7.5349939  65.8999006   7.2798512   6.6129578
  65.2100722   8.1593154   7.6335800   0.1837585  29.5733080   5.2139938
   0.8319519  29.9364594   5.8174837  -0.2104618  28.8458512   5.6952704
  43.8897685  69.4122527   5.6472624  43.1765429  69.9498818   5.9914911
  44.2845492  69.0131376   6.4225615   5.2077878   7.3830515  39.1766286
   5.0991207   8.2928967  38.8998532   5.9240949   7.0518404  38.6349320
  80.8047893  40.9480994  49.4099331  80.4529240  41.2135690  48.5602570
  81.0144522  40.0202816  49.3030500  50.1207113   7.5733483   4.5410785
  50.7927799   6.9543231   4.2558408  50.5190086   8.4344840   4.4144550
  50.3893948   4.8317608  52.3382425  50.4375744   4.1134214  52.9690361
  49.5107746   5.1935351  52.4538898  11.7928410  28.2916069  18.2306504
  12.5559795  27.7488208  18.0325782  12.0283687  29.1621709  17.9099035
   6.2683471  71.7421230  54.1869354   5.9442480  71.6937446  55.0862980
   5.5602392  72.1630852  53.6994886  18.8922318  53.1232302  29.2055058
  19.5908411  53.4409278  28.6334491  18.1220253  53.6292212  28.9466858
   9.4876647  30.2998304  48.6405134   9.1231143  30.8469200  49.3362331
  10.2736783  29.9134517  49.0266800  76.5860891  10.6579220  35.7197785
  76.8344164  11.5646839  35.5399203  76.8620253  10.5089021  36.6241503
  66.8249740  59.0927665  40.4667997  66.1019136  59.6117156  40.1145124
  66.8092920  58.2829111  39.9567795  18.2370242  60.9886389  19.8022974
  18.7330731  61.6812401  20.2387261  17.3205050  61.2325709  19.9315977
  15.1259828  20.4187441  41.2900162  14.5889771  19.7877228  40.8107805
  14.8226154  21.2732029  40.9832573  70.7066147  35.5462319   1.5472210
  70.0458042  35.9320509   2.1222961  70.5804721  35.9877857   0.7073725
  71.9422855  51.4978497  34.7039270  71.9591870  51.3229530  33.7629914
  71.6435744  50.6767576  35.0948358   1.7586251   6.1584938  31.0590959
   0.8533221   6.2964684  31.3377023   1.8889664   6.7866200  30.3486729
  44.6037769   1.9265333  35.5211973  44.2274332   1.9154201  34.6411538
  44.1624069   2.6529995  35.9612799  35.6279445   3.3127636  20.2689290
  36.4355803   3.3167440  20.7826781  35.6108594   4.1697565  19.8428965
   4.2119153  50.4620307  32.4909544   4.3887194  49.6243565  32.9190588
   4.3171891  50.2806371  31.5570140  10.9101033  59.8533285  59.8553287
  11.8227315  59.7453869  60.1230871  10.5790544  58.9595402  59.7671264
   2.3621397  12.6802063  35.2201724   1.7320694  12.1523988  34.7295976
   2.8518587  13.1544828  34.5482588  16.2596520  62.0051723  63.2178688
  15.3433951  62.2354000  63.3718061  16.2290152  61.3594418  62.5119495
  10.0817760  72.6475947  17.3973918  11.0343536  72.7079435  17.3253703
   9.8772105  71.7529597  17.1253383   8.4996927   7.2004551  19.1899693
   8.9002901   7.4008977  18.3440518   8.3792412   8.0539674  19.6061897
  43.9308504  41.0782544   2.7870930  44.5930509  40.6560857   2.2398317
  43.6846964  41.8652714   2.3010433  34.2961081  72.3768990  19.5117426
  34.0555580  71.4511006  19.4761872  33.4679850  72.8439658  19.4008791
  74.0161961  37.5392842  11.2308192  73.2841068  37.8705049  10.7106543
  73.6815476  36.7371082  11.6317594  78.9680221  44.9820512  46.5515709
  79.1010239  44.9774139  47.4994755  79.7235443  44.5100467  46.2013912
   6.5549596  56.6369550  55.4409313   6.2820633  57.4484401  55.8690119
   5.7726129  56.3346880  54.9796295  22.0528769   7.3081189  58.3711100
  22.9814959   7.1499705  58.2011461  21.7078829   7.6279509  57.5374937
  25.1066732   3.0304554  32.7787471  25.3117704   3.5405362  33.5623193
  24.1505194   3.0339089  32.7341866  59.6772083  52.4419396  64.9457216
  59.1488193  52.4985807  65.7418537  59.4660755  51.5834825  64.5787001
  68.7875678  71.0371589  41.9068384  69.5415439  71.0332238  41.3171482
  68.5752668  71.9638764  42.0179892  67.9611470  74.8724665  11.5753472
  67.8019132  74.5539366  10.6868577  68.7112143  75.4606967  11.4880705
  34.2462873  27.5117636  44.7500372  33.5520053  27.6181269  45.4003382
  35.0310969  27.3263240  45.2657080   9.2085513  68.5865997  30.8226085
   8.7235721  69.1912793  31.3842058   9.8615869  69.1350078  30.3878403
  29.5047474   0.7921857  39.7972250  29.5653343   1.1673614  38.9187026
  28.5678649   0.7917719  39.9933982  39.6781929  75.3457308  28.5130143
  38.9218577  75.7055729  28.9763713  40.0198611  76.0813191  28.0046797
  20.3364325  53.4738541   7.4741983  19.4363928  53.3430815   7.7726281
  20.2586293  54.0785980   6.7363232  47.9804420   4.7479761  46.5943193
  47.3400688   4.0901193  46.8652010  47.4739408   5.3788990  46.0828257
  48.9960814  28.3963418  37.2367096  49.2381811  28.3364987  36.3125658
  49.7584343  28.7923622  37.6588607  17.9408606  64.1753321  23.0432892
  17.0098647  64.3300991  22.8835249  18.1111630  63.3173006  22.6546907
  64.1786758  37.5182549   9.5114363  65.0421397  37.7960307   9.8172176
  63.9033739  36.8536098  10.1428497  29.3568921  24.0377450  37.8631449
  28.6694002  23.4656858  37.5220680  30.1231956  23.4697795  37.9433179
   6.5873321  75.1745649  53.0213404   6.0297354  75.9371707  52.8672314
   6.8468078  75.2492397  53.9396715   7.9507812  56.4447396  33.4622955
   7.7786167  55.7711475  34.1202188   8.8075097  56.2147992  33.1026077
  11.7711949  13.2433248  60.9025431  11.8123925  12.9213524  61.8030262
  12.5567210  13.7814236  60.8044052  10.9569597  11.8212044  40.1847219
  11.8105483  11.4005363  40.2879477  10.3457081  11.0952497  40.0598574
  36.2703323   6.6315961  39.2657471  36.0052443   6.1163783  38.5038352
  35.6076550   7.3190993  39.3323088  43.6831999  23.6716509  29.4232941
  43.0570507  23.5203242  30.1312995  44.3935680  24.1651845  29.8332119
  43.1961012  13.0043042  18.5431302  42.7192116  12.1752918  18.5824597
  44.0444326  12.8117943  18.9425111   6.5198096  63.5149174  41.4540195
   5.6958874  63.5067992  41.9411707   7.0041188  64.2575138  41.8148899
  44.1230726  12.1044075  37.9128838  43.4663105  12.1660936  37.2192788
  44.1703892  12.9882908  38.2772255  53.9695862  66.3835495  37.4267364
  54.5602381  67.0329755  37.0451498  54.0472827  66.5150790  38.3716655
  32.6122475  12.7543080  19.7491181  31.8768144  13.3645964  19.6950984
  33.3864903  13.2991695  19.6080375  67.1743669  53.0761998  37.2437882
  67.7737906  52.3348372  37.3292470  67.6797571  53.8293379  37.5497174
  11.9359684   5.1469415  43.7041473  12.7458286   4.8120680  43.3191586
  11.7422926   5.9392035  43.2031107  49.4771223  61.6672986  28.8472891
  48.9324560  62.3688870  29.2041421  49.6662604  61.9434827  27.9505277
  10.8300980  71.8482949  41.4629936  10.6595000  71.1374902  40.8450222
  10.4463228  72.6219039  41.0501051   5.0906396  35.8956909  47.4858618
   4.5602357  35.3168678  48.0334663   5.7493335  36.2521124  48.0819511
  45.8415508   7.5492907  27.4195027  46.6505384   7.9620326  27.7218628
  46.0055637   7.3471475  26.4983797  46.8255138   7.4100870  45.8242273
  46.0406256   6.8881255  45.9907818  47.0336199   7.2430515  44.9049759
   5.8676829   9.9031310  18.7527931   4.9462571   9.9618630  18.5002983
   5.8483066   9.6045260  19.6620167  28.7866783  11.4769197  18.1861413
  29.5688081  11.7208517  17.6911652  28.1048727  12.0653796  17.8619719
   3.9390334  40.8500951  57.2612762   2.9865607  40.8854311  57.1730852
   4.2497786  41.6417473  56.8220091  17.6740026  12.1417487  27.9893804
  18.3046639  12.8516102  27.8685713  16.9713032  12.5315893  28.5094452
  16.2022614  21.1048245  59.0352011  16.8460870  21.7720556  59.2729425
  15.3735769  21.5806603  58.9795685   0.0061210  60.7540577  30.2247071
  -0.3777973  59.9009590  30.4273391   0.9240874  60.6710177  30.4829264
  47.0188332  11.1777949  61.2319660  47.3612499  11.2001336  60.3383827
  46.5974808  10.3214860  61.3056612  64.9173659  20.1343870  42.9133177
  65.5923945  19.8176801  42.3130989  64.1342622  20.2197361  42.3695421
  40.0073242  26.5033078  57.2554588  40.2262592  27.3758292  56.9283485
  39.2618084  26.2276649  56.7221117  18.5414002  35.9089799  12.6002348
  19.2515890  36.4935882  12.3354757  18.7671063  35.6468264  13.4927357
   7.4412489  17.5761473   2.5107700   6.5874499  17.8092277   2.1461725
   8.0149180  17.5011015   1.7482057  66.2253537  49.6291797  36.6980362
  66.6384973  48.9155119  36.2120080  66.7566433  49.7192185  37.4891472
  18.5562241  43.8884068  37.9543352  17.8712904  43.2229280  38.0194473
  18.1697083  44.5779085  37.4145007  17.1126199   5.4694849  56.5362453
  17.9310656   5.8453643  56.8604279  16.9388282   4.7327155  57.1220779
  76.8511607  71.4284586  52.8441572  76.3434269  72.0572289  52.3312378
  76.5620424  70.5724823  52.5280142  76.6535809  67.3372166  38.7586164
  75.7220294  67.3600708  38.5397077  77.0173170  66.6607027  38.1874275
  66.2497846  53.1494508   9.5532978  65.8944146  52.7957294   8.7379301
  67.0063535  52.5953362   9.7451151  47.5746806  65.6454246  29.7715211
  48.1718816  65.0900226  30.2726316  47.2627475  66.2930661  30.4035735
  23.7745444  36.4898446   4.8618114  24.0564323  36.2801532   5.7522047
  22.9324771  36.0448740   4.7661245  41.5173960  13.5354495  15.2474570
  40.7868433  13.5309041  14.6289873  41.2020493  13.0266309  15.9943795
  44.0009785  15.5965853  29.2743158  43.5750818  15.2249002  30.0467753
  43.7978983  16.5310991  29.3152142  63.6891248  66.4041858  22.2471094
  63.1718328  66.0217791  21.5383053  63.3571418  65.9831004  23.0400205
  11.0279558  50.7833383   0.6339157  10.8560131  49.9367926   0.2215708
  11.5868137  51.2451015   0.0088633  80.9974415  18.5798013  25.7526827
  81.4573874  19.1916955  25.1779938  80.1133246  18.9391148  25.8265948
  56.9839382  14.6199012  39.9850249  57.1572495  14.9061108  39.0882087
  56.5169764  13.7902606  39.8856521  80.9602116   4.3172038  27.2603106
  80.1437299   4.7818360  27.0767188  81.0086517   3.6416382  26.5839267
  44.3045282   1.6583338  28.4020495  43.5615683   2.0315953  27.9277945
  43.9065504   1.0921007  29.0632796  23.5300636  24.1761589  49.5570612
  22.7465606  24.5920181  49.1973209  24.2360091  24.4472575  48.9702225
  27.6936054  15.7053411  26.2056422  28.3673501  16.2488568  26.6141629
  27.0587778  15.5455673  26.9039965  48.6184883  37.3061180  59.7080374
  48.3566904  38.2147861  59.5596552  48.2949924  36.8352008  58.9400387
   1.5907462  54.5899122  10.5509126   0.7788118  54.2991703  10.9661984
   1.5720089  55.5436604  10.6299412  78.7677908  24.2225313  43.7883854
  78.1393957  23.6731362  44.2569113  79.2868900  23.6058569  43.2721710
  76.7032538  56.6371734  61.6403374  76.9891463  55.9205837  61.0737711
  76.8659125  57.4282355  61.1265331  72.3416416  33.0311052   4.5066107
  71.7855779  32.4185435   4.0251625  72.6943628  33.6137758   3.8340700
  52.8361940   7.1662313  31.3708115  52.7968884   7.4456042  30.4561329
  52.1058941   7.6200581  31.7914534  29.6928668  19.7955048  14.6341026
  30.0811577  20.3800488  13.9831269  29.7257352  18.9293063  14.2280829
  54.2944161  47.8213260   9.4020689  54.3495862  47.2445897  10.1640165
  54.4772021  47.2504244   8.6558140  18.0999959  18.6641431  30.0278902
  18.1947255  19.5097792  29.5895314  18.9977527  18.3541012  30.1467943
  22.4443913  27.9703188  49.7986078  22.8400373  27.5857639  49.0164232
  21.6295958  28.3636761  49.4861794  12.4004849  61.2088614  31.0878396
  12.7621444  61.9661157  31.5482736  11.4646943  61.3968413  31.0157943
  26.3089252  20.2428913  59.5610571  26.2248921  21.0269451  59.0184450
  27.0854211  19.7983444  59.2209625  52.1485519  22.6538420  36.6000366
  51.3676405  23.1950951  36.7160296  52.0986462  22.0073652  37.3041749
  14.5527695  59.3783520  13.5208118  13.9076136  58.6898253  13.6818779
  15.2299116  59.2313192  14.1811836  69.0461983  72.2941472  28.7503433
  69.1198637  73.2411360  28.6319470  68.2874848  72.1826922  29.3231988
  41.5548563  34.0215516  61.8017244  42.3508930  34.4939375  62.0454550
  41.4444113  33.3666801  62.4910545  48.5137892   2.4877661  65.5235291
  49.0432930   1.7018281  65.6582785  49.0931749   3.2109475  65.7634258
  38.4443903  33.0695534   5.8944005  37.7307558  33.7072849   5.8784539
  38.1008053  32.3384166   6.4078391  47.7422857  21.6183019  63.5744858
  46.8581486  21.2825036  63.4269238  47.6923227  22.0600796  64.4221687
  70.6281853  10.0490797  42.9230261  70.0012112   9.5697999  42.3813343
  70.4655457   9.7349358  43.8124561  16.4289959  68.1357550  37.2091436
  17.1810349  68.1466441  36.6170716  15.6725319  68.0235963  36.6334534
  78.2510068  72.8430449  44.8285198  78.1729891  72.4210160  43.9729309
  77.3558762  73.0975588  45.0525570  14.3408692  10.4691601  61.4937449
  15.2776933  10.2780747  61.4481449  14.1543770  10.9474444  60.6858492
  34.9850059  12.4760139  44.2348623  34.1200447  12.0832098  44.1174746
  34.9756956  13.2488966  43.6702394   2.1697042  46.1075155  16.3375176
   2.6125000  45.7201050  15.5824841   2.0307682  47.0218120  16.0905540
  74.2312553  76.2161586  47.3532963  74.9749329  75.9918519  47.9126310
  73.6278345  75.4794690  47.4502754  49.4173717  17.5067198  24.0921760
  49.6424866  16.7509449  23.5496283  50.2186680  18.0296433  24.1187787
   8.8234586  38.2414961  52.5091839   8.8677460  38.7504578  51.6997242
   9.5736724  37.6489782  52.4609041  41.0808277   6.9863886  51.4562845
  41.9167233   7.4476117  51.3871193  41.1271334   6.5314949  52.2972107
  39.0890408   8.2551527  39.8550701  38.9727068   9.1784298  39.6308875
  38.2279253   7.8631294  39.7100496   6.3263059   5.7084131  64.3182516
   6.9758230   5.9115833  64.9913645   6.6232604   4.8802939  63.9410686
  49.4727867   2.2539573   1.4139736  50.2790033   2.7654843   1.4817226
  48.9853950   2.4686103   2.2093428  75.7015228   5.0532484  59.8993921
  75.4300797   5.1962638  58.9927006  75.2655137   4.2402104  60.1545334
  40.9473658   4.8446977  56.4175558  40.4732132   5.6569839  56.5953302
  41.0978079   4.4611794  57.2815657  60.3282930  74.4487589   9.7853220
  59.9333294  75.1111226  10.3523397  60.3523155  74.8575865   8.9201546
  60.0032322  64.4548891   9.9026239  60.4739801  64.7023270   9.1067589
  59.1235081  64.8121331   9.7814072  39.0780115   8.7877810  53.0908537
  38.6571860   8.0086780  53.4543562  39.7869062   8.9848077  53.7031269
   7.2945935  48.5306025  26.3024640   7.4159068  47.9152632  25.5793643
   6.9397742  49.3180704  25.8898759   5.9102853  59.0425461  64.9858475
   5.3966316  58.2736414  65.2331877   5.7228001  59.6858435  65.6694031
   3.9856997   6.3457936  65.3185844   4.8660859   6.1103839  65.0257826
   3.7245435   7.0623893  64.7402096  16.4305222   6.3564646  48.9939165
  15.6765842   5.7861954  48.8435745  16.8553305   5.9921354  49.7704697
  69.7264196  61.9320112  40.3647470  70.2746751  62.4938624  39.8170519
  69.5973184  61.1405175  39.8421550  56.3849974  36.8439794  58.5747623
  56.4073753  36.5468073  57.6651335  55.5302095  36.5598917  58.8985825
  54.5979166  23.2200432  35.2438831  54.5560169  22.7825975  34.3935204
  53.7614298  23.0135965  35.6609011  78.6009026   6.4774150  48.3894348
  78.8039398   7.2989130  47.9420567  79.3334055   6.3450146  48.9912128
  23.8965082  20.6426787   8.3972883  23.0772805  20.3148842   8.7682950
  23.8850570  21.5815139   8.5835451  58.8324771  70.4132385  58.9831453
  59.2804585  70.5863566  58.1551504  58.2786570  69.6539183  58.8016331
  33.1740673  61.8504660  66.3397312  32.2549494  61.7275303  66.5771008
  33.3421477  61.1800640  65.6775093  29.3432903  25.0583982  35.4394412
  28.4413695  24.8549366  35.1917005  29.4032454  24.7996688  36.3590598
  39.9314141  19.5513260  26.2245083  39.8394871  20.2572608  25.5846357
  40.0576925  18.7635875  25.6955910  73.8027859  22.2662163   6.7380404
  73.2214260  22.9428673   7.0850265  74.3543243  22.7258873   6.1050016
  30.3043151   7.8108305  36.0871410  30.7662797   7.7201855  35.2537131
  30.2299237   8.7560958  36.2181783  50.7786274  15.5271327  27.2341204
  51.1569595  15.6269777  28.1076932  50.0731564  16.1733449  27.2033477
  71.4226055  23.8713002  43.3094692  71.1841202  24.7603822  43.5719299
  70.8672857  23.3059835  43.8463736  35.7078052  45.2967453  30.0965238
  35.8273911  45.9735012  29.4302416  35.1271439  45.6974745  30.7434249
  34.0565419  24.9812222  47.5479078  33.3623052  25.4065776  47.0445776
  33.8443160  25.1760054  48.4607315  37.4904680  24.6686578  34.2031837
  37.3948288  25.4289246  33.6295295  36.5969658  24.3487215  34.3277836
   3.3938137  14.4038045  23.6370611   3.1591979  13.5174716  23.3621073
   2.7507377  14.9665010  23.2057166  19.4436510  42.6701300   1.6910733
  18.7020214  43.2305997   1.4628409  19.9670418  42.6277392   0.8907606
  62.9718073  65.4075616  27.8433847  62.1799721  64.8703759  27.8176999
  62.6638188  66.2967186  27.6679564  19.0865620  75.2094280  38.3178854
  19.5251711  75.8116068  37.7168560  18.7944802  74.4868352  37.7622056
  57.0279447  48.1360600  13.9712322  56.4677087  48.3822594  13.2351912
  56.5127484  48.3543418  14.7478569  68.7079144  22.1566653  22.3486710
  68.0844402  22.8818083  22.3076797  69.0608835  22.1942401  23.2376218
  68.9910040  48.5024984  64.6216800  69.2753468  48.4701760  63.7082594
  68.7090216  47.6087673  64.8165191  39.7543168  20.8046842  59.6732903
  40.1639891  19.9816668  59.4067478  39.6084666  20.7059383  60.6141472
  39.9023700  25.5271459  49.1275787  39.5873237  24.9590373  49.8305941
  40.4543304  26.1720300  49.5699549  42.3961361  50.5382722  11.6550732
  42.4274500  50.0196522  10.8511531  43.2829245  50.8856886  11.7506671
  65.1411488  66.2473219  35.3342032  65.1715424  67.1973526  35.4471183
  64.5535185  65.9426229  36.0256386  68.4629967  71.8492880  22.1918297
  68.4585990  71.4748602  21.3109112  69.2907943  72.3269533  22.2449207
  42.3775053  14.8811412  22.4639654  43.1412601  14.3143082  22.3562002
  41.6880655  14.4531608  21.9562888  74.2032146   3.2564500  17.1654403
  74.2026949   2.9891399  16.2463236  74.3946266   4.1940257  17.1420896
  39.9863935  24.3159366  20.3146648  39.3488479  23.6264873  20.5002069
  40.6322479  23.8979530  19.7451091  62.4353282  53.5414002   7.1807993
  62.7082531  53.6549030   8.0912197  62.1693651  54.4168458   6.8995655
  73.5436583  11.4654231  43.5708380  73.7131071  12.3036957  43.1409311
  72.9517508  11.0060716  42.9751253  53.3329808  73.5686698  44.1163158
  53.9206869  73.7471645  44.8504639  52.5021415  73.3297478  44.5272350
  66.7249966   9.3583155  50.2786636  66.0353470   9.9520779  50.5754185
  66.2583494   8.6586761  49.8215199  53.9898062   8.6305606  45.5434418
  53.0977058   8.9334983  45.3742838  53.9094400   7.6798129  45.6199360
  18.9532006   6.2227112  46.4472246  18.8124502   6.8553895  47.1515942
  18.1690097   5.6739300  46.4579630  75.4064633  59.6580308  39.3323946
  75.1204302  59.1087561  38.6025214  74.6327927  59.7367018  39.8904967
  23.6399317  23.8438511  54.1613150  23.0271935  23.5009503  53.5107756
  24.4055343  24.1101718  53.6522388  73.4214203  44.7862540   7.9408539
  73.6096279  43.8537172   8.0466068  72.4814121  44.8610286   8.1052673
  68.4786272  25.5542183  26.2171388  67.6932573  25.1012230  25.9101772
  68.3085728  25.7277608  27.1429873  25.7461381  20.6778193  43.1265593
  24.8120666  20.4966974  43.2311535  26.0957885  19.8948050  42.7012730
  60.7575941  11.5795290  45.9447527  60.6854630  10.7939267  45.4026651
  59.9284840  12.0390797  45.8120060  20.5740094  11.3474798  41.7801046
  20.8417058  10.8332086  42.5417423  20.6272817  12.2567749  42.0743418
  67.6070929  16.3560474  49.3950510  67.9065990  16.0516667  50.2517176
  67.1967125  17.2025824  49.5716858  50.3265953  21.7891693  55.6076241
  50.5216789  22.2101712  54.7704077  50.8035994  20.9599090  55.5756092
  51.4688730  13.8229048  49.9155045  51.4567900  13.1867790  49.2003632
  51.6750193  14.6559811  49.4915724  45.6840611  20.3511977  47.4755859
  46.5086937  20.1938200  47.0157480  45.3704405  21.1853647  47.1262503
   2.5910028  69.5755153  16.3008428   3.4470805  69.1698967  16.1636066
   2.6764162  70.0391447  17.1338999   7.9136737  49.7489350  55.0161695
   7.5899537  50.0537341  54.1685009   8.7444218  50.2093523  55.1349258
   1.0578354  74.0730264  12.3316038   1.2221797  73.7647884  11.4404178
   0.9390601  73.2730623  12.8436410  79.9616363  72.9962676  48.3769798
  80.2881386  73.2157644  47.5043678  80.7502224  72.9048743  48.9117813
   2.1432016  57.1332393   1.1178291   1.8524692  57.3412178   2.0057762
   2.9366634  56.6123138   1.2414444  57.7605526  67.8141926  11.2755335
  57.5988666  67.0494554  10.7230223  58.6924020  67.7632139  11.4883459
  10.8438524  66.7516731  23.2901978  10.1975664  66.3742976  23.8869667
  11.3068350  65.9956031  22.9293132  75.7480957  74.0514099  34.3165278
  75.3717424  74.7377007  34.8675227  76.2690832  74.5241717  33.6674523
  71.9101850  43.2160411  13.1545008  72.3811046  43.8646928  13.6776817
  71.3214676  42.7883981  13.7764061  10.5698335  52.2595835  28.3944845
  10.6007230  52.2941542  29.3505597  10.4652214  51.3299799  28.1916857
  25.0154837  64.4863897  50.8142328  25.0003155  64.4619386  51.7710018
  24.9805601  65.4181628  50.5978727  39.2404135  72.1709188  51.1970234
  40.1577099  72.2095810  50.9262657  38.7783249  72.7102332  50.5552673
  46.4862585   7.1047813  43.1523991  45.9707737   7.8970826  43.0015135
  46.4246511   6.6187388  42.3300886  57.5745249   0.6381878  48.9580822
  57.1880865   0.0952554  49.6451902  56.9867945   0.5320969  48.2100487
  35.9575510  18.5704446  62.1984673  35.9103847  18.2333028  63.0930853
  36.0897684  17.7928662  61.6561365  22.3362112  58.5598469   4.2825890
  21.4190102  58.2873774   4.2554602  22.7731729  57.9936790   3.6463866
   4.6102158  52.8627355  65.3298063   4.0846698  53.5615809  64.9403861
   3.9675729  52.2586293  65.7016953  11.3429391  35.8480382   9.6231270
  10.4048753  36.0367894   9.6484375  11.6593802  36.3101673   8.8468981
  26.8436964  74.5654733  61.5156364  27.0965203  74.9051273  60.6571817
  26.3023623  73.8005175  61.3206100  35.8387542   5.7370132  19.0256882
  36.1053967   6.5706789  19.4131613  35.9248281   5.8730352  18.0821192
  27.1171021   8.2959837  34.4603705  26.9318509   9.2350423  34.4694543
  27.7703214   8.1873935  33.7691808  49.3127537   4.5658761  18.2227254
  48.9406776   4.4394922  19.0955460  50.1800251   4.1637662  18.2715464
  66.3664246   1.7093964  47.2913551  66.2941504   1.5473938  46.3507366
  65.8498287   1.0118973  47.6949120  59.7756763  20.4306893  11.5408266
  59.1019758  20.8597140  11.0132874  59.2939331  19.8049026  12.0817030
  67.2789049  -0.1079243  32.3411012  66.8453836   0.2318225  31.5582442
  67.3416615   0.6466586  32.9266763  42.6796426  62.2427039  58.6668921
  42.4264528  61.4242916  58.2398939  42.6479377  62.0443492  59.6027803
  31.8741107  31.9907331  36.1244154  32.6805043  32.4992657  36.2101698
  31.4455485  32.3504543  35.3477764  68.3433525  51.1180160   2.9651964
  68.9779178  50.7388613   3.5733116  67.5483982  51.2287257   3.4867514
  31.2823939  29.7332978  17.8978622  30.9354591  29.9454689  18.7643790
  31.0503221  28.8141489  17.7654254  52.3224735  10.9514046  35.7982111
  51.5238857  10.5584848  36.1504865  52.0249653  11.4683247  35.0495362
  44.6880388  14.2933249  35.9851313  43.9309216  13.7083149  35.9573793
  45.4016876  13.7460697  36.3129234  27.2409797  11.3896239  28.9853954
  27.5215459  11.3627374  28.0706334  26.8829179  10.5176580  29.1518259
  18.7980509  10.3549635  31.9069052  18.8239777  11.1029160  31.3101411
  19.4824505  10.5382383  32.5505185  54.0185920  41.8517942   0.4244793
  53.7130276  42.7410770   0.6034744  54.6282450  41.9506637  -0.3068077
  46.4981844  56.6872089  11.4478076  47.2934832  56.7759936  11.9730222
  46.4573588  57.4953740  10.9365022  25.0060709  72.4284088  45.3031063
  25.7304295  71.9071453  45.6492567  24.4489678  72.5984581  46.0626793
  78.4829322  58.9423011   5.3302086  78.7228290  59.8443053   5.1179112
  77.8359310  58.7039421   4.6662796  35.7373619  27.7086234  34.9356914
  35.7815480  28.6138082  35.2437806  36.5066600  27.6086426  34.3749666
  25.6366515   5.0533092  21.4558029  26.1008668   5.1903731  20.6299996
  24.9005127   5.6641430  21.4209962  73.2730999  65.0839572  24.8815966
  73.8146581  65.0579422  25.6704354  72.4257829  64.7374242  25.1612425
  15.4678595  12.9301870  62.4857569  14.6210694  12.5948226  62.7802181
  15.2655077  13.4307313  61.6953468  25.6442499   3.8429719  49.6674728
  26.2021732   4.5078242  49.2638302  25.0049376   3.6232167  48.9898157
  33.4673953  13.0301261  23.2389379  33.0369282  12.5806105  23.9661694
  33.5705304  12.3555171  22.5677466  70.4064455  63.8572698  22.4194050
  70.1249768  64.7142999  22.7395701  69.8202624  63.6712663  21.6859031
  72.3653116  46.8028395  42.3319960  72.8048243  45.9660666  42.1807575
  72.5026681  47.2952311  41.5227270  21.8907762   9.3852758  52.4883032
  22.7812028   9.5488822  52.7991152  21.7876434   9.9706447  51.7380142
   3.1810578   1.1361792  57.3727476   3.7992605   1.4265969  58.0433565
   2.3285182   1.1578181  57.8074204  79.6000483  69.5881616   2.2777170
  79.3097307  69.9560278   3.1123561  79.9279453  68.7170451   2.5010329
  66.5384676  74.9928725   7.7030307  65.9644785  74.7505686   6.9763553
  65.9437372  75.3111856   8.3821517  43.4588814   8.2897729  47.2726965
  42.8017330   8.8341194  46.8390226  44.0979290   8.9139897  47.6165009
  15.8779716  21.1189985  33.3488226  15.0825477  20.7546449  32.9605198
  16.4372778  20.3585029  33.5071111  64.3507338  20.6201744  48.7865496
  64.7901773  20.9081054  47.9864120  63.7554264  21.3374305  49.0042305
  11.9662678  15.7347000  17.5780785  11.3954997  16.0517836  16.8781388
  11.5639329  16.0627067  18.3822989   9.2353948  62.5506704  27.6908350
   8.7441238  62.4650936  28.5078788  10.0300105  62.0366006  27.8341794
  35.3116965  23.7518859  62.2121572  35.9272194  24.3879485  62.5765610
  35.6257939  22.9053974  62.5300121  27.3451757  22.6829243  41.9792032
  26.8124390  21.9386554  42.2593594  27.4048805  22.5903130  41.0283661
   1.1347878   4.5697397   0.6890579   0.9518246   5.2656662   0.0578346
   0.7002264   3.7975776   0.3269064  37.0047482   4.5793440  56.9060081
  37.6878317   4.3511297  57.5365233  36.2845572   3.9814570  57.1062296
  15.5803847  17.4474120  11.1294580  16.3357258  17.8920507  10.7447648
  15.9422481  16.6481018  11.5120661  68.1411769  69.9459468  34.5490313
  68.9316322  69.7665285  34.0398932  67.6179912  69.1484790  34.4680834
  32.5963068  19.3744206  63.9161587  32.4103451  19.4669986  64.8505497
  31.7370319  19.2552245  63.5116005  20.2800330  65.9376054  16.9599080
  21.2229451  65.8817415  17.1149111  19.9143942  65.1923578  17.4365044
  79.4628551  76.0412412  47.8735256  79.7592284  75.1792327  48.1656504
  80.0218441  76.6590792  48.3447361  36.8526554  28.7263680  18.5965943
  36.9914150  28.0586743  17.9249084  36.1627436  29.2855930  18.2394922
  20.8904417  51.2323683  48.5676146  20.9292229  51.2928670  49.5221138
  19.9595793  51.3139384  48.3600712  75.7428312  21.5685272  33.7345004
  76.3680029  21.3871932  34.4362903  75.2841902  22.3585129  34.0205097
  45.4960326  63.6423824   4.1229713  45.3102521  62.8471873   3.6235941
  46.4084236  63.5461138   4.3959320  79.6385908  15.7734799  39.3710089
  79.5524549  16.1448991  40.2489948  80.1190186  14.9561357  39.5027876
   4.5300778  66.4886527  57.7075481   4.6001228  66.6245299  58.6524630
   4.7847398  65.5751758  57.5774002  50.5348253  10.8383417  51.2789345
  51.4109373  10.7236946  50.9108162  50.5958271  11.6409457  51.7969513
  26.5220030  71.7564981  18.7284660  26.1840399  70.9596436  18.3197665
  26.4485367  72.4248072  18.0471456  35.3809794  74.8269752  27.9229259
  35.1222142  73.9806499  28.2876277  34.5738228  75.1857101  27.5540853
  44.7871494   9.1977525   8.8678503  44.9956703   8.6143571   9.5975083
  44.1824865   9.8398244   9.2398137  21.6616416  32.3384833  18.7735772
  22.4545336  32.2861290  18.2398987  21.8348265  33.0493689  19.3907309
  23.8004359  70.6961589  49.6502972  24.1167124  70.6181162  48.7502384
  23.3633383  69.8624282  49.8237133  58.1620502   3.2783690  28.2833147
  59.0057993   3.0874139  28.6930156  57.5841951   2.5785741  28.5876203
  32.1565628  16.3273633   9.8262882  32.4926901  17.1925879  10.0600326
  32.8919935  15.8935726   9.3936247  62.1620909  52.5901077  19.0766609
  61.6091792  53.3657537  19.1709602  61.5584366  51.8965874  18.8104618
  62.4910259  23.7304807   5.3971368  63.0798244  24.3450713   4.9591613
  62.9512548  22.8918958   5.3625697  73.0119936  23.9164148  11.3540638
  72.5186960  24.7223268  11.5070189  72.3415510  23.2507048  11.2005318
  47.6077946  74.0668496  34.9483061  48.3534487  73.8224198  34.4001389
  47.3405846  74.9254452  34.6202111  25.4775532  67.1882843  49.5566988
  25.5890187  67.0112770  48.6226320  25.8848246  68.0444317  49.6885014
   7.3032051  31.3999605   1.0795190   6.9415528  30.5190206   0.9826605
   8.1878048  31.3366437   0.7193753  40.2783728  10.9425473  37.6408815
  39.8513699  10.3231096  37.0491076  39.8566961  10.7946455  38.4873724
  48.4053469  10.9783471  37.7278018  47.5339890  11.3275290  37.5406146
  48.7850904  11.6014767  38.3472657  43.1606356  58.9910267  10.8236492
  43.5103492  58.3827493  11.4747513  43.8553802  59.0672872  10.1696241
   4.1499528  12.1285582  43.8380957   4.6369779  11.6978884  43.1355524
   3.3083344  11.6731215  43.8601780  65.3341379  45.8769434  32.5929475
  65.0006523  46.6462367  33.0546880  65.4257752  45.2101462  33.2735467
  21.3514755  73.3604572  13.3837450  21.5315155  73.0989669  14.2867554
  21.9645069  72.8459642  12.8586519  49.2316095  49.6632610   3.2368553
  48.4688894  50.2207718   3.3907116  49.4995038  49.3775079   4.1102446
  12.7989300  65.6060665  26.7231393  11.9947537  65.1444881  26.4854908
  13.3936222  64.9157040  27.0163536  23.0240681  76.5260847  65.2647734
  22.3264386  75.9513674  64.9497414  23.8167717  75.9922727  65.2109337
   7.6552645   5.5092163  39.1881072   7.9216305   5.0608320  38.3854663
   8.2332389   5.1545496  39.8636758  10.3413725  19.3052816  42.5361729
  10.1027608  19.1973579  43.4568501  10.2255440  18.4348762  42.1551085
  49.3578021  73.1826756  43.0207432  49.2609278  72.7013943  42.1990288
  48.4723202  73.2198451  43.3823669  36.0327695  27.1562324  11.9733036
  35.2604310  27.6879535  12.1656502  36.1368487  27.2196851  11.0238970
  26.1873293  27.0642114  57.1255922  25.8501554  26.1707020  57.1903038
  26.0185766  27.4468303  57.9866123  63.5071288  27.5078340  64.3473348
  64.1210590  27.0057936  63.8113528  63.8600502  27.4482818  65.2351029
  56.7116737  26.3101387  44.5534277  56.0341024  26.0528779  43.9281750
  56.3798332  26.0146928  45.4012632  53.4463120  11.1533475  53.2120037
  53.0292130  12.0029545  53.0690718  54.2131710  11.3504648  53.7498760
  52.7078295  28.6715627  40.0164223  52.2780991  29.2032290  39.3464255
  52.0222902  28.0819082  40.3303909  31.7279792  14.6814072  25.7152820
  31.0170436  15.0628686  25.2002192  31.4443803  13.7834120  25.8867764
  10.1983603  20.0030186  60.3520345   9.5872172  20.5474951  60.8483010
  10.9551795  19.9048283  60.9298026  63.3580971   2.5163770  25.3083444
  63.7590885   1.7890148  24.8325467  63.7122536   3.3008188  24.8894691
   8.0037181  54.9032576  58.5890412   7.8822247  53.9957936  58.3097940
   8.5111777  55.3049691  57.8838145  33.0525359  66.3539045  56.3779783
  33.1009253  67.1299188  55.8196878  32.9032143  65.6301217  55.7696438
  33.6464477   9.3507141  40.9799385  33.8225460   8.5158592  41.4138031
  32.8751445   9.6961868  41.4293528  43.4594814  28.6379752   1.1507547
  43.6818389  29.4160978   1.6619432  42.5640492  28.4260217   1.4143980
  47.7954340  21.6380095  57.9304218  47.4520922  20.7606173  58.0993223
  47.8974867  22.0266151  58.7992144  44.6991672  75.4052937  38.8042188
  44.7826352  76.3362856  39.0104198  45.4051985  74.9866696  39.2966652
  65.0920725  33.3447242  38.5803342  64.3983316  32.6858020  38.5524702
  64.9707460  33.8542771  37.7791667  24.8767257  36.3925457  27.6655722
  24.0896153  36.2847042  27.1316648  25.3388929  37.1288228  27.2649097
  40.5242825  31.7439747  55.7368851  40.2341652  32.6477885  55.6136560
  39.7874022  31.3127899  56.1696815  29.7269011  18.3013093  55.4924488
  29.7804356  17.5075734  56.0247564  29.1274691  18.0732000  54.7818995
  66.2480164   2.5202382  58.7180948  66.0722780   2.7427274  59.6323442
  65.7792568   3.1862298  58.2151508  18.1500491  59.2509465  52.5511026
  17.6240881  59.9526351  52.9348087  17.6485499  58.9660471  51.7871857
  47.3198605  15.3023314  45.3131199  47.3566580  14.4494486  45.7460976
  47.8203630  15.8834779  45.8858299  52.2620821  12.3632467  18.7929142
  52.7228737  13.1350970  18.4640527  52.9560900  11.7923450  19.1225481
  26.9603276  22.4066377  57.9503441  26.5712404  23.1096005  58.4706163
  27.8618646  22.6908970  57.7998257  71.9713163  16.5680897  21.1810231
  72.2797632  16.6563463  22.0828581  72.7703571  16.4708853  20.6630325
  38.9874895  76.3436395  41.2554741  39.6951540  76.8619659  40.8723545
  39.3840941  75.9242403  42.0190430  30.9883173  66.9182848  25.4996681
  30.8670052  67.6916384  26.0505223  31.0152348  66.1867552  26.1164117
  71.3875333  69.3032024  11.4664877  72.0810596  69.6900866  12.0008791
  70.5957739  69.7762606  11.7225349  26.1404896  22.1869230  55.3052235
  26.2552500  21.9786119  56.2324047  25.5939412  21.4779377  54.9663162
  11.8737457  58.7113998  33.0111397  12.4717853  59.3202970  32.5777519
  11.6309498  58.0868421  32.3276127  48.4631252   6.6413850  32.7105856
  48.4049225   6.4319289  31.7783976  47.9214859   5.9787256  33.1392360
  28.5133886  19.1072690  58.3766317  28.6751342  18.9064336  57.4548244
  29.3661594  19.3794036  58.7156820  24.6604347  18.2750344  40.7657814
  25.2870464  18.2204497  41.4873171  25.1992035  18.2237518  39.9762702
  51.9483805  19.2344046  56.1500549  52.5539684  18.4932017  56.1605024
  51.9416428  19.5509410  57.0533800  72.0087481   8.3430737  65.7115746
  72.1255827   7.5729609  66.2679052  72.5657368   8.1760138  64.9512529
  71.6644708  46.6949288  10.7147253  72.2929422  47.3398636  10.3902138
  70.9923069  47.2156630  11.1543453  65.6808941  55.7634888  -0.0934994
  66.0922734  54.9003122  -0.0496160  65.4979173  55.9882686   0.8187616
  66.6959850  72.3064850   1.7440737  65.9833280  71.7150090   1.9859589
  67.3176710  71.7521522   1.2724197  39.1306949   8.7570876  46.2553358
  38.5306001   9.5025003  46.2334871  38.5908699   8.0235744  46.5499210
   5.2056938   0.0744017  47.4015999   4.3210083   0.1545437  47.0450258
   5.7657772   0.4956356  46.7496061  42.6992226  54.8726320  21.6612935
  43.1750298  55.2351284  20.9140062  42.3674870  55.6392336  22.1287322
  50.4676151   0.2269822  56.5371752  49.7634029   0.7489004  56.9217777
  51.1172867   0.1494516  57.2358513  54.0833473   4.1392532   9.0466845
  54.1181946   3.7496406   9.9203086  53.5927773   4.9524105   9.1664743
  69.8829899  75.5688877  54.0221440  69.1849957  76.0914488  54.4170665
  70.6454049  76.1476440  54.0233266  39.1683984  20.7963872  37.8418303
  38.4384131  20.1854086  37.7415371  38.7828350  21.5625215  38.2668138
  38.7305498  10.8859003  39.7501230  38.0196834  11.3119137  39.2711544
  38.6957717  11.2731302  40.6248093  44.5295334  29.8569870  40.1541376
  45.0351810  30.6666636  40.2246761  44.8208857  29.4635415  39.3316126
  48.5410929  12.4180615  40.0471926  48.9061928  11.6574514  40.4993057
  47.6329947  12.4616027  40.3466845  76.3743496  19.4405055  57.2451591
  75.4951143  19.1201985  57.0437050  76.3910198  19.5101738  58.1996727
  45.5246115  24.6723819  46.0942268  45.2059317  25.3930211  45.5507565
  46.4678240  24.6496153  45.9328032  56.1757135  27.2890043  31.9583821
  55.4871035  27.7051902  32.4768829  56.1542511  26.3700366  32.2253489
  49.0083265   8.1868035  43.3790493  49.1426229   8.5975349  42.5249434
  48.1586313   7.7523398  43.3049393  77.7327776  34.3565011  35.4347944
  78.2458019  33.6673331  35.0127959  77.5924253  34.0385604  36.3266754
  39.5210592  66.7333267  20.9393967  39.8673479  65.9747694  20.4693878
  39.5264057  66.4681432  21.8591106  26.4747429  11.3480127  44.1465855
  26.6233587  11.0525978  45.0448465  25.5243182  11.4390981  44.0785551
  20.8962439  68.2703493  28.7818039  21.3202141  68.9141915  29.3492115
  20.5250881  68.7882135  28.0674541   8.3970245  56.8265991  51.6456985
   9.2819889  56.7684179  51.2855864   8.0536254  55.9353607  51.5824366
  16.7196949  64.7264903  54.4678354  16.8368824  64.2977433  53.6200905
  17.5864704  64.6972268  54.8728943  22.1028421  56.5638826  30.2702606
  21.4770983  57.0588956  29.7414482  22.9108427  56.5740130  29.7571743
  66.6024542  22.7541876  32.2070813  66.4668846  22.8569341  31.2651181
  67.5480318  22.8456306  32.3243546  69.1542673  28.7647772  33.4501719
  69.2566442  28.8271379  32.5005078  70.0476933  28.6760664  33.7820721
  62.4170876  28.5840249  55.9927845  62.0097828  27.7406168  55.7953262
  62.6465464  28.9454770  55.1366663  39.5021868  15.6937110  38.5967207
  39.7529602  15.1944673  39.3739605  39.4862580  16.6041815  38.8917160
  61.8345165  49.7483540  44.3948936  61.8704510  50.5230188  43.8337898
  62.2396088  50.0281858  45.2157640  42.2162342  33.4889627  19.0083861
  41.7239237  33.9615726  19.6795785  43.0108929  33.1971574  19.4551563
  56.7850153  44.1183309   2.5721682  57.3769061  43.4515099   2.2239674
  56.7476908  44.7864262   1.8877113  10.9336980  67.2982859  65.4553890
  11.5020474  66.8350326  66.0706997  10.2876886  67.7364515  66.0093880
  27.9735327  15.6407821  35.0656080  28.2499528  15.8895993  35.9476018
  27.2257972  16.2087572  34.8797870  71.3973262  66.5433734  12.7407515
  72.2432127  66.5148132  13.1878448  71.4009609  67.3793291  12.2744942
  57.7887821   9.0238750  42.3855639  57.4666452   9.5069063  41.6245508
  57.4255896   9.4917297  43.1375170  63.8106155  27.8838611  49.2465639
  63.7343025  27.1847081  48.5972595  63.7263489  28.6915565  48.7398481
  72.8887224  24.9117184  41.0792446  73.6463594  25.3015900  41.5153837
  72.4703979  24.3795276  41.7560101  30.6814170  18.7979925  31.5878940
  30.9736276  19.0062881  30.7005072  31.2133312  19.3583679  32.1529412
   3.4098432  70.8246134  18.5000980   3.6215399  69.9974582  18.9327992
   3.5287378  71.4878581  19.1799534  70.9465734  73.1963942   7.1735943
  70.9398452  73.9338014   6.5633333  71.4851801  73.4963773   7.9058159
  54.6149445  27.0376110  38.7018895  53.9099455  27.4743509  39.1798687
  55.3584814  27.6363516  38.7718439  55.4562616  12.4176323  54.9883652
  55.5872488  12.9676497  54.2159939  56.2039423  11.8199694  54.9863911
  73.7004995  40.0503349  30.6957960  73.5245848  39.7067928  29.8198605
  74.5545483  39.6862626  30.9287977  18.3588731   9.6770698  28.8912678
  19.2171180   9.6532345  28.4680891  18.0196679  10.5505669  28.6958838
   9.1971984   0.7165484  15.2586926   9.8528900   0.1133661  14.9087227
   9.4831910   1.5801887  14.9610889  38.9299353  74.8273987  63.2853508
  39.8644646  74.8586123  63.4900761  38.8112934  75.4910820  62.6058769
  71.0284853  45.0421476  38.7659454  71.8367195  45.5547762  38.7516809
  70.6956577  45.0947428  37.8700161  26.3155675  18.8132191  62.6771975
  25.5539179  18.9980161  62.1276808  26.8008089  19.6380150  62.6992130
  19.3177354  15.0292945  37.8162956  18.5169721  15.5052602  38.0364442
  19.5810270  15.3834534  36.9668961  24.2062259  26.5334988  24.7749805
  23.8759422  25.6355262  24.8030829  23.5612512  27.0414400  25.2671552
  56.1217070   5.5570412  61.8548298  56.9126129   6.0188222  62.1331358
  55.6367970   5.4025042  62.6655149  62.5664663  16.1477685  48.9745045
  62.5632238  17.0964789  48.8473415  62.5478888  15.7872248  48.0879974
  10.5937439  14.5944190  23.0608654   9.8112446  14.7263682  23.5961461
  11.2425476  14.2394006  23.6685228  17.6153419  53.2733259   8.7094963
  17.5635670  53.9277969   9.4060743  17.9213331  52.4797831   9.1486919
  71.1533872  64.1697262   0.6476629  71.0186187  63.2225225   0.6181181
  72.0913116  64.2733047   0.8082998  71.2872799  72.9314362  65.1888275
  71.0212429  73.5987168  64.5562172  70.5118283  72.7946793  65.7330799
   9.2619091  23.1400323  51.0908508   9.5810849  23.0996966  50.1893377
   8.6797196  22.3846745  51.1728382  14.9637759  27.5014234   4.7892237
  14.1709292  27.0319200   4.5300126  15.0948310  27.2619057   5.7066590
  49.6581364  38.5574841  10.3460789  49.9358273  37.8757834   9.7341931
  50.4628611  39.0296245  10.5599475  30.9650898   8.3614522  29.8001194
  30.6777763   9.2349786  30.0658894  30.7431555   8.3088404  28.8704920
  10.2463299  50.9034681  54.0961504  10.0223404  51.6234732  54.6857738
   9.8176628  51.1280155  53.2702827  39.4185591   1.7296852  33.7718081
  39.9515748   1.7461391  32.9769135  38.6696672   1.1777024  33.5466290
  54.1165018  20.3579044  54.4120359  53.4496880  20.7505322  53.8486195
  54.8590279  20.9596705  54.3595028  64.2158270   8.2747281  37.4385786
  63.2781267   8.4034187  37.5813532  64.5224047   9.1123730  37.0913124
  30.5179620  26.5300679  66.0737038  29.8491454  26.0207009  66.5313721
  30.0238705  27.1803737  65.5744934  42.0335817   1.1433479  13.4158909
  42.6702309   1.6499844  12.9116809  41.4171457   0.8143668  12.7616656
  78.2807541   6.8621957  52.5650454  77.8803635   6.2156510  53.1463337
  78.9492607   6.3722712  52.0861864  75.3899145   8.7245584  33.8560104
  74.4398308   8.7582779  33.7444806  75.5855942   9.4400620  34.4609857
  22.5866008  39.6500611  26.4604664  22.9166508  38.7642980  26.3097286
  22.0229506  39.8270321  25.7073331   6.2678868  31.8166232  23.0975366
   5.9127575  31.2632394  22.4019194   7.1359879  31.4534545  23.2728338
  48.0820370  29.4909787  47.8183317  48.8962555  29.0648484  47.5505781
  47.6029158  29.6271205  47.0009375  31.5437784   0.3053122   3.4475601
  31.0187521   0.0889497   4.2181242  32.3146286   0.7499723   3.8001144
  69.2473497  60.8327656  49.5008278  69.7031893  61.2617009  50.2250195
  69.8916533  60.2242773  49.1391039  21.4337824  48.1339375   2.9281319
  21.5246723  47.1824161   2.9789103  21.4177416  48.4220515   3.8407982
  48.4795666  13.0888712  58.5143709  49.3293667  12.9628921  58.9365053
  48.1778908  12.2027946  58.3141422  28.4758900  50.9910963  30.8263767
  27.7813671  51.5056286  31.2376202  28.8979576  51.5998063  30.2201069
   4.0682083  23.9561868  59.9481440   3.3659703  23.3197975  60.0826979
   3.8407952  24.6885133  60.5210447  61.8448877  22.4748707   1.2619832
  62.7078819  22.2377896   0.9224676  61.7518568  21.9575906   2.0619811
  50.6329775  31.0460067   9.5571309  50.5943775  32.0022368   9.5762366
  50.8775902  30.8341241   8.6562967  75.2471447  52.3073196  45.3548431
  75.6845474  52.0977163  44.5296288  74.5604610  51.6455173  45.4367828
  53.4116507   7.0219684  62.0048285  54.2931128   7.2418571  62.3063326
  53.4802771   7.0133066  61.0501289  70.5773640  51.1937475  44.0960979
  69.8546696  51.7397022  43.7864542  71.1692858  51.8055773  44.5337391
  18.6922222  31.7402673  45.8210659  17.7895123  31.6998672  45.5052853
  19.1742760  32.1693349  45.1141357  60.1187086  44.1815281  50.5784512
  60.9060812  43.8995600  50.1128674  59.6872282  44.7863197  49.9748898
  33.5826691  75.6693999  59.7244263  33.4314068  75.9961593  58.8375330
  33.8086995  76.4490706  60.2316332  67.9472256  41.9186831  57.5575447
  68.4313250  42.3033428  58.2882404  68.6101103  41.7689037  56.8834639
  46.0501051  26.4457822  22.7226734  45.9861326  25.4915118  22.6838541
  46.9906330  26.6219950  22.7468657  72.7321863  20.2849936  61.1253977
  72.2928905  19.6690154  60.5390358  73.6648130  20.1053071  61.0064316
   8.7430912  61.1833239  39.2630625   9.0680748  61.1826897  40.1634026
   9.4079167  60.7045174  38.7681103  66.5744209  30.3432012  15.6911373
  66.7343044  29.4385886  15.4221666  66.9663811  30.4069519  16.5620780
  65.6991673  62.3254585  33.6782217  64.9676657  62.7171421  33.2010198
  66.2865829  63.0589676  33.8602638  67.9000282  39.2241383  38.1531000
  67.9828596  40.0240421  38.6722612  67.5546789  39.5199609  37.3108077
  21.4602278  22.8754050  42.0986700  22.3835133  22.9032428  41.8476772
  21.4679096  22.5728805  43.0067730  69.7189093  58.2626772  58.6341715
  69.8579597  58.3069801  59.5801830  69.0065002  58.8799095  58.4676409
  34.3671664  72.5977888  33.3826661  34.2605122  72.6649406  34.3315315
  33.6625965  73.1371795  33.0236793  78.7601709  35.8868885   4.1142279
  79.0845251  36.7865682   4.0741605  78.1723976  35.8776116   4.8696503
  68.6569071  15.6075013  51.8281031  69.1544580  15.7950997  52.6240206
  68.1896448  14.7952926  52.0235968  69.1231012  60.3337193  38.2020855
  69.2448378  60.6655693  37.3125410  68.2101393  60.0472546  38.2280040
  25.3859041  54.9119518   7.2047842  24.4999168  55.1752327   6.9558991
  25.8727882  54.9006329   6.3807428  57.8887939  64.5752001  22.5115418
  58.7413120  64.8908901  22.8111815  57.2722673  65.2544689  22.7848840
  81.0128880  49.2917871  19.7345662  81.8581963  49.1907167  19.2969966
  80.6966782  48.3963203  19.8544860  74.7408962  32.9466391  16.6311562
  74.2518091  33.0189943  15.8115280  75.6519938  33.0996490  16.3807082
  76.8800537   0.6874282  31.5254116  76.6669313  -0.2309935  31.6906595
  77.1919147   1.0163743  32.3684812  65.0738239  65.8325672  32.2145534
  65.3615856  66.7215014  32.4224424  64.7346592  65.4909706  33.0419040
  50.0259254  17.0952995  19.1207147  49.9541328  17.7309806  18.4086907
  50.8862446  17.2627647  19.5054674  51.2436676  73.2807732  27.3283672
  51.9848204  72.9753017  27.8514409  51.0449266  74.1490841  27.6787543
  74.3728924  53.2230663  52.2222471  73.6943626  52.5833941  52.4382210
  73.9743423  53.7778330  51.5517044  76.0687113  50.1114988  25.0430536
  76.9593000  49.7674179  25.1115656  75.9860611  50.3817844  24.1285348
  76.0465956  74.6514034  22.0695162  75.5195284  74.6877766  21.2713265
  76.0882711  75.5590677  22.3705864   1.8369355   6.8235638  56.2309145
   0.9995999   7.2852185  56.1866068   1.6389718   5.9385063  55.9247922
   2.4196194   2.2575958  61.1233759   2.0787666   1.9109399  61.9479275
   2.9275225   3.0276067  61.3790178  17.2825334   3.9147289  53.1272888
  17.3857449   3.1835325  53.7363338  16.6355846   4.4840057  53.5439539
  37.4599767  58.5106277  24.6270585  36.6559315  59.0298700  24.6386027
  37.3669171  57.9085827  25.3653765  13.1721638   7.5297458  46.4350986
  12.2588346   7.4824340  46.1525774  13.1271980   7.8372199  47.3404551
  42.5013437   8.3779960  40.7830036  42.5310363   8.9051299  39.9845875
  42.8985109   8.9348989  41.4525974  78.2245159  60.5092144  35.4607892
  78.2316351  61.4434052  35.2522826  78.9882851  60.3836727  36.0239244
  45.6838894  60.8887482  33.0100870  45.3374147  61.3854933  33.7513256
  46.1991549  60.1886415  33.4108186  68.5629463  60.6030655  44.8203135
  68.2948399  60.2784204  43.9606857  69.4747591  60.3251886  44.9075747
   4.8248154  47.1289253  27.1239448   4.2534405  47.5767612  26.5000796
   5.7038456  47.4426699  26.9115734  62.4974108  33.4833717  34.5833516
  61.6748333  33.1167269  34.2590547  63.1655788  33.1279898  33.9972758
  32.3924645  73.2322081  63.8702536  32.9828747  72.7689611  64.4644356
  32.8381022  74.0591287  63.6862993  72.8231001  44.2339659  24.7830892
  73.5790968  43.7822056  24.4081044  72.0922565  43.6308479  24.6476483
   7.2107369  21.9562531  57.4844980   7.3273712  21.9652724  56.5344715
   7.7699906  21.2410283  57.7876854  75.0978756  65.9512854  19.9337900
  75.8322906  66.4228773  19.5407653  75.3989077  65.7310104  20.8153176
  61.0509157  63.2751608  49.8012066  61.0142231  63.8076878  49.0066624
  60.4871607  62.5248528  49.6129084  60.8634263  14.9082195  16.4726246
  60.4526454  15.6449425  16.0201443  61.6520292  14.7234451  15.9625328
   5.4430960  14.2416579  20.0268602   5.1097105  13.4444816  20.4386854
   5.7304285  14.7872836  20.7589531  25.0333649  60.5420637  16.5381145
  24.2980629  60.5865908  17.1493328  25.7854039  60.8473921  17.0454931
  67.9664612  65.1479959  29.2364335  68.3711338  65.9893274  29.0251756
  67.0711374  65.3702688  29.4918227  67.1717109   4.5027356   5.9383476
  67.4124374   4.5572524   5.0135220  67.9659881   4.7572522   6.4079989
  45.8428812  60.5659962  30.3243780  45.4610395  60.7519531  31.1821938
  45.3079939  59.8540115  29.9733663   0.9269577  31.8487787  47.8006744
   1.0841519  30.9554863  48.1065273  -0.0080723  31.9912601  47.9478121
   0.7008415  71.3353586  39.2474866   1.1286598  71.4465046  40.0965166
   0.1790291  70.5388069  39.3446708  77.4813843  51.0830641  13.0218673
  77.9445076  50.3830671  12.5617027  77.9689217  51.1968184  13.8377082
  62.9128218  40.4939938  25.6678295  63.6134672  41.1035109  25.8998060
  63.1912804  40.1150751  24.8340964  53.0097628  66.8024349  18.4743190
  52.1936083  67.1343565  18.1002188  52.9817200  67.0760965  19.3911362
  51.6118574  70.9038210  43.0911684  51.2438011  71.6121387  43.6194277
  52.4192619  70.6615210  43.5446215  73.2270718  53.3055353  49.1427374
  72.3189211  53.1186152  48.9049292  73.6211777  52.4439430  49.2789936
  59.8165274  55.1703501  53.7178183  60.0286770  55.2268028  54.6495056
  58.9017248  54.8893929  53.6970758   0.8367115  30.0391889  62.9663897
   0.8655602  30.5497622  62.1572447   0.0571114  30.3565431  63.4221840
  73.4468834   4.6735294  10.7945383  73.4217731   4.1001613  11.5606046
  73.6593143   4.0904052  10.0657916  33.2036835  51.0323906  30.2510595
  32.6380020  50.3753042  30.6566119  33.7150437  51.3892794  30.9772611
  77.0922756  65.5026913   9.7156250  76.2219715  65.2030420   9.4529182
  76.9509315  65.9440088  10.5531776   9.5085961  60.9299946  23.1721187
  10.0571018  60.9578800  23.9560795   8.7012631  61.3756752  23.4286833
  13.1775864  34.5589831  65.8704228  13.3785160  35.3674795  66.3417956
  13.3515271  33.8628342  66.5039452   6.9530151   5.2090461  33.3383799
   7.9077480   5.1608283  33.3872175   6.7739771   6.0923774  33.0160618
  68.3049345  49.8465300  46.5402317  68.1224442  49.5118856  45.6621981
  69.2485237  49.7289848  46.6500187  19.5090538  41.5838623  43.0427694
  19.0924603  41.9521284  42.2636271  20.3951794  41.3607264  42.7577591
  65.3945923  46.5925741  37.8480077  66.3206482  46.7415380  37.6570582
  65.2613544  45.6605434  37.6753640  58.8186693  71.9467497  38.3281064
  59.6666050  72.2081900  38.6871004  58.2410622  72.6868486  38.5147977
   2.4636513  43.1353283  48.9523315   1.8989712  43.1445265  49.7251701
   3.0865628  42.4279690  49.1192389   8.6973244  37.8966308  26.9688535
   8.0276066  37.9849648  26.2906837   8.8024956  38.7815309  27.3183060
  43.2115555  55.8457851  39.3622565  43.8336992  55.4803991  38.7332416
  43.0246210  55.1232100  39.9615693  75.0151483   5.6462581   0.0088175
  75.1781742   6.0042865   0.8814406  74.1418497   5.2588851   0.0681806
  67.2296095  33.9103913  33.6284089  67.4166727  33.1891990  34.2293406
  67.1814299  34.6838951  34.1901970  60.6211233  58.8413668  48.6237574
  61.5071535  58.8964939  48.2657862  60.5450487  59.6065855  49.1937447
  63.3109379  57.6467466  40.5665016  62.4032688  57.6643181  40.8699226
  63.2502651  57.7856445  39.6213794  69.9614239  47.7221107   3.6193404
  70.5215502  47.2616816   4.2442361  70.5706215  48.1015730   2.9860011
   6.9988209  39.2751861  47.0937014   6.2682015  39.3173170  47.7106667
   7.2377926  40.1896858  46.9426489   5.4615170  73.7919044  50.8716488
   6.0562474  74.0220690  51.5854692   5.4182583  74.5812893  50.3319883
  42.9365625  25.6368594  33.3031357  42.3964157  25.8776526  32.5504864
  43.8356914  25.6878619  32.9788006  66.9886494  59.8066902  50.7265282
  67.9195595  59.6129608  50.6164789  66.9602919  60.7435703  50.9206533
  70.1447201  39.6423149  20.8886480  70.1044941  39.2414403  20.0203657
  70.2013159  40.5821419  20.7161570  60.6046534  67.8969193  28.7220883
  59.8048067  67.9096317  29.2477465  61.2542963  68.3451939  29.2636085
  80.1600085  57.5421007  65.6018370  79.3960057  57.3076315  65.0750011
  79.9267207  57.2793956  66.4922271  55.4231453  62.2285652  29.9742675
  55.9297180  61.4519978  29.7364402  55.6710243  62.8849030  29.3231082
  80.7243443  56.6429949  28.9351845  80.1332760  56.0814047  29.4366670
  80.8191967  57.4302149  29.4713902  53.2276011  39.6296096  64.3694210
  54.1052675  39.7659397  64.0125608  53.3175564  38.8679242  64.9421120
   5.7610242  75.3024764  55.9785902   5.6811778  76.2219949  56.2322485
   6.5913979  75.0195999  56.3615882  68.6247110  61.0683203  20.9173369
  69.0997219  60.6488132  21.6346979  67.9849052  60.4132986  20.6383514
  74.3830538  45.9056425  53.9233255  74.7526073  46.7884254  53.9043665
  73.6753464  45.9560013  54.5658588   4.8068768  34.5573449  40.0816345
   5.6002098  34.7698665  40.5732489   4.1555363  34.3558598  40.7534838
  60.2321672  29.4563556  46.0138845  60.6673336  30.2714610  46.2638092
  59.3058491  29.6135473  46.1968040  22.1038119  62.9650326  41.6290795
  22.4483935  62.2709699  42.1910130  21.2746684  63.2142229  42.0373165
  10.6376892  29.4697881  36.8418765  10.8305508  29.1297102  35.9681582
   9.7398526  29.1873217  37.0160413  39.6138382  56.8931580  24.0355206
  38.8556218  57.4051332  23.7540627  39.5754552  56.9141865  24.9917173
   0.5660111  66.1603212  32.8913760   0.1911598  65.5901003  32.2201324
   0.3804451  65.7126570  33.7168407  15.7914978  25.0097752  14.1711545
  15.9901577  25.0844741  15.1045275  14.9882275  25.5174112  14.0558743
  76.0767365  39.0163827  60.9131289  76.1515045  39.6659327  61.6122150
  75.5815125  38.2976055  61.3059950  69.8655643  29.8356538   6.3163603
  70.7575645  30.1168303   6.1126411  69.3217125  30.5956941   6.1094797
  52.7994967  64.0917587  59.4394588  52.5505304  64.7708654  58.8125086
  51.9671774  63.7591743  59.7754097   2.1557575  38.6039591  54.8903990
   1.7909867  38.1357288  55.6413555   3.0922085  38.6659718  55.0786495
  62.0694113  65.1395226  43.8152075  61.1229181  65.1384735  43.9579630
  62.3807240  64.3554688  44.2675066  11.5215069  51.6042471  41.3962889
  12.3713166  51.2330055  41.1591530  10.8833557  50.9714222  41.0668516
  27.4785946  62.3685119   5.2321661  26.8890808  62.9564569   4.7599066
  26.9468544  62.0203040   5.9478748  26.3434265  70.9204052  33.6962498
  25.9350822  70.2211831  33.1857861  26.7258213  71.5036152  33.0405987
  70.6036043  53.7863016  21.5848446  70.1195526  54.4293690  21.0667801
  71.4078379  54.2393160  21.8382668  19.3660925  20.1055248  55.9115458
  18.4353350  19.8974807  55.9930611  19.7685812  19.7097118  56.6845703
   4.3560654  38.0110192  58.6317539   3.9053685  38.3492923  57.8580189
   5.1790577  38.4988856  58.6619568   5.4983280  67.6958472  27.6886034
   6.2755583  68.2385452  27.5558186   5.0960730  68.0441768  28.4842730
  80.5190468  55.3835154  41.1788225  81.3485527  55.0390291  41.5097189
  80.0140095  55.5887032  41.9656277  51.3279867  45.5600691   7.8978074
  51.6186953  45.8982754   8.7447643  51.2150192  44.6204233   8.0411160
  78.2736913  13.2340915  21.3555002  79.0825073  13.5190208  21.7807817
  78.3785097  13.4968288  20.4410505  70.2189064  67.9457760  37.7061439
  69.2863464  67.8111315  37.5375247  70.3729153  68.8633680  37.4813318
   4.3460232  29.5577478  23.9500046   4.8385388  29.6092057  23.1308508
   3.4333187  29.6801376  23.6888099  74.2139912  54.7391939  44.9755287
  74.9744177  55.1664066  44.5812321  74.5700216  53.9558220  45.3948164
  60.9136009  52.8096628  23.1709981  60.4006481  52.1485090  23.6357403
  60.3403568  53.5753441  23.1342506   3.5396479   2.2207887  26.9319797
   3.0381105   2.5084455  27.6948357   3.5374735   2.9768378  26.3449335
  69.7209406  28.9463353  26.7613935  69.1527987  28.6607766  26.0459208
  70.6049585  28.9039063  26.3967776  64.5078993  48.9785480  31.8325758
  65.1198483  49.5420980  32.3060346  65.0364876  48.5772562  31.1428022
  40.6168403  11.2423425  12.0964754  41.5155973  11.5716176  12.0894230
  40.4332342  11.0276561  11.1819113  63.0491249  11.0479648  56.9159508
  63.7502400  10.5814464  57.3709583  62.3600570  11.1448772  57.5732374
   1.2421185  37.8154159  57.4082851   1.1513764  37.8202629  58.3611584
   0.4488045  37.3814392  57.0943451  60.2819061  60.0089216   3.6037511
  60.1547956  60.3025436   4.5058936  60.3381443  60.8174038   3.0944091
  12.4572140  60.6176281  42.2225285  12.2131497  60.9985924  43.0660486
  11.8203598  60.9763145  41.6044712  62.0583439  55.8375931  30.5143189
  62.0128107  55.3510952  29.6912265  62.1915960  55.1655054  31.1827278
  74.6423149  39.4440079  43.3992577  73.9761114  39.3098474  44.0733480
  74.8302555  38.5650992  43.0699682  62.1645880  54.5123291  42.7170992
  61.5001583  54.4814873  43.4054422  62.9170132  54.9367619  43.1293392
  64.2916012  48.5056400  51.8842888  64.8141384  47.7134037  52.0089912
  64.7048616  49.1568327  52.4512053  12.4177891  28.1293106  46.3277292
  12.2972256  27.1947122  46.4957285  13.2977349  28.3195519  46.6528749
  56.1043119   4.5511666  42.9696989  56.4096022   4.4939494  43.8751030
  55.3163958   4.0080813  42.9478407   1.9107483  21.1799438   9.2805094
   2.3205564  20.3997142   8.9069819   1.2812088  20.8389671   9.9158394
  55.2626848  25.3701258  64.5102262  55.5596209  26.0706282  63.9294004
  55.9757376  25.2624965  65.1396704   3.0848644   6.5566356  33.5352731
   2.6748417   6.0893447  32.8074336   2.4619482   6.4699085  34.2568588
  44.0045784   6.4724548  54.7382069  44.4237469   5.6407840  54.5172119
  43.4383057   6.6615302  53.9899921  70.0348997  64.1280270  47.2435665
  70.7434082  63.4846973  47.2242165  69.5137548  63.9338827  46.4644957
  40.9410514  18.2104402   9.2364204  40.5799284  17.6560454   9.9281347
  40.6802787  19.0984826   9.4805849  26.2097621  51.2817001   1.1700405
  25.7384753  52.0311213   0.8060505  25.5608654  50.8296251   1.7092961
  69.7758007  63.2235670  34.4858932  70.2733850  63.0090857  33.6968184
  69.0233946  63.7217188  34.1665745  62.2318125  12.0698047  59.6502542
  63.0832386  12.5071692  59.6459627  61.6036701  12.7701640  59.8267984
   3.7807137  53.1565619  52.3277903   3.4989125  53.7741566  51.6529655
   2.9860073  52.9681683  52.8269672  80.5301325  14.0431697  30.8642912
  80.7174484  14.1041858  31.8009996  79.6160022  13.7626464  30.8206129
  23.0773121  48.5406017  25.0007582  22.3304898  48.8272667  24.4751072
  22.7644879  47.7580404  25.4545903  67.7927446  52.9403782  29.5657635
  68.3847666  52.2295570  29.3198442  68.2809448  53.7389135  29.3651772
  69.4830656  53.4983397  32.0265722  69.1456890  52.6095486  31.9149709
  68.8604641  53.9180756  32.6202202  80.4353706   3.9667709  32.0844460
  80.8030597   3.1369741  32.3885369  80.2364246   3.8162524  31.1603284
   0.4965264  63.3232212  53.2314730   0.6605011  63.7024117  52.3680115
   1.1339527  62.6130533  53.3061647  62.4564981  75.9970474  63.1290913
  63.1433630  75.6570292  62.5556517  62.4690580  76.9429588  62.9830599
  47.0411539  46.5828705   8.6260229  46.7327833  45.9452963   7.9820985
  47.9061127  46.8436146   8.3096623  39.8560101  31.2393594  29.3750644
  39.2911965  30.5464220  29.7171903  40.3410298  31.5519476  30.1387930
  12.1729428  75.0224495  53.6013556  11.9148594  74.3089676  53.0177784
  13.1252247  74.9482775  53.6637545   4.7048527  15.9985435  29.7818446
   3.9222008  15.4577196  29.6760392   4.3730980  16.8957341  29.8167300
   3.6385876  45.1260471  14.2136323   4.1099983  44.2987394  14.1158628
   2.9379994  45.0808477  13.5629678  77.6331997  69.6077394  29.1291332
  77.7295446  69.5769262  30.0809741  77.3486233  68.7260580  28.8885355
  48.1312847  62.1267128  39.3204546  48.9483166  62.5635719  39.0799427
  48.3852530  61.2191391  39.4879127   4.3050247  70.1208878  46.8500805
   5.1974350  70.4321241  46.6985273   3.8253266  70.8985806  47.1352339
  11.3906628  65.1934338  30.1781201  12.2257382  64.7706223  29.9778152
  10.8867508  65.1245642  29.3672204  74.6795416  47.0354509  22.2122240
  74.1211557  47.6133680  22.7322650  74.9029779  47.5515985  21.4376926
  27.5809914  48.8696527  17.1295047  28.2145077  48.2541180  17.4983048
  26.8495327  48.3203650  16.8475831  67.3754072  64.9997568  21.7295051
  67.8070784  65.0275755  22.5833869  67.0849752  64.0923452  21.6373992
   5.6128174  39.8270607  26.0719061   4.8532921  39.5721126  25.5481195
   5.2960640  39.8143816  26.9750881  77.2123480  60.0097561  45.6556463
  77.2493124  60.5638123  44.8759747  76.9495392  60.6033564  46.3590670
  24.7813565  69.7382116  47.1770334  24.1360623  69.8936653  46.4873505
  25.1270920  68.8655996  46.9892788  74.5747089  58.1634426  15.9944379
  73.9478111  58.8715458  15.8466995  74.8090076  57.8638363  15.1160467
   7.6198337  22.0398147  39.3221426   8.3957193  22.5293357  39.5952773
   7.1929024  22.6066119  38.6797214   4.4829939   5.0034530  43.3141232
   3.8960455   4.7274024  42.6101875   3.9006470   5.2029712  44.0471268
  57.4983168  64.8359013  35.2567339  56.5513754  64.8110104  35.3942823
  57.6128531  65.3787899  34.4767427  35.1153650  36.8162351  14.9470604
  35.5069246  37.4328475  14.3284405  34.2612590  37.1951776  15.1547611
  22.0683620  13.3255965  26.1826801  21.8254898  12.6935489  26.8592596
  23.0250404  13.3461768  26.2064791  67.7779627  45.4776716  55.4273510
  68.5571718  45.0012445  55.7138538  67.0899439  44.8130703  55.3931952
   1.3350866  16.5108020  51.0239267   2.0401524  16.1162479  50.5106640
   1.7712543  17.1716888  51.5617228  79.1326237  67.2423124  30.5400896
  78.6957455  66.9217587  29.7510290  80.0247765  67.4411440  30.2559066
  38.6337604  44.9088197   9.3697632  39.0855684  45.7067971   9.0952719
  38.0071821  44.7346787   8.6674059  75.1268387  18.1797147  50.4921103
  74.4067097  18.6315024  50.0521851  75.7827568  18.8611305  50.6393433
  67.1683884  69.9477768  39.5313239  67.7768135  70.3717947  40.1365185
  66.9522810  69.1158867  39.9526143  70.7183599  35.7339048  22.0338416
  70.9784365  35.6462145  21.1168337  70.9309196  34.8866010  22.4251604
  20.0058132  69.7662258  36.3364935  20.5791432  69.2778683  35.7457042
  19.1391522  69.7040224  35.9349132  66.4904118  22.1859980  58.6140299
  67.3801374  22.4926496  58.7889147  66.6074610  21.3146591  58.2354784
  14.6191166  17.1431930  52.8398228  15.4852579  17.5506122  52.8466511
  14.2161844  17.4507053  52.0278406  78.3911753  39.5436573  27.3132372
  78.7537575  38.6870718  27.5391364  78.3136892  39.9995255  28.1513357
  67.2417021  64.7294807  34.2778230  67.3313761  64.5090342  33.3506799
  66.4966440  65.3295279  34.3103647  42.0229290   1.7857415  61.1335468
  42.5256775   1.1788470  60.5902672  42.6707695   2.1734578  61.7219448
  78.4855652  39.2870903   1.1064808  77.8273535  39.3997836   1.7922555
  78.0297136  38.8100624   0.4130294  15.5797535  48.2040882   6.8260694
  14.7731644  48.6482763   7.0874959  16.2515599  48.8848019   6.8652636
  80.6747437  64.7907066  19.5210505  80.1776123  63.9795732  19.4154334
  81.3173103  64.7718811  18.8118303   5.4983002  69.3478823  30.1119423
   5.1959187  69.0714502  30.9770346   5.4558140  70.3037977  30.1375341
   7.9172856  69.1435719  27.4643111   8.1046063  69.2383671  28.3982062
   8.7792450  69.1047525  27.0498753  56.5427542  63.5695744  14.0799332
  55.6737566  63.1888628  14.2069662  56.8621254  63.7385416  14.9663210
  57.7150726  60.0901985  46.2941551  58.4163141  60.3323221  45.6892872
  57.2372532  60.9056520  46.4456511  61.9174995  46.0845857  13.0993307
  62.8611698  46.0353951  13.2519711  61.8331661  46.1853223  12.1511925
  70.8816528  41.5505409  43.4221745  71.4536810  41.9549704  44.0744400
  70.0132036  41.9053173  43.6123419  80.4473400  40.6947994  53.6486626
  80.5997467  40.6107044  54.5899057  81.2331867  41.1288881  53.3166361
  74.6804380  53.1967163  29.4298458  74.8115444  52.4838352  30.0550199
  73.7905931  53.5049772  29.6012521  69.2895269  46.8317032  41.6208649
  69.7346020  47.3207808  42.3129225  69.5335770  47.2837305  40.8131886
  72.6307535  29.0036774  18.5738671  71.8306684  28.9504147  19.0966082
  72.9063320  29.9171710  18.6501563  71.7274857  53.2003117  40.2210188
  72.1239758  53.7438202  39.5401144  72.3669386  53.2043409  40.9332848
  23.3557985   3.3678252  48.1562042  22.7489088   2.7516467  48.5663891
  23.2136152   3.2543428  47.2164488  53.6580038  72.3914099  21.1451793
  54.4246578  72.8374624  21.5050554  53.1027174  72.2184610  21.9054270
  74.1026878  19.2158937  32.9841042  73.7445164  19.4854188  32.1383500
  74.4985867  20.0109982  33.3408999  49.5786810  18.7573302  30.3724003
  48.6942911  18.4061468  30.4761004  50.1384258  18.1393552  30.8425307
   2.9035240  30.4066610  57.0974302   1.9665676  30.3484392  56.9104481
   3.2610470  29.5730734  56.7915869  16.0561615  55.8147430  48.0050659
  16.1459309  56.6822672  48.3994913  15.1574951  55.5526209  48.2048845
  76.5238905  65.9600830  57.2940397  76.9530869  65.3341961  56.7106962
  75.8280563  66.3454819  56.7615795  15.7713562  37.3843503  22.5745463
  16.6999108  37.5903726  22.6821470  15.6466252  36.5749454  23.0700660
  25.5552671   3.1910712  41.4323187  25.2729986   2.8202207  40.5962372
  25.6539724   4.1270835  41.2580299  53.7242556  29.2970920  45.7148075
  53.8929749  28.9995217  44.8208189  52.8174639  29.6031761  45.6982374
  80.4157448   5.3004980  50.3508711  80.7543945   4.9386501  49.5319605
  80.7088661   4.6858966  51.0236120  68.4162331  67.9267168  28.3379984
  68.5805416  67.6001501  27.4533582  68.9784336  68.6973763  28.4170794
  28.1477982  13.1203771  31.7129111  27.3438412  13.5906243  31.9337010
  27.8462368  12.2860265  31.3535285  32.7306898   0.4484417  65.1864332
  32.3759802  -0.4376695  65.1141826  31.9692477   1.0200193  65.0877439
  76.6337013  44.7601128  52.1874142  77.2487593  45.4651594  51.9853354
  76.0181475  45.1498652  52.8082371   9.8728043  67.7809715  56.2515450
   9.3726689  67.1833134  56.8073320  10.1578957  67.2407007  55.5146170
  23.1688974  30.9535510  24.3778062  22.8514193  30.1481921  23.9693475
  24.0128992  31.1186607  23.9575291  22.4409064  73.0156230  29.1538334
  22.4352177  73.9227413  29.4593430  23.3379849  72.7177249  29.3046236
  76.2212650   1.6958101  27.6166773  75.4948560   1.5813548  27.0039272
  76.6473858   2.5051458  27.3344898  61.4248371  60.1714277  61.0512781
  60.5644226  59.9713039  60.6826639  61.2521124  60.3610277  61.9734716
  56.3451813  13.8145358  50.2584696  55.5277393  13.7597282  49.7634745
  56.0767601  13.7344081  51.1737680   6.9872528  52.5418901  29.8707032
   6.9438320  53.0570221  29.0651059   7.0177513  51.6328764  29.5723844
  67.7263403  63.6288118  31.8650842  67.5286007  62.6923180  31.8754482
  67.3832369  63.9367819  31.0262346  26.8850468  10.8747394  33.8239551
  26.2851379  11.3684089  33.2648110  26.6203545  11.0991103  34.7160506
  10.8647496  53.2414436   1.7954259  10.7627255  52.2901392   1.8243758
   9.9749714  53.5808182   1.8921319  49.8323917  57.3598051  30.9248567
  50.3328991  57.8214312  30.2520823  49.8192358  56.4489651  30.6308651
  26.6502521   9.0520961  30.1784420  25.7977531   9.1442783  30.6038690
  27.2825573   9.1051681  30.8950996  33.7159298   6.9725520  59.4688845
  33.5357235   7.6614196  60.1085901  34.6335457   6.7432220  59.6159554
  80.3845596  44.1481209   0.6623663  80.4514503  43.3243942   1.1453111
  79.6642685  44.6157885   1.0850950  37.2710075  13.1126552  21.9608486
  37.1616163  13.6373620  22.7539146  37.8494443  12.3971801  22.2249306
   2.7318341  47.9393864  31.3084769   2.7908379  48.0887985  32.2521019
   2.2645146  48.7046862  30.9735656  75.1821939  18.6006362  22.8641295
  76.0551397  18.8584716  22.5679469  74.6237842  18.7194926  22.0958304
  22.3855390  22.5948243   1.5727413  22.0732393  22.6676135   2.4746311
  23.3389177  22.6404624   1.6449821  16.9748781   8.2310588  52.5785685
  17.0164249   9.1141994  52.9454041  17.8699968   8.0479057  52.2931719
  11.2560318   3.4376056  15.6267881  10.8352945   2.7402742  16.1297107
  11.6270588   4.0203578  16.2893438  26.6769264  15.0222118  53.3566284
  26.1771343  14.5247371  52.7093697  27.2642944  14.3782336  53.7522411
  75.2114056   3.3173663   9.1694140  74.9493072   3.4983356   8.2667583
  76.1682365   3.3096797   9.1440296  70.9948111  22.6996517  46.9942522
  70.8258867  22.2619629  46.1599112  70.1944876  23.1937861  47.1718550
  30.3523205   4.5874507  48.5646868  31.1116169   4.0237243  48.4166384
  30.6381843   5.4546268  48.2774258  10.6529194  50.1850796  26.2131810
  10.2981907  50.8442545  25.6166196  10.5699021  49.3599653  25.7351327
  57.7524604  46.0140042  10.7450378  57.3520889  46.3442712   9.9407614
  57.7783908  45.0644307  10.6272591  76.6758384  33.7176995   7.3103321
  76.5060367  33.2296233   6.5046156  75.8080425  33.8755231   7.6821507
   7.9928261  58.5033655  57.0405960   8.4150273  59.3087149  57.3395872
   7.4297863  58.2431936  57.7696562  79.0026951  63.1704187  28.8918495
  78.1426048  63.3829832  28.5294986  79.5985842  63.2300949  28.1451321
  63.2488886  12.2452647  63.4258652  62.2955147  12.3171622  63.4721756
  63.5700313  13.0367954  63.8578033  73.3350658  59.2749548  41.0987425
  72.8363132  60.0307322  41.4090443  73.8159466  58.9726305  41.8691874
  75.2902699  64.2251444  26.6424775  76.1915255  64.5470905  26.6246367
  75.3574705  63.3454990  27.0138788  78.8726950  49.9225426  25.2668905
  79.1511488  50.7225847  25.7125735  79.2770624  49.2153025  25.7694125
  65.9877984   3.4547240  53.2238436  66.3877932   3.7953098  52.4236965
  66.6880933   3.4899528  53.8754416  36.3107346  21.8101699  14.7400391
  36.5950344  22.1709735  13.9002621  37.0952938  21.3977821  15.1014709
  20.4596947  10.9804923  33.9333773  20.8353041  11.7301662  34.3950534
  20.9326170  10.2240569  34.2803359  17.2645241  49.2051458  31.3303399
  17.0269161  49.3788481  32.2411633  16.8375355  48.3732080  31.1258984
  76.9797182  60.3030777  18.7528896  77.0650673  60.4552698  19.6940506
  77.0264721  61.1763954  18.3638334  21.3163183  16.1088283  57.5012827
  21.2476776  16.5885837  56.6758394  22.1091888  15.5810268  57.4063301
  67.7516603  70.1059961  45.8004284  67.7096891  70.7295179  46.5254736
  68.1005955  69.3056297  46.1927176   3.4522587  49.3137741  54.3998480
   4.0266281  49.6526718  55.0864983   2.6835209  49.8834038  54.4278574
  61.4198446  70.6259537  50.8962870  60.5482483  70.3110647  50.6567240
  61.3135004  71.5719032  50.9968090  26.1864334  62.2495031  23.5112858
  25.5168396  62.5734377  24.1137409  26.3509327  61.3508081  23.7967992
  51.5136194  67.7803516  36.2463188  52.3313046  68.1501198  35.9133005
  51.5829420  67.8635788  37.1973705  50.5358742  18.0264289  34.4887733
  49.6972702  17.8998286  34.0449786  50.9606502  18.7322623  34.0013385
  58.0522670  56.7854695   5.8545673  57.7960147  57.1917539   5.0266159
  57.9745235  55.8450322   5.6940449  59.3005037  56.3157320  30.7318997
  60.1914787  56.5629387  30.4843259  58.9439392  55.8917236  29.9513197
  24.4086256  36.4979320   2.2478951  23.8775005  36.5830426   3.0396593
  23.9448204  37.0176034   1.5913475  38.9207600   6.2011630  25.7425070
  38.7588165   6.8969447  26.3796020  38.2079552   5.5777843  25.8822632
  79.5183468  63.9757872  48.3117580  80.1760483  63.6664915  48.9346457
  79.0227747  64.6367979  48.7951899  10.3314016  14.0745647  56.1775303
  10.9124992  13.3556182  55.9291887  10.3083752  14.0444572  57.1339798
  15.8727064  31.8245082   9.2326534  15.8923330  31.4648252  10.1194847
  15.2122106  31.3025718   8.7770689  73.4647989  68.6724949  43.1230831
  73.7100887  68.7955666  42.2060680  73.1022882  67.7872610  43.1573153
   6.1203716   5.6251247  16.5042293   6.3772152   5.3034503  15.6400609
   6.1912392   4.8602206  17.0753133  41.3098611  38.1922727   5.1104963
  41.7930116  38.2478862   5.9349382  41.6016998  38.9542108   4.6099890
  17.3411900  55.5033016  33.1350040  16.3851219  55.5198765  33.0914998
  17.5680691  56.2418270  33.7001014   7.2717243  58.7981033  26.9986582
   7.8267914  59.2527437  27.6322532   6.4658219  59.3139219  26.9726992
  48.0293369  58.7134933  37.3363018  47.6177788  59.5275497  37.0461917
  47.3101234  58.0832672  37.3784304  73.9291668  49.2171717   7.2141331
  73.1271505  49.0934372   6.7064965  74.0516710  50.1661205   7.2409034
   5.8227021  39.6661234  35.9516883   6.0371453  40.5721283  35.7294369
   4.8675686  39.6543169  36.0135055  17.7783153  13.7836749  58.6245775
  17.4531315  14.0412910  59.4872046  17.5493620  14.5169646  58.0535173
   7.7442700  35.4565382  54.4488430   8.1302315  36.2580562  54.8021698
   7.8743702  34.8043704  55.1373100   4.1335541  61.0907221  60.1151991
   3.6664730  60.6580448  59.4004583   4.7602421  60.4358578  60.4228544
  51.9717636  54.4845395  15.2711571  51.9163313  53.5533814  15.4858768
  52.7830019  54.7780805  15.6858337  24.6780250  12.5913818  66.4448690
  24.2290447  11.7460353  66.4500046  24.2471073  13.0872257  65.7486725
  61.6255323  20.5582721  53.3893442  60.8927313  20.3140361  53.9546633
  61.5132562  20.0201041  52.6057625  12.5811336   1.0446889  17.6530015
  11.7106674   1.2333114  18.0036354  13.0661104   1.8625505  17.7631640
  42.0719814  61.6459846   9.7648770  42.0742750  60.6892538   9.7349662
  41.3042498  61.8672943  10.2919865  53.9787356  27.0392711  16.7139304
  53.6996524  26.3225372  16.1441720  54.8762433  27.2276885  16.4396751
  24.7258089   1.3240154  38.6825562  24.4282673   2.1763618  38.3644176
  23.9434812   0.9234483  39.0616894   9.0451580  73.2441378  43.9696264
   9.6730477  72.8136063  44.5498133   8.6423355  73.9214230  44.5130014
  78.1781395  57.4253275  63.7426137  77.8617485  58.3273413  63.6926299
  77.5674351  56.9268610  63.1996554  44.7603653  24.9268634  49.7592306
  44.1889046  25.4083545  50.3574228  44.2626808  24.1411597  49.5329428
  67.1396865  54.2844586   3.7384117  66.7503204  53.4130673   3.6655701
  67.1641292  54.4579701   4.6794355  65.3846828  13.1965549  25.6469059
  66.0617916  13.7333019  25.2350163  65.1758830  12.5303371  24.9920845
  60.2087402  54.3830204  44.5627975  59.9092150  53.6270618  45.0678158
  60.0765562  55.1292706  45.1474905  73.7722731  26.4794278  33.8182998
  74.5097589  26.2977886  33.2357550  73.0659771  26.7521739  33.2326555
  16.2587688   6.3012035  60.1838017  16.7036579   6.9627292  60.7136011
  16.9409273   5.6629379  59.9752092  21.8091828  64.9534512  30.1406026
  22.3881203  64.9829102  30.9023094  21.0001332  65.3693342  30.4384542
  21.9755226  57.2383928  39.2386222  21.3924652  57.8898382  38.8488793
  21.4016682  56.5046263  39.4588709  10.5414875  47.2976591  59.1926008
   9.7465738  47.6996042  59.5430040  10.9487494  46.8740179  59.9481809
  70.0083828  55.3141022  41.9985723  70.0958252  55.9395123  42.7179098
  70.9041309  55.0279093  41.8197966  29.6093986   6.3697345  22.0769548
  28.7521408   6.7630012  22.2402787  29.8570202   6.6871841  21.2085438
  49.9455728  28.8264708  11.0039986  50.0818004  29.6631532  10.5594337
  49.8561706  28.1900792  10.2945984  54.1395569  75.7569265  23.5202622
  54.9345589  76.0283327  23.9791036  54.3735886  75.7945299  22.5928760
  57.0780897  57.4908161  18.4983158  56.2216616  57.3381424  18.0990005
  56.8784857  57.8197527  19.3747807  79.4691791  43.5797219  10.5772150
  78.7737407  43.5610108   9.9197567  79.2132320  44.2806725  11.1766995
  67.6658201  58.0471897  56.1675739  67.9345751  58.8093567  56.6805077
  68.3310652  57.3851681  56.3557529  12.1572016  17.5106246  56.6508532
  11.9034670  17.3758991  57.5639248  11.8553064  18.3956821  56.4464664
  48.4874000  35.3542619   9.3427885  49.2043199  35.9180646   9.0522945
  48.3186521  34.7780900   8.5972775  71.6147757  51.0178137  19.2016292
  70.9370708  50.9108734  19.8690987  71.6343117  51.9590807  19.0288019
  61.8044090  49.6049166  22.5166106  61.3280296  50.3693724  22.8404880
  61.1330509  49.0613556  22.1042395  31.1668577  20.3161435   1.6717375
  31.1138715  21.2306838   1.3941753  30.8531084  19.8181825   0.9168661
  17.4369103  65.6177568  28.5365868  17.7231747  64.7084570  28.4502101
  18.0356747  66.1116028  27.9763818  70.5924654  47.7029896  21.5605974
  70.9422779  47.0874977  22.2048259  70.2823591  47.1492338  20.8440638
  57.2254173   1.1122997  29.4930649  57.7688495   0.3631932  29.7375107
  56.8387834   1.4069421  30.3176451  66.2611214  27.5971324  18.5029471
  65.8643929  27.6250942  19.3736124  66.8929092  28.3162029  18.5044146
  10.0683838  28.0987334  23.6873269  10.8361203  28.4125972  24.1651344
   9.8401505  27.2739029  24.1160417  25.6796509  67.0644712  46.4227438
  26.3820702  67.1017456  45.7735443  25.0331551  66.4699173  46.0422564
  70.3218746  61.3966656  31.2513924  69.3650007  61.3973141  31.2763929
  70.5432177  61.9945288  30.5373907   4.7522026  66.9258022  23.6249661
   4.7406441  67.8771877  23.7296677   4.1107613  66.7528772  22.9358482
  18.8532597  67.5784397  43.6322880  18.2381207  68.2411480  43.3182001
  18.2982975  66.8526554  43.9177465  61.7290058  69.8403935  22.0176399
  61.0228862  69.1953473  22.0569599  62.4987831  69.3729119  22.3418987
  75.8302164  20.3127766  25.0462317  75.5322599  19.8411965  24.2683721
  75.2384520  20.0257063  25.7416725  69.7749168  12.0845329   7.4377430
  70.0549251  12.1240818   6.5232695  70.2511817  11.3384068   7.8020084
  77.4350739  55.4857540  59.0449095  76.9786596  54.9613571  58.3869410
  78.3333158  55.1552057  59.0337086  78.0073452  70.2213240  65.4428720
  78.3035183  69.5735073  66.0822821  78.6927509  70.8894920  65.4437971
  10.9315830  56.4816427  31.8776417  10.5532986  55.6620073  31.5593100
  10.8901554  56.4101028  32.8312635  66.1372566  57.2271824  58.9598608
  66.8283272  57.2692394  58.2988882  65.4479122  57.7991438  58.6223698
  17.2238022  69.9044991  41.2194109  16.8366200  70.2803564  40.4288054
  18.1025368  70.2820396  41.2585354   0.5417883   4.1007259   4.1920674
  -0.1931228   4.5617437   4.5965421   0.1320528   3.4362745   3.6381239
  18.4845408  49.1235464   2.2669645  19.3672617  49.0741031   2.6338241
  18.0306490  48.3638542   2.6317716  80.6695797  73.8992604  25.7276320
  81.3053109  73.2353603  25.4605889  80.1074435  74.0144654  24.9614978
  14.4366988  53.3458298   0.4911510  14.5159443  54.2308252   0.1351507
  13.9848050  52.8520029  -0.1930724  73.8067637  39.2379960  58.1995123
  73.5964499  39.7855578  57.4430888  73.8853894  38.3540239  57.8408437
  14.9852284  58.7611060  39.3846965  14.8254689  58.7591045  40.3284693
  14.1468628  58.5064202  38.9993215  47.6671179  59.4427638  19.7888017
  46.8272074  59.3370884  20.2355909  47.4341257  59.7262543  18.9047313
  52.4078989  29.2500830  16.5892923  52.9086065  28.4580803  16.7848682
  52.1826887  29.1683316  15.6625617  57.0179033  23.1449127  39.0260482
  57.6109362  23.6617899  38.4807229  56.1504412  23.5078621  38.8471222
  24.1557940  42.5214546  35.9529519  24.6434553  43.0607574  35.3303981
  23.4281214  43.0769770  36.2324452  12.6156616  10.1094151  32.5634480
  12.1393478   9.2806125  32.6128626  13.0279601  10.2003038  33.4225059
  23.6539173  15.2826476  44.9725914  23.4956765  15.5663288  44.0721941
  23.7913227  14.3377507  44.9053621  12.5991114  67.4434375  19.2143404
  11.8325790  66.8778073  19.1209376  13.2778891  67.0150011  18.6928666
  63.8609076   2.2685514  53.8191319  64.6596003   2.7506340  53.6048508
  64.1685915   1.4034167  54.0895128   2.9441849  25.6368430  55.5573606
   2.2941176  25.6226046  56.2598133   3.5236708  24.9003561  55.7523334
  37.2874220  49.7660272  24.0126848  36.4321192  50.1220243  24.2534065
  37.1203097  49.2568081  23.2195902  14.2604506   4.7171474  46.3692808
  15.1841283   4.6506807  46.6114235  14.0768266   5.6564993  46.3807774
  57.3926090  27.0054000  13.1357396  57.2674777  27.9259913  12.9053438
  56.9221195  26.8993371  13.9625549  22.1804007  69.7033977  16.6198087
  21.7241867  70.5342083  16.4861953  21.4948758  69.0956037  16.8970740
  50.8872948  35.6240712  60.6193286  49.9878536  35.4768736  60.9118539
  50.8334504  36.3989527  60.0599622  68.6690181  24.9912548  35.1217294
  68.4029943  25.9107447  35.1224256  67.8712028  24.5109296  35.3431129
  77.3213794  45.1141589  32.6463127  78.1178095  45.5327695  32.9729557
  76.6757109  45.2544992  33.3388782  27.7865936  66.6324358   0.2949371
  28.6870505  66.5071564  -0.0045860  27.8751614  67.0458405   1.1537064
  49.8115071  69.4394897  15.8404827  50.3866490  70.1974832  15.9448493
  49.5648630  69.4515120  14.9156833  76.3703928  43.1160302  20.9962904
  75.8868323  42.7776561  20.2426970  75.7696495  43.0094649  21.7338430
  46.3317156   9.7000951  11.4414203  45.5504656   9.3017268  11.0577762
  46.2111473  10.6402874  11.3082504  46.6529355  12.9223557  63.0540785
  46.8047402  12.1794076  62.4699431  46.9883655  13.6783452  62.5722056
  70.6922426  55.2380841  10.2554178  71.1127259  55.1360171  11.1092377
  71.0225894  56.0731237   9.9240410  49.4598492  75.1413221  13.5399485
  49.4885882  74.3064179  13.0726779  49.6652325  75.7963355  12.8728592
  72.5592337  73.6096163  62.0448315  72.6466475  72.7346082  62.4229228
  73.3553420  74.0676374  62.3143917   6.8662866  70.9475719  19.7059429
   6.1239775  70.4744350  20.0819087   7.0709213  71.6240465  20.3514957
  72.5468292  62.5546961  23.6455870  72.9765191  63.3808856  23.8669658
  71.9342520  62.7831321  22.9464483  80.1701127  59.4820018  48.3320057
  79.2545805  59.2128963  48.4069645  80.6668673  58.7399001  48.6766076
  56.9873619   6.2478238  31.2943625  57.0022488   7.1801317  31.0780001
  56.7208433   5.8176196  30.4818845  69.6123757  36.6188901  44.5407963
  69.4710853  37.0369165  43.6913729  69.4829239  37.3213880  45.1779556
  50.9590157  62.7130966  26.5816164  51.0019501  62.2844761  25.7268238
  51.6995629  62.3513537  27.0684099  64.4192982   2.0661989  27.9722333
  63.9609194   2.1055660  27.1328449  64.1681623   1.2201317  28.3428216
   5.9897765  70.8938294  27.2798014   6.7680152  70.3414493  27.2059631
   6.0735281  71.3123416  28.1365776  31.4886594  27.2806168  26.4235187
  32.0481133  27.2482061  25.6475067  30.6249428  27.0155644  26.1073399
  47.6627636   0.5503947  15.0026321  47.7572680   1.0230321  14.1756415
  47.6345110   1.2369619  15.6690097  22.1729096  65.6385045  53.0325842
  22.8000029  66.3424473  52.8669167  22.0559510  65.6405967  53.9826059
  54.7080088   1.2913941  40.1826048  55.0212717   0.3902584  40.2604055
  55.4206753   1.7556393  39.7434974  52.8534126   4.6744570  32.8810692
  53.2955170   5.1230848  33.6018372  52.9700661   5.2557731  32.1296072
  32.2198113  66.0536115   8.5136914  31.5527495  65.7210033   9.1142207
  33.0480440  65.9064882   8.9704329  64.9497994  72.1694191  41.2780380
  65.1096447  71.2764513  41.5834665  64.6424492  72.0632114  40.3777647
  50.0780725  24.9575496  63.6372328  49.7085905  25.7430339  64.0406370
  50.6406212  25.2896118  62.9375887  42.5847387  10.0428104  42.7771616
  41.8349695   9.6123469  43.1879950  42.4258900  10.9775388  42.9086208
  41.9329834  16.9784427  45.9985113  41.3477373  16.8546212  46.7457628
  42.7026749  17.4125159  46.3664532  23.9346290   9.6555710  19.2730713
  23.0480719   9.7544718  19.6201539  23.8555932   8.9750689  18.6045635
  26.3691815  51.4708345  28.6652088  25.6703814  50.9923404  28.2191634
  25.9431942  51.8602197  29.4288492  15.4410887  45.5618858  24.9773955
  14.7343409  45.8490372  24.3992209  15.9611702  44.9635220  24.4410110
  28.9275034  73.9519258  29.9434328  29.7021969  74.4825754  30.1291394
  28.3266934  74.5517414  29.5013022  51.5997744  26.5954232   0.3272404
  51.9099045  25.9889793   0.9997551  51.3150597  26.0309005  -0.3914260
  16.7250117  73.0990144   7.5031388  15.7862910  73.1858256   7.3372966
  16.8006142  72.3151671   8.0472887  42.6577044  20.4975057  19.5645368
  42.5356817  19.6752942  20.0392056  43.1105185  20.2446795  18.7600064
  49.6045589  12.5968361  30.3781533  49.4042158  12.7642655  29.4572520
  49.2478180  11.7246270  30.5461407  41.0408219  31.6919701   2.7728933
  40.1551922  31.7853539   3.1238455  40.9137209  31.5648692   1.8327215
  47.9045773   8.2937306  13.1513619  47.4317169   8.8500965  12.5324190
  48.7920094   8.6521804  13.1659961  74.4461801  48.8456671  34.6638966
  73.9102985  48.1523507  34.2787027  75.1330711  49.0050571  34.0165877
  71.0736142  50.1349337  50.0746762  71.2572489  49.4076366  50.6692767
  71.9297181  50.5285342  49.9061501  63.3352282  75.5201316  48.3836651
  63.6173328  75.8375840  47.5258350  63.0641599  76.3087392  48.8536119
  30.0006533   1.0700062  16.2327814  29.7892833   0.5198065  16.9869924
  29.7909069   0.5263248  15.4734075  38.1996608  28.4398580  37.9952264
  38.4958196  29.2074323  38.4844637  37.5846243  28.7894535  37.3504424
  71.9775877  40.0803016  53.9295387  71.2074480  40.0702075  53.3611953
  72.7186737  39.9913270  53.3302843  41.7806959   2.2458278  27.4723840
  41.2894630   2.1873744  26.6529274  41.6690779   3.1537348  27.7543020
  19.4717463   2.4353983  58.0087769  20.0672778   2.6772406  57.2994917
  18.6136158   2.3711588  57.5895935  49.1080713  39.5367980  15.5419731
  49.9914646  39.8423934  15.3359246  48.6531258  39.5338726  14.6998024
  35.9260368  39.6359420   4.3990064  35.5770397  40.2190304   3.7248844
  35.9847593  38.7821722   3.9702150  24.9241567  31.5331626  20.7082772
  24.0929532  31.7112589  20.2682567  25.2352309  30.7191610  20.3122139
  22.4295759  15.8756077  21.8372750  23.3311367  15.5561948  21.7999077
  22.2310281  15.9235537  22.7724290  62.2028303   1.5928200   6.6334897
  61.4218140   1.7924345   7.1496272  62.8954744   1.4739531   7.2833765
  30.0321921  64.5994418  30.2613926  30.1025303  65.5527811  30.3106642
  30.8441790  64.3209403  29.8378968   1.5931278   3.2365236  38.6158061
   0.8845574   3.4115607  37.9965091   2.3777157   3.5740909  38.1837225
   7.6893479  12.6861119  24.3705010   6.8977410  12.6559699  24.9077821
   8.3422524  12.2048390  24.8787618  27.9370499   6.4609426  25.5139446
  27.3826528   6.0978359  24.8232698  27.3214388   6.8464559  26.1373520
  38.8617714  48.8840621  11.4424205  38.8143023  48.6607926  12.3720062
  37.9739245  49.1619914  11.2172127   1.4608940  65.5565160  29.4586968
   1.2869128  65.2496701  28.5688615   2.4156054  65.5934172  29.5169520
  74.1819477  14.1072309  44.1184473  74.1328573  14.6869612  44.8785353
  74.4465828  13.2610703  44.4792938  10.2953879  47.7992023  42.8819692
   9.7034661  47.0997418  42.6051652  10.4038207  48.3437653  42.1022737
  55.7952595  43.3050489  18.8056219  54.8526764  43.1435347  18.7645912
  55.8967638  43.9556503  19.5003486  45.2499104  15.1083052  42.3528433
  44.8404455  15.7982373  42.8749228  45.3320169  14.3689370  42.9551935
  53.8752174   6.6562915  17.3683023  53.4506941   7.3796332  17.8295922
  53.3115768   5.9011793  17.5366652  70.1172058  59.0744088   5.7483662
  69.5863144  58.4747408   6.2725628  69.9137441  59.9421022   6.0975683
  76.2442424  64.9553602  53.8551807  76.6156485  64.4035261  54.5434904
  76.7192199  65.7830792  53.9294100  71.9126749  21.2564802  26.1057043
  72.7099323  20.8678055  26.4656186  72.2252035  21.8828654  25.4528642
  30.0775766   3.6924192  38.7368035  30.6381989   2.9173049  38.7031507
  30.1001191   4.0431556  37.8464627  45.8492184  18.4703505   3.9995334
  46.0323715  18.9267468   3.1783211  44.9000025  18.5364056   4.1037178
   2.7694305  26.8670647  32.1997118   2.1810850  26.6803019  31.4681363
   2.4929674  27.7272170  32.5158405  39.6015000   2.3600622   1.9401687
  39.4604039   3.1341344   2.4852704  38.9862442   1.7112036   2.2817427
  34.4464970  13.9764845  32.5498152  34.3365479  14.9214208  32.6558256
  35.3425002  13.8055670  32.8399873  60.8515797   5.4605050  66.1119092
  59.9457250   5.2322407  66.3206068  60.8867846   6.4122958  66.2072202
  35.5287576  17.9251647  25.5705190  35.8085966  18.3274162  24.7482562
  34.9556613  18.5774553  25.9733939  52.6105022  18.1705749  15.3046870
  52.9624987  18.4770989  14.4689989  52.5292158  18.9629924  15.8354402
  35.9673905  42.6021147  14.4944263  36.4926481  41.8021345  14.4753158
  35.0660610  42.2995424  14.3835831  22.7055717   4.3858808  13.3795249
  23.5391045   4.7666860  13.1030416  22.1223927   4.5176134  12.6320088
  50.3566217   0.2491186  47.0393276  50.3123188   0.8319152  47.7973652
  51.2911081   0.0770015  46.9238281  72.7476780  25.9387563   3.7232054
  72.5381843  26.7925761   3.3446062  72.6066724  25.3184841   3.0079353
  16.9648701  18.7885642  58.0644560  16.6966397  18.7815070  57.1456337
  16.7237908  19.6603537  58.3776569  52.5049353   3.7633991  28.6556220
  51.6290903   3.4367657  28.4496236  53.0276489   3.5513899  27.8822827
  50.3786516   2.7955565   6.3817596  51.0998201   2.8624296   7.0076013
  50.4157448   1.8915564   6.0692865  31.2839913  32.8716230   8.4031129
  30.3885293  32.8290772   8.7386262  31.2842155  33.6278486   7.8162938
  21.6396832  22.1490765  23.1408715  21.5163231  21.1999607  23.1547379
  20.7607102  22.5028872  23.0050159  65.4483128  20.8718729  29.6940327
  66.1125755  21.4481068  29.3159556  65.5780315  20.0335455  29.2506218
  26.8222539  44.7681035  64.8515412  25.9199635  44.8468126  64.5418404
  27.2747056  44.2947896  64.1533342  21.6639638   8.9893150  35.7226872
  21.1910415   9.1525978  36.5387225  21.5952897   8.0436856  35.5911565
  24.4279822  76.2795017  39.2532396  24.8751934  76.5259331  40.0628710
  24.7433813  76.9085770  38.6043811   7.6523145  73.2849743  36.0227942
   7.5874527  72.9719626  36.9250393   7.4404891  74.2168801  36.0767674
  50.6999063  13.5755968  34.7159052  50.0577021  14.2723095  34.5802736
  50.8487892  13.2137120  33.8423467  10.8912595  71.9365503  33.2217216
   9.9485453  72.0985421  33.2575345  11.2377342  72.3645102  34.0046883
  27.2472310  16.1510825  23.6051273  26.8156195  17.0006526  23.6955309
  27.5056767  15.9176493  24.4967246  14.0832579   6.0345310  23.1555891
  15.0311971   5.9446323  23.0578065  13.9706552   6.8278575  23.6792159
  35.1013255  23.6735511  19.7542572  35.4386163  23.4937859  20.6318402
  34.3908381  23.0429411  19.6369100  59.9135447  15.2598596   1.2068108
  59.5363808  15.0654006   0.3488103  59.4906998  16.0756457   1.4749998
  37.5507975  11.0656905  53.6691570  37.9190874  10.1834333  53.6220789
  38.2811475  11.6152573  53.9534044  13.7017057  61.8676231   2.9536951
  13.6735723  61.9303963   3.9084232  13.7534950  60.9283278   2.7768505
  70.2618933  32.3166847  42.0189095  70.3578043  33.2145953  41.7014360
  69.4750834  32.3379922  42.5636196  39.4124516  68.0780970  31.5004492
  38.6111363  68.5491126  31.2718296  40.0391301  68.3278965  30.8213973
  49.2360258  31.2371731  13.6603057  49.6492147  30.3749657  13.6144054
  49.1434050  31.5073228  12.7467024  68.4267282  11.9524884  16.2247658
  68.7128496  12.8614378  16.3152099  68.2730722  11.6592634  17.1228969
  52.2051239  23.0406427  19.5766687  51.6113853  22.2917914  19.5225692
  52.7358294  22.8698063  20.3547430  46.3492020  69.7492712  42.9114819
  47.0433195  69.0907090  42.9384947  46.3824662  70.0958859  42.0198679
  54.4493532  25.4507303  19.6550798  55.3838348  25.3254032  19.8202240
  54.4089079  25.8112574  18.7692940  66.7238013  45.8442012  17.3564613
  67.2366563  46.6281913  17.1600712  66.7593686  45.7673500  18.3099068
  14.8925885  56.3716905  13.2132149  15.5347403  56.0684388  12.5714135
  14.0450962  56.1518400  12.8263557  51.0372257   3.7515134  39.5605946
  50.4774666   4.0904170  40.2591991  50.4446316   3.6229911  38.8199544
  12.8137406  54.2541712  35.1201367  12.6530918  53.5857718  34.4540548
  12.6675042  53.8034957  35.9518456  45.5442190  20.1095843  63.1588602
  45.9993887  19.4631362  62.6192760  45.1415348  19.5961416  63.8591814
  25.5780721   4.5313972  27.1290874  24.8749590   4.3535972  27.7537894
  26.2767458   4.9164596  27.6580596  50.9175634   3.3592036  31.6228032
  51.6196775   3.7853700  32.1143818  50.1364517   3.4873033  32.1610260
  72.7028714  34.0191818  66.0678087  72.3588095  34.9022846  65.9337083
  72.5456391  33.8390581  66.9946658  37.6093109  56.2266820  14.2460060
  37.3572548  55.9306662  15.1206911  38.4143885  56.7255216  14.3847156
  69.1008101  27.8002961  50.2189016  69.4616900  26.9502683  49.9670028
  68.2310734  27.8190858  49.8196113  36.5590405  10.9619594  13.0123484
  36.8775320  11.7803299  13.3932221  36.7518687  10.2984691  13.6747897
   8.8300999  25.6545298  32.7175522   9.6025046  25.1947730  32.3885465
   8.9166029  25.6168692  33.6700916  44.3773603  22.6849389  32.6746702
  44.9559402  23.4389043  32.7887201  43.4954119  23.0569267  32.6795197
  11.0673459  48.4595483  11.5899503  11.5053018  47.9881327  10.8812964
  11.5734323  49.2658513  11.6898584  36.2938976   8.5161531  19.9173510
  36.8477154   8.5984337  19.1409814  36.1868238   9.4139975  20.2314258
  32.4450835  44.2560547  30.2445388  31.9980963  45.0105517  30.6281614
  31.8957384  44.0041607  29.5022464   5.3019253  53.7328346  57.0614361
   5.5320136  53.2949252  56.2419688   4.9024598  54.5585365  56.7878007
  76.2996809  16.8394206   7.7381933  75.4108421  16.5017507   7.6278294
  76.3669054  17.5499103   7.1002996  45.8002520  14.4600785  32.0618510
  46.4536905  14.5361984  31.3665414  46.3089895  14.4841313  32.8723097
  25.0388670   8.9988410  26.0369682  24.7304726   8.8518471  26.9311237
  24.5927835   8.3304775  25.5168414  26.6468692  23.1303048  29.3766665
  27.1474648  22.3152757  29.3397522  27.0416594  23.6845684  28.7034941
  21.9530749   9.6579093  43.4743404  22.4770713   9.0655601  44.0135813
  21.4160657  10.1413929  44.1021109   9.0995820  68.0657398  42.0230961
   9.5457967  68.6990522  42.5852680   9.7934683  67.7044593  41.4715242
  59.7042465  25.8881259  51.0444784  59.6052885  26.5071034  50.3210783
  58.9005804  25.3684735  51.0266972  17.8067549  66.8614601  18.6759567
  17.1726712  67.2425013  19.2833924  17.4013432  66.9587230  17.8143227
  63.7229794   4.2362872  20.9408379  64.4534892   3.7076986  21.2620568
  63.2965571   4.5623085  21.7333698  40.8540249  27.3686266  26.6261554
  40.7970667  26.6721249  27.2802782  41.7814493  27.4016380  26.3915753
  78.0233574  39.4603539   9.7046810  77.8702307  40.0966740  10.4031658
  77.7125692  38.6297894  10.0649667  11.5255388  57.6004999   4.3145031
  11.1432250  58.2059722   3.6793089  11.5250619  58.0866080   5.1390821
  16.2858057  33.6057973  37.6329207  15.6390548  32.9743981  37.9480052
  16.9061065  33.0810022  37.1269083  13.3239992  71.9550999  37.8761101
  14.1632326  71.6984444  38.2582641  12.8587731  71.1291902  37.7431726
  15.1549292  12.9635334  29.8841977  15.5535865  12.8868830  30.7510471
  14.6665287  13.7861001  29.9170685  74.7565041  50.2547855  66.0958938
  75.2953062  50.3496964  66.8813356  75.3851567  50.2432151  65.3741615
  38.6503124   5.8807993  14.5905232  38.5820794   6.5826267  13.9432096
  38.4422231   5.0839633  14.1026878  78.7296679  63.9957993  52.4124289
  77.8606894  64.0949254  52.0234776  78.6266448  64.3076675  53.3115149
  68.8669548  45.7973404  58.7874984  69.2775355  45.3876503  58.0260443
  69.4458447  46.5270324  59.0081173  78.2042338  57.6058512  22.8307605
  77.9184630  57.8802185  23.7021327  77.4290015  57.2021597  22.4405265
  21.4005280  20.9658122  17.2891665  20.6138635  20.4607964  17.4949551
  22.0395994  20.3103542  17.0095348  68.4328365  25.3817677  13.1923401
  67.5014639  25.4620266  13.3981025  68.5879707  24.4382453  13.1483650
   0.4715536  55.3799782  -0.2856743   0.4820297  54.9004314   0.5426729
   0.8910082  56.2163065  -0.0835812  68.4800778  29.0076960  65.6431625
  68.6124335  28.3639820  66.3391117  69.1375790  29.6823628  65.8127240
   9.8387432  28.6340404  29.1894293  10.3746068  27.9540300  28.7811780
  10.4413092  29.0961671  29.7721672  52.4499234  60.2222197  39.4656372
  52.6595791  61.0542898  39.0414500  51.9901141  59.7196965  38.7931180
  43.7195063   9.2827684   6.0202962  44.2783308   9.3056577   6.7970991
  43.6918020   8.3586621   5.7723200   9.1560823   9.3565917  42.7831364
   9.5773983  10.1985765  42.9557228   8.7496829   9.1169488  43.6159897
  73.1578996  75.0863213  59.8745251  72.7645280  74.3262701  60.3032589
  73.4568038  74.7554730  59.0275145  45.9586390  60.3459220  17.5622344
  45.6491574  59.5483105  17.1329689  45.5191382  60.3462463  18.4125710
  26.8517852   5.8743078  19.1363752  27.6167893   5.3341508  18.9383006
  26.7152023   6.3954353  18.3451712  21.8923910  60.7333570  43.3106136
  21.7091330  59.8892324  42.8981733  21.0331496  61.0627120  43.5741758
  77.4426868  66.6687124  33.6320734  77.1716144  65.9349840  33.0803537
  76.6308119  67.1394568  33.8204646  63.4875774  11.9722819  21.6909480
  62.6764202  11.4663208  21.6433811  63.1990290  12.8760326  21.8182564
  60.8555698  25.8769989  15.2265513  60.8675909  25.8272314  16.1823821
  60.3168249  25.1339436  14.9547839  46.3518524   5.8472806  17.5347483
  45.5471039   5.4745221  17.1746612  46.3396215   5.5964530  18.4584188
  73.9259968  54.2654235  60.7483476  73.3554135  53.5526462  60.4609167
  73.6077319  55.0332708  60.2736371  80.8687774  47.7931575   2.1035183
  80.8954136  48.7403331   2.2390974  80.8939687  47.6865117   1.1526144
  20.2210816  76.6126310  19.3016756  19.6221932  77.2471575  19.6952999
  20.4961212  76.0580211  20.0317407  13.2641427  29.3153120  60.9115123
  12.4628417  29.1812773  61.4176550  13.4428374  28.4623559  60.5155742
  12.9854210  71.5708285  45.5077982  13.7688216  71.2151681  45.9273481
  13.1041106  71.3794225  44.5774698  53.3366595  60.9043117  62.5550940
  52.5834642  60.3897877  62.2649306  53.7776623  61.1610265  61.7452514
   9.8754817  27.2009182  59.6503305   8.9592874  26.9484973  59.7648001
  10.1403642  26.7774534  58.8337851  70.0134460  59.6335218  17.7800262
  69.9994890  59.3780301  16.8576611  69.5842687  60.4889248  17.7981365
  58.4321976   6.5383798  12.7523208  58.7147331   7.3844981  13.0994356
  58.1178761   6.7344642  11.8697202   7.4757250  76.1558280  32.0265079
   6.7554553  76.2793219  32.6447248   7.3335465  76.8244415  31.3564539
  40.3321552  14.8899066  20.3799272  40.8385897  14.1140902  20.1393771
  39.4918966  14.7744918  19.9362183  47.8003693  16.6125774  39.7815084
  47.3497248  17.2659385  40.3165531  47.0982933  16.1610973  39.3130112
  21.0937802  39.4567149  61.1040920  21.0177724  38.5093907  60.9899353
  21.4945332  39.5625990  61.9668883  46.3167763  48.0174637  10.8279669
  46.3228846  47.4145317  10.0845516  47.2282934  48.0487680  11.1184561
  71.0975504  15.6047213   5.6273389  71.0747242  16.5260041   5.3685939
  71.1456680  15.1248479   4.8005146  33.6061215  10.0594282  36.0746694
  34.0693283   9.6289378  35.3560948  33.3174300  10.8947909  35.7071638
  53.1648540  20.8783531  30.7893920  53.0673170  19.9266469  30.7581782
  53.8284683  21.0729432  30.1275897  36.8528914  11.2726295   6.4027143
  37.3886156  11.4968300   5.6418157  36.0702085  11.8163371   6.3131607
  73.0495977  45.3954124  14.5601249  72.7034950  46.2853575  14.4934547
  73.9987230  45.5104065  14.6066785  24.6713978  -0.0676412  19.5901346
  24.1680294   0.6961471  19.3082166  25.4629666  -0.0446022  19.0524256
  78.7091351  14.2348850  18.6478209  78.0307722  14.7633159  18.2273245
  79.5326710  14.6099353  18.3357942  33.8010907   3.4987736  17.5976384
  34.6187043   3.6838132  17.1355772  33.7331843   4.1940051  18.2520640
  19.6868761  66.3587671  66.6476154  18.9500435  66.2469559  66.0469437
  20.2508124  67.0017963  66.2178183  45.8236217  33.5278916  14.1494989
  45.8686972  34.4793558  14.0550697  45.9029055  33.3766556  15.0913453
  52.8960466   4.4404793  15.2568007  51.9996643   4.7624302  15.3520787
  53.3361673   5.1091003  14.7319484  64.0104580  14.4156814  64.7401667
  63.7813234  15.2716374  64.3781328  63.3068419  14.2213774  65.3593588
  70.3416262  32.0753599  63.2262116  70.1551209  32.6265968  63.9862024
  70.9604178  32.5871153  62.7052167  50.9744978  33.7424374   9.8015755
  50.0486135  33.9110494   9.9763483  51.4204359  33.9927959  10.6107044
  63.7817621  20.7939553  25.9980607  64.3074322  20.0093317  25.8422804
  64.1088343  21.4313149  25.3632116  18.4642561  45.8809774  43.4275103
  18.6173590  44.9419396  43.5324001  19.2698820  46.2121408  43.0306053
  70.4628565  50.6790035  16.7859244  71.2344291  50.8677690  16.2518132
  70.7815518  50.7137864  17.6878417   6.5883499  23.8988042  59.2455959
   6.8031746  23.1198740  58.7324238   5.6380898  23.8597488  59.3538237
  64.9276924  16.6563845  17.6865101  65.1019573  16.5394521  16.7525983
  65.7066154  17.1003735  18.0217481   0.8548180  54.5740743  56.2768256
   1.5228764  53.8889773  56.2529206   1.1269252  55.1490994  56.9920420
  17.7365931  72.3740320  61.2827539  17.4404868  73.2241785  61.6080284
  16.9348963  71.9321828  61.0029554   5.9059207  73.4258242  59.4072920
   5.3412596  73.6716146  58.6745065   5.3339068  72.9329796  59.9956226
  30.0424099  10.4817069  36.1006355  30.3867888  10.8584929  36.9103694
  29.5414257  11.1921489  35.6999874  67.0031738   9.0889573  22.7136946
  67.4110031   8.2233042  22.6901507  67.2838545   9.5081574  21.9002318
  25.8204858  67.9900951  58.8173753  26.2258355  67.1755810  59.1148352
  25.4271476  67.7676506  57.9735511  15.0567776  31.0538673  37.7696562
  15.0075871  30.2013922  38.2022071  15.2824169  30.8493352  36.8621969
   7.8307652  37.6755381  35.9562659   8.6191875  38.2178450  35.9792209
   7.1196592  38.2773018  36.1763644  44.5949459  27.1997213  56.6641188
  44.1797495  28.0610681  56.6202116  44.1793299  26.7713618  57.4124527
  33.2425475  10.6560016  21.8276191  32.9956508  10.3393412  22.6965261
  32.4297619  10.6284845  21.3227892  54.7896528   5.1579744  23.8487244
  54.1950417   5.7979584  24.2399955  55.6306744   5.6122100  23.7979031
  70.4922390  18.3768427   5.4741770  70.4253006  18.6222398   6.3969612
  70.8823442  19.1415012   5.0506848  62.9744625  25.2776384   8.3227527
  63.7980604  25.2593160   8.8101804  62.7929401  24.3589401   8.1245798
  61.3449192   5.2963471  15.8814585  62.2804689   5.1953155  16.0568798
  61.0299635   5.8666718  16.5827167  25.6322914  10.7841861  36.3086867
  25.5245453  11.6152644  36.7712116  25.8217865  10.1487207  36.9989824
  71.3330412  18.4225488  59.1953897  71.6834354  17.8599524  59.8859978
  71.9049740  18.2643175  58.4443331  12.7077731  58.7215631  35.5069995
  12.2698696  58.7334399  34.6559215  13.5997589  59.0151470  35.3215194
   4.3693241  73.1041442  47.4318027   3.6096986  73.5002398  47.0048237
   4.9978908  73.8211583  47.5156260  78.6361027  27.6407194  12.1702027
  78.4390926  27.1309733  12.9560649  78.8425589  28.5160279  12.4979913
  27.3777310  13.9515634  66.4349643  27.0669381  14.6177144  65.8218706
  26.5796868  13.5381026  66.7642125  56.0369062   4.5301014  20.8541632
  55.8572674   5.3848052  20.4624462  56.3515091   4.7318608  21.7353868
  55.6594944   0.7074716  43.3602858  56.1344194   1.3424699  42.8241396
  54.8266554   1.1360043  43.5576963  50.4373693  28.0774570  34.9802423
  51.2736225  27.6290536  34.8543549  49.9815512  27.9731369  34.1450310
  10.2752358  39.1359115  11.7961740  10.4513317  39.7907090  11.1205566
   9.5116955  39.4739485  12.2641122  42.9086264  64.5676844  32.7857733
  43.8211783  64.4712751  33.0581474  42.6548632  65.4350393  33.1012607
   0.5821951  71.9487788   0.2832068   0.2424272  71.7798754  -0.5955771
  -0.1860563  71.8943324   0.8515880  57.0901285  14.0306540  36.4382851
  57.8738795  13.6419196  36.8266808  56.3839803  13.4269185  36.6686952
  31.6185665   4.8634660  43.7428379  31.6397715   5.2961808  42.8892899
  32.5397730   4.7498626  43.9767265  35.9820771   3.0121845  31.0390806
  35.5646062   3.1672171  31.8863797  35.3068209   2.5819588  30.5145168
  31.5898903   4.8540165  59.1274583  31.2478598   5.5488398  58.5649061
  32.3686465   5.2355196  59.5327126  31.6062504  34.8651361   6.3064122
  32.5323731  34.9838138   6.5172637  31.5301853  35.1467133   5.3947324
  38.5068727  23.1477928  39.1307139  38.7889981  23.0742097  40.0424290
  38.6691689  24.0632153  38.9029121  61.3498116  30.2758718  19.7688425
  62.0904541  30.8509707  19.5766401  61.3634872  30.1778030  20.7209063
  32.7328547  67.6302670  21.7012763  32.5521906  66.8139057  21.2352848
  33.6853798  67.6472430  21.7942262  44.7869356  63.4748130   0.7018540
  44.0693959  63.9856642   1.0765512  45.3853615  64.1299408   0.3427900
  39.1595125  10.0097144  26.3428116  40.0124168  10.1238406  26.7620516
  38.5271001  10.1174164  27.0532250  66.2100802  48.8311536  66.7302376
  66.4512215  47.9371889  66.4875252  66.0439978  49.2694075  65.8956222
  23.9378460  61.6156774  64.9444580  23.8975867  60.7522171  65.3556108
  24.1430481  62.2137969  65.6630516  78.9841900  52.9316337  56.8234360
  78.4041987  53.2223029  57.5272488  79.4793950  53.7145336  56.5824449
  48.1222820  21.4984465  45.3684330  49.0063190  21.4346504  45.7298756
  48.0709028  20.7838178  44.7336864  60.2545977  31.3400459  35.7486272
  60.3405476  30.4485798  36.0864615  60.3280973  31.2444496  34.7990537
  67.4051390  22.9852624  43.7556231  68.0274687  22.8319139  44.4665539
  66.8262492  23.6713536  44.0878808  33.5462952  41.5775633  13.9919770
  32.9211640  42.2158766  13.6484647  33.5221100  40.8562994  13.3631492
  38.5783299   4.3792965  48.1457543  38.1899842   5.1972582  47.8353309
  39.1903456   4.6494009  48.8303756  44.0379286  37.1090984   9.2972445
  44.7268677  37.6022601   9.7426510  44.0783548  36.2357616   9.6869659
  41.9965895  76.1076567  41.0359335  41.6651018  76.6628687  41.7416906
  42.5452145  75.4599428  41.4783287  71.3755178  53.0687237  25.8777761
  70.5741930  53.5841274  25.9697819  72.0763254  53.7197733  25.8425999
  77.1707010   0.7582740  41.2571812  77.4390602  -0.0868767  41.6176462
  77.9859543   1.2529109  41.1739588  59.7628983  71.4717256  56.0661840
  59.6280011  72.2753521  56.5683985  60.6158932  71.5906714  55.6484747
  54.8778820   1.7050338  54.6314192  55.7663870   1.6317293  54.9798632
  54.9823999   1.6028759  53.6854458  67.8697300  36.8301392  34.7938776
  68.4841871  37.5329518  34.5823884  67.0962906  37.0203876  34.2629981
  47.7667769  59.3607764  28.2798171  47.0932968  59.2856019  28.9558387
  47.8417023  60.3015535  28.1199479  33.5678244  27.4618673  42.1437073
  33.9566445  27.3765087  43.0142021  33.7905860  26.6431904  41.7005634
  70.8412933   8.8414049  20.8043575  71.2427378   8.5043907  20.0034261
  71.2824631   9.6764261  20.9603691  44.5383453   8.7256396  13.6939216
  44.8712111   8.1898016  12.9739845  45.1268530   8.5369825  14.4248796
  46.4018106   9.7516537   0.9109063  45.7298994   9.2220891   0.4815704
  46.5358877  10.4930902   0.3205447  47.3767805  39.8142266   9.7690547
  47.4059391  39.6636844   8.8242161  48.1521702  39.3661332  10.1070213
  24.1780241  75.1133171   2.9979506  23.2244213  75.0554623   2.9385635
  24.4860800  74.2375015   2.7649748  50.5580044   6.6389287  10.9074450
  51.0442257   7.3459619  11.3316202  51.0922050   6.4021438  10.1492965
  81.3878918   9.8521733  36.6935492  80.6124878   9.3297625  36.4884329
  81.3744736   9.9366045  37.6469231  79.7904444  16.4578700  29.6954012
  79.8947477  15.5605745  30.0119686  79.7626591  16.9905484  30.4902053
   6.2574631   3.2565421  17.8197455   6.6885239   2.4784356  18.1732512
   5.3596550   2.9743814  17.6449227   8.4864108  72.9151959  52.9439520
   8.3039014  73.8384743  53.1185281   7.7393500  72.4484010  53.3184242
  21.9773920  59.7906213  27.7955937  21.1191138  59.5892041  27.4227285
  21.7994936  60.4555636  28.4607530  41.6915035   5.5585027  18.0468750
  41.4339972   6.2678879  17.4580669  42.3895025   5.1002365  17.5788713
  35.8820796  25.5767298  15.6335831  36.6306186  25.2775121  15.1174533
  35.8430791  24.9700356  16.3729310  44.2010975  29.1378188  18.2279086
  44.2308092  28.2014298  18.0316257  43.4296179  29.4563961  17.7593362
  62.5321015  65.0910800  24.7121978  63.2345208  64.4505184  24.8241258
  62.7688225  65.8107810  25.2971983   1.6168362  16.6661799  38.5151434
   0.7484585  16.5823448  38.1212759   1.5064770  16.3429511  39.4093347
  31.8619823  31.7003036  19.8329890  32.7568936  31.9269586  20.0859594
  31.4740515  32.5302076  19.5554972  46.2107468   9.3337297  22.7941084
  46.1986542   8.6545968  22.1196723  46.3944197  10.1425493  22.3162913
   0.4404217  33.2584929  24.9433303  -0.2488750  33.6730289  25.4622269
   1.2407547  33.7178254  25.1977205  68.7565041   9.9444634  24.9448776
  69.1333485  10.8236623  24.9098134  68.5664654   9.7287452  24.0318680
  57.4216127  22.0712972   6.3572079  58.0392027  22.1773124   5.6336236
  57.6811790  22.7378583   6.9932532  27.8557897  24.5067406   5.0800294
  27.0355368  24.9838591   5.2056456  28.0697846  24.1655111   5.9483606
  56.1059523   8.5897541  47.1229410  55.3310204   8.7216502  46.5767622
  56.5554953   7.8443158  46.7248583  38.9119887  25.2223229  25.2983689
  39.1314030  25.0455976  26.2131691  39.7424793  25.4802608  24.8983908
  38.3722758  17.6201081  15.6895387  38.6963630  18.4672189  15.9954846
  37.9315639  17.2430599  16.4510107  30.5447626  10.5146480  13.6916065
  31.4474154  10.6474483  13.4021008  30.5649948   9.6830118  14.1651082
  80.3647041  33.0577230  39.4852066  79.9459267  32.3615408  39.9913573
  79.7557831  33.7941337  39.5413494  24.3044162  34.1258478  23.4542394
  25.2154136  33.8433552  23.3735323  23.8464236  33.6604071  22.7543545
  50.1789006  75.9972383  18.7023723  50.9613188  75.6976940  18.2394242
  49.6090420  76.3389641  18.0133748  35.8342004  10.5737484  23.5878658
  35.5663705  10.9017968  22.7294493  36.1090422  11.3550270  24.0677571
  71.2051058   6.2241477  11.6532350  71.7501640   5.7923603  12.3110354
  71.3594389   5.7265818  10.8502150  18.3041485  38.5246556   5.0015372
  19.2279633  38.2937472   5.0989056  18.0892428  38.9969127   5.8059126
  14.6182688  70.5574440  55.5082083  15.4926260  70.1725184  55.5679083
  14.2171105  70.3735452  56.3576078  62.3657036  36.0389614  42.2949505
  62.2982359  36.5114093  41.4652061  62.4248171  36.7267346  42.9580545
  58.9330244  44.5107985  63.3919287  58.8932848  44.7829962  64.3087482
  59.4348383  45.2012110  62.9586363  80.8725929  35.9622121  37.5506115
  81.5512943  36.4741373  37.1106815  80.9471226  35.0875688  37.1689367
  52.8032112   8.3954674  56.7620754  53.1903696   8.1837982  55.9126425
  52.6212120   7.5446248  57.1610451  13.3574635  47.7318144  33.0196953
  13.3709389  48.3555603  33.7456346  14.2805535  47.5815916  32.8158164
  54.8749876  11.2690389  42.9588747  55.5871582  11.4354765  42.3413467
  55.3151846  11.0020375  43.7658262  16.8921707  43.0804829  16.9753445
  17.4808071  42.3772524  17.2495831  16.0149239  42.7422444  17.1549595
  60.1352882  24.7909594  39.9333501  59.5993328  24.8972559  40.7192802
  60.1427603  23.8470793  39.7743940  64.8067522   8.3854795  40.1849699
  65.4427338   8.9846337  39.7941017  63.9644480   8.6608762  39.8231506
  45.5095768  20.4365540  37.9573083  45.5576372  19.8605525  37.1943235
  44.6761179  20.2149367  38.3725905  80.7218266  22.6765275  27.8755116
  80.7316971  23.0769634  27.0061541  81.5493965  22.1984363  27.9284072
  54.7357702  17.5192225  17.3505557  54.4573832  18.2554066  17.8953171
  53.9564562  17.2866344  16.8457735  68.3427763   9.6070355  10.2380562
  68.2689095   9.3477541   9.3196064  67.4478197   9.5567572  10.5738425
  35.8466387  14.9559271  28.9509463  36.1904764  15.3476715  28.1481123
  35.3514838  15.6607723  29.3683767  50.6442650  62.2900992   5.8125043
  51.2907847  62.7853089   6.3155061  49.8613938  62.8408056   5.8207834
  32.9664191  69.1243159  17.8304243  33.8798769  69.3992030  17.7512586
  32.9800232  68.1879794  17.6321280  15.4314295  47.0350529  64.9611154
  15.0575940  46.3638879  64.3901392  14.7654502  47.1749206  65.6342713
  19.9542004  26.7264438  19.1744924  19.0008122  26.8117428  19.1717684
  20.2463681  27.2811604  18.4511948  31.6065232  58.1938941  52.7644205
  31.0686413  58.8790412  53.1612598  32.1092526  57.8314407  53.4938907
  70.3661251   6.0824752   3.9286619  70.6914473   5.2077037   4.1411957
  70.1575470   6.0402465   2.9954180  23.4669121  52.0277899  13.5776639
  23.9426049  51.5487759  12.8990650  24.0169581  51.9485371  14.3570244
   2.0075756  13.1679213  31.3875318   1.3040692  13.8166857  31.4080000
   2.7775532  13.6394608  31.7053580   5.5940300   8.5756332  45.9879589
   5.1093632   9.0738839  46.6460419   6.3111740   9.1545236  45.7294607
  50.2533253  55.6623047  36.7409229  50.6231840  54.8179810  36.4829397
  50.4961689  55.7588547  37.6617575   3.2265266  74.5751925  32.8074336
   4.0875800  74.8133676  33.1510806   2.6116069  75.1076137  33.3120465
  30.7356787  39.3503380  17.0428073  30.2088928  39.3895483  16.2445641
  30.7281756  40.2465296  17.3789871  20.3892763  74.9034577  16.7474520
  20.5302485  75.4301161  17.5342107  20.4074343  75.5360702  16.0293269
  39.1786718  11.7830634   7.9630333  38.3462214  11.6158164   7.5211227
  39.0801120  12.6591110   8.3359385  38.0121350  12.7951515  45.8257055
  38.9219403  12.6112401  46.0595036  38.0318522  13.6819649  45.4659796
  22.3959645  59.1474312  60.0529051  22.4436196  59.7579019  60.7886314
  21.9231184  59.6278363  59.3733025  45.3643322  22.9251957  56.3322258
  45.3207445  23.2095909  57.2451591  46.0471773  22.2544765  56.3226414
  19.0666970  55.6575649   1.5668577  19.8041352  55.7771199   0.9684226
  19.4346388  55.8190935   2.4356286  14.5523604  55.9022968  18.3929026
  15.0700672  55.1222723  18.1934714  14.0430363  55.6604045  19.1664088
  71.5538263   6.1624980  23.3789849  71.0236311   6.5904921  22.7067161
  71.7262220   6.8503267  24.0219498   2.7069145  32.6093817  34.1721845
   3.3281952  32.3195004  33.5042000   2.7768475  33.5640049  34.1661692
   1.6979557  26.6306663  42.2234011   2.0805603  26.2908340  43.0323267
   2.3331791  26.4038110  41.5442419  50.8974028  49.1367769   5.7779425
  50.6351089  50.0465584   5.9184080  51.8118525  49.1912746   5.5003721
  41.7405558  21.6594601  53.2195759  41.3994837  22.4895501  53.5525179
  42.6913595  21.7692995  53.2311535  47.1874142  25.8426714  48.5180616
  46.5627813  25.1307869  48.6569309  48.0156565  25.4012775  48.3298635
  53.0178452   6.1266720  46.5012026  52.2379637   5.6714439  46.8186617
  53.5595417   6.2462658  47.2812653   4.3691117   7.8024048   8.0775064
   4.1539818   8.2644522   8.8877308   4.7292477   8.4791088   7.5042647
  65.4874372  47.8057003  24.9098825  65.5488205  48.7304688  25.1491880
  64.5539761  47.6594114  24.7566223  47.8467560   6.1212099  52.1272516
  47.8366041   7.0705152  52.0049953  46.9258642   5.8640277  52.0819807
  22.8587254  75.8194917  29.4652486  23.1143959  76.0927710  30.3462625
  22.0156773  76.2478240  29.3168139  19.9820431  66.2463348   7.9542971
  19.4981726  66.2479942   7.1284056  19.3155297  66.4051657   8.6227030
  50.6182337  23.5824347  12.4776232  49.9271107  24.2396283  12.3958981
  50.1788282  22.7499247  12.3041880  68.8842106  53.6755037   1.8125352
  68.5981989  54.1387749   2.5998142  69.2121363  52.8358555   2.1345471
  57.0861197   8.7272310  25.4120827  57.6023054   8.8809562  24.6207857
  57.5824070   9.1565329  26.1089540  49.4621229  22.9506612  31.0959578
  48.6932755  22.8177309  30.5414867  50.2065372  22.8162885  30.5094194
  33.1187105   2.4928842  21.0188055  34.0057325   2.2230352  20.7808805
  33.0527139   3.3968627  20.7110715   1.2656935  65.2610998  45.0411510
   1.6310724  65.6723421  44.2578173   1.0096510  64.3845492  44.7542143
  47.3418713  22.4606586  38.0086374  48.0916691  22.3859406  37.4183416
  46.7590284  21.7479014  37.7469063  68.1617403  29.6482301  18.0050993
  68.8661480  29.1778016  18.4508979  68.6068773  30.1675797  17.3355031
  75.8240271  15.3821683  32.1472836  76.6277838  14.8766673  32.0261431
  76.0798264  16.1051500  32.7200818   9.1223294  52.4218988  24.7224689
   8.1720501  52.3890018  24.8325324   9.2501122  52.8218412  23.8622642
  65.4508972  24.8363209  45.1595592  65.9783697  25.6233954  45.2956295
  64.6876431  25.1413536  44.6690178  56.1218357  36.2895155  17.2518361
  55.6607199  37.1212554  17.1431458  56.6650724  36.4166856  18.0296266
  61.6183138  41.3920307  35.5584550  62.4991465  41.4987803  35.9175754
  61.7441607  40.8686113  34.7669816  63.8097954  31.2766695  25.3305316
  63.5227156  32.1304941  25.6542611  64.6966219  31.1752701  25.6762052
  73.2860231  24.1591334  27.1785998  72.4370909  24.1007376  27.6169419
  73.1013584  23.9308858  26.2675381  72.8783035  32.9057217  22.5788713
  72.3244333  32.8393984  21.8010187  73.7006569  32.4875593  22.3237014
  67.3945999  36.5634227  62.1466494  66.4949083  36.2371778  62.1279573
  67.5685453  36.8380308  61.2463379  65.4649305  43.8408661  37.4756384
  64.9133062  43.2333136  37.9684067  66.3436222  43.7092352  37.8317356
  77.4397039  66.5037394  18.3202302  78.1457806  66.7073250  18.9336133
  77.3324633  67.3030376  17.8046215  73.0158043  37.0957708  36.9980240
  72.6481485  37.8209019  37.5032425  72.2887802  36.7881489  36.4566970
  61.8500614   1.8045290  21.0423112  61.3461256   2.4806988  21.4951611
  62.7626038   2.0714614  21.1529732  66.4612770  14.4748724   8.3565927
  65.9977961  13.6608183   8.1597942  67.3418713  14.3397558   8.0065513
  79.3316841  37.4023509  33.3291507  79.2436075  37.9677129  34.0965080
  78.5328722  36.8749738  33.3272457  56.6182661  17.7786255  34.4512486
  57.0885134  18.2746518  35.1213646  55.7393503  17.6622152  34.8120666
  41.1588248  69.0458815  29.7876668  40.8810671  68.9685678  28.8749218
  41.6228779  69.8821550  29.8267937  63.6234570  31.7492676  19.1272056
  63.6310482  32.5160408  18.5542881  64.0941381  31.0772395  18.6341834
   7.6563126  45.8495760  29.8226786   7.8145939  45.4539442  28.9655566
   6.7318302  46.0970545  29.8052073  52.0216473   0.1937344  54.1731452
  52.7874430  -0.1641176  54.6222901  51.4292153   0.4525521  54.8790252
  51.5593243  28.9583611  51.3859320  51.3224983  28.0986500  51.0380220
  51.3124037  29.5727730  50.6947279  23.1868416  54.6986151  28.2033038
  22.2651440  54.7563457  27.9515553  23.6673409  54.9185467  27.4051976
  59.5192194  43.8113022  53.2760477  60.0626659  43.0255890  53.2164335
  59.4549942  44.1270494  52.3747063  12.4173027  16.7789745  61.3983774
  11.7645127  16.6060877  60.7199955  13.1402546  17.2000551  60.9333324
  74.1906834  42.8343296  40.2636623  74.2614222  42.5342798  39.3574619
  74.7133827  42.2082806  40.7647467   4.1834217   9.9324876  38.7926793
   3.6531693   9.8404622  39.5842624   3.7366062  10.6078148  38.2822657
  72.0442295  63.4469843   7.7492470  72.9063559  63.6472321   7.3847347
  72.2176933  62.8000402   8.4330624  71.7788172  66.6831779  39.6593738
  71.1717892  66.8638086  38.9416552  71.4109850  67.1526480  40.4080582
   4.6412579  65.6878300  65.5617871   3.9988915  66.0155005  66.1912552
   4.6640412  66.3534875  64.8743176  67.5853586  34.8433518  25.3089690
  67.3116636  35.2627540  24.4932318  67.5082016  35.5315757  25.9697461
   5.4489666  24.0099430  16.2830842   6.2623268  23.6321282  15.9485197
   4.7578007  23.4776664  15.8891261  36.4239423  70.2329202  64.0502160
  37.0004002  69.5646591  63.6795932  37.0190732  70.8718176  64.4424630
  13.9393669  45.4863358  18.3023047  13.8944298  45.4042387  17.3496926
  14.7705609  45.9321880  18.4653294   4.8074585  42.4774361  14.5779109
   4.2275769  41.7570496  14.8249364   5.1290756  42.2386837  13.7085497
  41.8691778  66.3795280  30.3460360  41.7160463  67.1061659  29.7420716
  42.7911711  66.1546040  30.2212477  60.2421474  13.9126456  59.8554564
  59.3348980  13.7012446  60.0755405  60.2127123  14.8256183  59.5693684
  77.3705864  47.4975204  34.4318938  76.6145515  47.6095533  35.0081635
  77.1686459  48.0334473  33.6649299   0.5937916  47.5626326  45.8522224
   0.7641655  48.4079742  45.4367685  -0.1037639  47.1729755  45.3251314
   6.0774475  62.9789686  10.3856707   6.9347435  62.5569725  10.3291845
   5.5008465  62.4206877   9.8640537  27.2257956  66.9691669   3.9557335
  27.8875836  66.5123742   3.4364942  27.6811465  67.7362727   4.3027744
  70.3321123  76.3203001  46.6621256  70.8067417  75.6228733  46.2098408
  70.9780073  77.0183945  46.7703438   1.1541516  24.6047258  21.7936563
   1.6165406  25.2955627  22.2681785   1.6656834  23.8137293  21.9636488
  70.0676537  37.1770000   7.4786317  70.0880909  37.9802132   7.9988843
  69.1361952  37.0029593   7.3432553  79.8115357  75.5860229  30.7461905
  79.6296986  75.4198669  29.8212266  79.4586953  74.8211371  31.2008166
  63.9910889  32.7286005  22.9740477  63.4839344  33.5149384  23.1757927
  63.8040781  32.1307421  23.6978030  60.4318523  54.7427320  19.9553514
  59.5781660  54.5065069  20.3181887  60.2354527  55.4045582  19.2922962
  53.9379740  62.7586746  25.4500365  53.7741041  62.8643465  26.3871670
  54.8509979  63.0222273  25.3353286  46.7441233   5.4298403  65.7910408
  47.1337231   5.3315832  64.9222537  46.2055739   4.6463396  65.9020340
  20.9083992  30.7962370  50.8645630  21.8264252  31.0604119  50.9251547
  20.6557804  30.5993867  51.7665958  62.2298002  59.5988560  53.6981964
  62.8394032  59.8350620  52.9990387  62.1052170  58.6550379  53.5986233
   9.1824945  16.6984370  41.8234622   9.7192224  15.9833910  42.1653068
   8.3454808  16.2874462  41.6073024  73.7458507   2.0258004  26.1931276
  73.2959787   1.4614827  25.5643249  74.0161125   2.7877052  25.6805992
  47.3929310  30.7111955  45.2369356  46.6772127  30.1462340  44.9457312
  48.0643177  30.6145716  44.5615578  74.0552378  54.4601822  35.4148531
  73.8875914  53.6608219  35.9139991  74.4535875  54.1545630  34.5999026
  25.7788142   1.2136342  53.3030045  26.5453823   0.7422855  52.9767608
  25.3023632   0.5658128  53.8221895  64.1162777  75.4200840  13.8183188
  63.9776897  74.4853258  13.6658227  63.6662006  75.8506489  13.0914938
  75.1860142  32.0466709   4.7878450  75.0197554  31.5264893   4.0017155
  74.3510914  32.4774671   4.9710017   9.5632217  32.5725684   4.0198792
   8.7969921  33.0854438   3.7628067  10.2737282  32.9152856   3.4777010
  31.6828831  76.0904838  61.7448330  32.3502787  76.7163517  61.4635754
  32.1747645  75.3007334  61.9697428  63.0264330  38.0902457  62.9924631
  62.4207067  37.7372479  62.3407555  62.6522636  38.9378381  63.2329178
   3.0718666  37.5123382  36.7298031   2.9755265  38.4459090  36.5416694
   2.9620510  37.4465966  37.6784086  53.1221771   0.9711488  22.2645521
  52.2954941   0.4981337  22.3598576  53.7001801   0.3549886  21.8145657
  64.4137430  45.7070065  29.9867773  64.8047924  45.7153130  30.8604145
  64.2554951  44.7808409  29.8039961  66.2062311  39.5072842  27.7811694
  65.2777481  39.2879033  27.8587580  66.2370300  40.1821518  27.1030569
  79.2978621  36.8468118  12.4128628  80.1475811  37.1548533  12.0977151
  78.7131882  36.9467807  11.6616035  49.5927334  75.5196381  25.3575683
  50.0227356  75.5595303  26.2118149  50.1654053  76.0214233  24.7774935
  60.2047586  26.6074920  19.7527230  61.0861492  26.9425392  19.9174011
  59.9868774  26.1092257  20.5404377  77.5031281  55.0935268  50.4346752
  76.5532446  55.1151896  50.3185558  77.7314711  54.1663456  50.3681517
  19.6439797  18.9604664  53.6062908  19.4386441  19.4012606  54.4307756
  19.9007565  19.6673989  53.0142260  71.7189074  26.8114400  31.8029475
  71.4266205  27.1047330  30.9399414  71.1589575  26.0614228  32.0033526
   0.7597309  10.1764810  45.7693529   0.3940731   9.2952049  45.6927299
   0.4038197  10.5127954  46.5918159  18.1243187  51.1463499  48.5806465
  17.2648484  50.8582163  48.2732010  17.9374081  51.8944931  49.1477251
  79.0566444  32.0862651  30.5184078  78.9456558  32.8092360  31.1358452
  79.4264793  31.3769722  31.0441041  71.0806036  32.8645778  36.7546964
  72.0317793  32.9415679  36.6801095  70.9194660  31.9221616  36.8007231
  48.4395703  49.5589178  19.0818858  48.7960680  48.7284892  18.7664056
  48.5632332  49.5276850  20.0305486  26.8570717  75.8155197  31.8877625
  26.7029580  76.7457350  31.7228985  27.3353823  75.7952086  32.7166390
  74.9451876  36.8434000  42.1723032  75.4049540  36.5665102  41.3797283
  74.0272856  36.9044065  41.9077873  29.5407828  76.3945486  10.8165681
  29.1293057  76.2160977  11.6621888  29.4462117  75.5774692  10.3270078
  41.5273007  11.1333229  57.8361135  41.8197020  10.2292492  57.9517942
  40.5812367  11.0645153  57.7078092   0.3963715  65.2540112  24.3774867
   1.1055619  64.7876167  24.8199320   0.1699024  64.6956396  23.6337352
  10.2026707  35.8790445  25.3469682   9.9710041  36.4095831  26.1092591
  10.5825478  36.5024066  24.7278166  68.8509750  73.0552483  13.7535560
  68.0885458  73.3791399  13.2739484  68.4842157  72.4866676  14.4306338
   5.5542523  32.7465773  12.2054553   6.0325485  33.4860253  12.5805235
   6.2345368  32.1849394  11.8339586  35.7301575  51.8822098  21.7150998
  36.4122349  52.1900463  21.1182380  34.9801880  51.7008495  21.1486316
  79.3146467   9.9263978  34.2206478  78.4638643  10.0522077  34.6408558
  79.6725464   9.1411442  34.6347928   5.4460637  63.6397667  64.0546250
   5.5870406  64.3143911  63.3903658   4.8480384  64.0439291  64.6833127
  78.3831215  37.2217155  21.5064263  79.2538929  37.5904083  21.3579130
  77.9904318  37.1761894  20.6346726  43.1369829  21.8386388  58.7231588
  42.3698759  22.3807669  58.9071989  43.8826370  22.3917150  58.9562511
   6.8278939  23.1888175  10.1193452   7.5327164  23.8364649  10.1167107
   6.7537361  22.9192543  11.0348058  45.0773239  22.0677280  20.6841850
  44.4899368  21.5309477  20.1521397  45.7262325  22.3997045  20.0637484
  75.5805405  66.9984346  26.8080163  75.3227814  66.1131542  26.5509772
  74.8036583  67.3596810  27.2348428  74.8676968  41.6355133  18.8934743
  75.4977942  41.1295843  18.3804023  74.2514467  41.9778347  18.2459509
   2.5151116  54.7633219  34.3718719   1.9997364  53.9716578  34.5264220
   3.1575447  54.5056200  33.7107325  70.4489279  48.4299564  43.8322878
  70.3518438  49.3747520  43.7132883  71.3028717  48.2269573  43.4504414
  26.8397035   9.0732150   3.0514515  26.7567625   8.2107453   3.4582651
  26.9164314   8.8899856   2.1150864  71.5707827  46.3513994  23.6296296
  71.0739803  46.4946842  24.4351649  72.2124958  45.6796551  23.8602781
   6.5192848  39.4039488  30.3964400   6.3942963  39.6826601  31.3035941
   7.1015126  40.0644732  30.0209999   1.0697609  16.2228513  25.4672360
   0.8425289  16.3568807  24.5471048   0.8527142  17.0532632  25.8909559
  74.2646170  58.5733795  25.6648564  74.1086149  57.6386929  25.5297589
  73.6045408  59.0070009  25.1240206  78.4885597  36.6663790  38.7109351
  79.1209412  36.1652184  38.1959987  78.8298893  37.5606346  38.7050033
   1.8063504  21.3664007  28.3649373   2.1395355  20.5682182  27.9549074
   2.4603897  22.0335793  28.1567717  51.4729164  40.9801105  14.6429718
  51.8086193  41.6051627  15.2855003  50.9170578  41.5044559  14.0665043
  66.2469387  31.4724088  51.3012457  66.5967226  32.2188401  51.7877913
  66.7563868  30.7239866  51.6119862  27.9502877  75.0877508  25.2185178
  28.2973059  75.2267938  24.3373394  28.3190735  75.8030265  25.7367921
  61.1553955  21.7378783  14.1679919  60.4916763  22.4265504  14.1301072
  61.6126347  21.7995143  13.3293235  75.1050663  36.4925647  27.5549245
  75.1408243  36.0964394  26.6842723  75.7113647  37.2316980  27.5068617
  37.3622513  22.6660705   0.8284785  37.5837445  21.7355680   0.8650462
  37.9021764  23.0677271   1.5092030  64.8450804  28.8744068  33.3326292
  65.4123974  29.0030527  32.5724769  65.3935051  29.1048646  34.0825319
  10.6631438  60.6757493  63.3939948  10.6969182  59.7191758  63.4016761
   9.7481076  60.8846183  63.5819080   9.2182022  47.0887756  17.8659904
   8.8224465  47.1884203  18.7318349   9.8713547  46.3982630  17.9792082
  67.3319674  13.6108136  28.0220222  67.3486328  13.4368658  28.9631367
  67.4145031  12.7472961  27.6173496  76.9849024  71.3735290  47.1110236
  77.8445731  71.0350246  47.3612463  76.9690285  71.3048573  46.1564218
  13.9715153  16.2308216  14.6159446  13.4439904  17.0182931  14.7494757
  14.2958790  16.0089767  15.4887581  15.7250458  23.1928706   2.3130400
  15.5256134  22.9119396   3.2060888  15.6933457  24.1488314   2.3499647
  54.7587395  51.1620522  15.6596351  54.8433876  50.3898907  16.2189519
  53.8516665  51.4444065  15.7768190  14.5628697  26.7636728  28.4584594
  15.3157288  27.3134661  28.6756277  14.9457794  25.9288764  28.1887674
  75.9188271  32.8992677  32.8169966  76.1438227  32.0650101  32.4051428
  76.0398912  32.7442622  33.7537718   5.5251461  33.0884600  43.6980534
   5.4816586  32.2813559  44.2108154   6.0582596  33.6807156  44.2283869
  76.7407513  71.8796539  39.5867753  76.8150949  71.1739683  40.2292013
  76.0900688  72.4748659  39.9590278   1.7706543  55.4725838  15.2154148
   2.1379715  54.7235966  15.6848049   2.5281960  55.8992243  14.8149765
  57.8873587  50.3092718   8.9790320  58.3696365  51.1022615   8.7449265
  57.8598499  50.3193426   9.9357837  67.9177284  38.4747696  50.0687742
  68.8510561  38.2930255  50.1787663  67.7025890  38.1114769  49.2097235
  63.3768797  38.9397120  28.2610965  62.8462601  39.2355967  27.5214148
  62.7817345  38.9701891  29.0101671  79.8741484  21.3110137  34.9461818
  79.8140287  20.9412360  34.0653396  80.8063889  21.2709975  35.1596260
  19.8170525  30.9717798  16.9889295  19.6922928  31.2675977  16.0871768
  20.1900536  31.7291594  17.4400175  78.2669735  31.2871122  58.8861799
  77.8480959  30.6832242  58.2729149  77.5887918  31.4796329  59.5336628
  74.0144968  11.8125141  54.7067738  73.9794779  12.7467132  54.5011568
  73.5633469  11.7352223  55.5474377  56.6444302  14.9728882  23.7392426
  57.2125721  14.3259692  24.1575003  56.7117882  14.7816122  22.8037691
  24.2938813  10.0972798  57.1624845  24.7895392   9.9143507  56.3643038
  24.9548539  10.3758480  57.7963215  70.2338123  21.3160706  44.5014763
  70.7258463  21.3023782  43.6805344  69.9413157  20.4124618  44.6205044
  12.6777466  75.2556195  18.7624979  12.1509798  75.9199093  18.3181238
  13.0850895  74.7588380  18.0529130  68.4376717  63.6930275  42.5037670
  68.5554361  64.5777273  42.1578407  68.8628292  63.1257915  41.8605614
  56.1500978   5.6167936   5.1261997  56.3017654   5.3770179   6.0403860
  55.3225231   5.1916718   4.9012136  31.0784507  43.0834579   8.2840687
  30.3877616  43.2418442   7.6405650  31.8879342  43.3141708   7.8282845
  61.0939217  34.1752243  48.3781147  60.6246758  34.0766764  49.2065620
  60.4682493  34.6100307  47.7987099   7.0103127  59.1957664  10.9181976
   7.0162922  58.2902670  11.2284636   6.0852963  59.3918657  10.7694292
  12.3916642  59.8711844  51.9748723  12.1874444  59.4271202  52.7978742
  11.5379922  60.0455518  51.5785551   8.9246327  53.6281204  47.3436308
   8.6563069  54.2448759  46.6625643   9.6950108  53.1909466  46.9808388
  30.7485809  17.1350198   1.1867893  29.9428119  17.5543742   0.8849562
  30.8107652  17.3735194   2.1117151  78.4673214  25.7522368   7.8995198
  78.0443907  24.9235678   8.1246138  78.1719303  25.9375167   7.0080894
   2.6928933  76.4354267  18.8391042   3.3823117  76.6572423  19.4649887
   2.0564373  75.9361277  19.3508220  16.4589840  32.5122833  18.1800425
  16.8571240  32.0920944  18.9423776  15.5167061  32.4175477  18.3192134
  23.7165601  29.1905365   2.5219620  23.3788193  28.3309762   2.7735937
  23.7198401  29.6942452   3.3358992  16.1039368  67.1322126  53.0897283
  16.9269005  67.5588460  52.8510856  16.3631932  66.4254136  53.6808753
  28.9476925   9.2234457  24.4602871  28.5467488   8.3630866  24.5838094
  29.8360306   9.0326959  24.1591287  50.5408810  20.7387946  18.9215649
  49.8382519  21.3879309  18.9558399  50.5483005  20.3475271  19.7951115
   8.0888611  31.1355376  29.4985390   8.1656319  31.4532614  28.5988784
   7.2341782  31.4512396  29.7919321  38.6560559  55.1081038  21.9908905
  38.8750982  55.8287525  21.4002037  39.3192005  55.1529980  22.6797009
  27.1782452  26.4990711  19.0876687  27.3833710  26.6683865  20.0071716
  26.4281613  25.9050536  19.1150546  63.8222313  17.3570740  44.1983414
  64.1629648  18.0504704  44.7634363  62.8726721  17.4016154  44.3105364
  14.4507271  42.3614502  40.0097704  15.1509720  42.5547075  39.3864369
  13.9269787  43.1621695  40.0374556  11.8694931   6.7512006  39.3443036
  12.7413613   7.1130097  39.5029449  12.0195061   6.0174143  38.7482452
  58.9540195  54.4795036   2.4858186  58.5253239  54.1234827   3.2640871
  59.7044325  54.9659491   2.8271168  71.4504184  18.0147748   1.5525759
  70.8735218  17.3341279   1.8991840  71.9746627  17.5685935   0.8875025
   1.1939484  33.7953806  19.6210158   1.6076809  34.0077710  20.4576468
   1.8683583  33.3222961  19.1335785  71.9193506  42.1270275  34.0217257
  71.0799837  41.7437983  34.2763543  71.9141293  42.1009493  33.0648947
   6.2057445  57.6213370   6.1403311   7.0419691  57.1555481   6.1393011
   5.6049488  57.0359538   5.6792486  76.3646221   7.8283376  20.5490494
  77.0722675   7.2766978  20.2156353  75.6764317   7.2110850  20.7972932
  48.7667290  67.2183223  60.8972513  47.8985135  67.0292850  61.2531942
  48.5957829  67.5748749  60.0255405  81.2046242  26.9127369  54.2231846
  81.9546223  26.5419722  54.6882343  80.6631088  26.1556649  53.9999390
  47.3796558  19.7548616  50.1533556  47.3822308  20.7111812  50.1943398
  46.4873457  19.5287824  49.8908615  50.2834042  73.3130019  34.1051388
  50.5041321  73.8585468  34.8600507  50.7475909  72.4903723  34.2602062
  54.5118666  13.0111229  66.2624550  53.6978817  13.4707487  66.0565376
  55.1934814  13.5258937  65.8304310  79.0001575  26.1806209  26.0356522
  78.6073391  25.3235347  25.8703542  79.0296070  26.6004188  25.1759219
  22.9857785  71.2691069   9.9330276  22.8873783  70.8689690  10.7969952
  23.0446488  70.5273819   9.3308544  51.4981318  22.4870420  40.7703781
  50.9907579  22.9155850  40.0810623  51.0494137  22.7255726  41.5815449
  44.2995501  69.7552681  23.9474320  44.2124701  68.8089991  24.0624285
  43.8072824  69.9458075  23.1489325  71.1045408  31.5867543  20.9593487
  71.6284084  31.5770030  20.1582861  70.4304504  32.2465801  20.7966828
  62.3033094  28.6187816  34.0337682  61.8149042  29.2916656  33.5595107
  63.2114315  28.9204073  34.0099239  78.1198263  64.5702457  26.4247751
  78.8255739  65.1824141  26.2164402  78.4296465  63.7265205  26.0955763
  12.6875454  47.7745676  19.4454837  13.1382138  47.1697617  18.8561368
  12.5032479  48.5428572  18.9051163  65.6675768  59.5151615  29.9968743
  66.1110306  59.8306322  29.2094350  64.7505045  59.7575998  29.8686886
   2.7886921  60.3962708  22.4708748   2.7164990  59.9186945  21.6444707
   1.9445187  60.2597141  22.9009485  53.7746382  66.1814404  27.5017667
  53.5542154  67.0665455  27.7920055  52.9642534  65.8464575  27.1179795
  57.3732670  10.0338604  65.8043454  57.9298218  10.2394726  65.0532153
  56.5273674   9.8039582  65.4198542  56.5522385  40.6883669  11.3304281
  55.8215714  40.6695986  11.9484913  56.7269564  39.7671199  11.1380637
  74.9521923  61.8493032  33.3050609  75.1025724  61.4594555  34.1662431
  74.4118786  61.2083483  32.8430390  19.9745709  24.9992871  41.0961628
  20.3896958  24.4088078  41.7248392  20.7057434  25.4269195  40.6503439
  53.6606789  70.6661654  19.2213500  54.2611980  69.9282408  19.3266249
  53.7387609  71.1570883  20.0393510  70.1559925  57.7026653  26.5654516
  69.3420410  57.5419044  26.0880923  70.2263021  58.6564779  26.6046166
  64.9204636  52.5733566  39.4094896  65.6816864  52.6555347  38.8350177
  64.6139860  53.4719849  39.5310140   7.1546608  51.9113064   3.6674687
   7.4451786  51.2072468   3.0877054   7.7686173  51.8859148   4.4013953
  13.3229987  71.0358114  63.3739608  13.2733361  71.5167851  64.2000542
  12.5308673  70.4985876  63.3616006  19.5295483  38.6617470  24.9973321
  20.1003701  38.6852860  24.2293239  18.6800152  38.9613152  24.6736169
  80.4684067  55.2049494  33.9936161  80.0702286  54.9873543  34.8364305
  80.1369572  56.0797453  33.7908626   6.1218601   5.0293499  35.8200359
   6.9132096   4.7067347  36.2512064   6.2920815   4.9089533  34.8858190
  75.4150112  19.8074343  60.0850182  76.2665375  19.9517920  60.4976904
  75.2225598  18.8843157  60.2494835   2.3896939  37.8002453  46.7027760
   2.3502404  38.7553668  46.6536331   3.1318146  37.5622678  46.1470366
  13.4014032  23.2201297  42.1753168  14.2939613  23.2055480  42.5208139
  13.5076616  23.0969341  41.2320471  64.8268032  55.0652647  43.6647844
  65.6294537  54.8039865  44.1161299  65.1299858  55.4713106  42.8527260
  67.2631836  42.0120239   4.9420527  66.3990211  42.3045874   4.6524537
  67.3673534  42.3973083   5.8120739  68.4810209  43.6489105  34.9615145
  69.1663599  44.2514563  34.6725798  68.7993622  42.7833796  34.7051048
   6.2879799   8.9207942  50.5065393   5.7079313   8.5839469  51.1894083
   6.2823627   9.8694522  50.6339979  76.0074806  61.3228893  13.0644703
  76.5236664  61.9500542  13.5708737  76.6338015  60.9356356  12.4529231
  72.7045441  43.8278866  35.9587526  72.3857832  43.1983376  35.3119993
  72.1052885  44.5706940  35.8855367  10.8176762  45.0614166  20.8975816
  11.7649609  44.9268389  20.9251451  10.6025177  45.0594425  19.9648786
  59.3621826  13.0209148  21.2208200  59.6319580  13.1445301  20.3107810
  59.6179056  13.8326991  21.6588211  31.0360096  13.0757529  56.9859314
  31.6568802  12.4588115  56.5984535  31.5735290  13.8224704  57.2499800
  60.5442572  19.6762252  21.6859841  60.3611851  19.5409274  22.6157212
  60.3381348  18.8359332  21.2765265  43.3819056  76.6969538  22.7452755
  43.4872913  75.7477760  22.8099847  42.6135397  76.8898058  23.2825375
  77.9408932  25.3915763  40.0405312  77.3264408  26.0713124  39.7636890
  77.4401188  24.5779037  39.9823070  67.3523092  66.3856411  48.4975004
  67.5498724  65.8832169  49.2879248  66.4074373  66.2866306  48.3806849
  20.8446175  42.7504969  48.5962009  21.7316586  43.0705929  48.7603045
  20.5058247  42.5285101  49.4634771  39.6543789  59.7163057  18.5037875
  39.6265650  59.8297310  17.5537384  39.9782968  58.8243389  18.6291277
  19.8326538   0.2551467  34.1178155  18.9965485  -0.2095406  34.1528416
  19.7429798   0.9583480  34.7610116  23.8177639   6.0563940  47.7277088
  23.8039357   5.1575369  48.0564880  24.1583115   5.9801894  46.8363905
  76.6004181  14.4749987  53.4885311  76.7908669  15.3118706  53.0647326
  77.1379232  13.8394046  53.0159426   7.6925858  17.6565363  58.7716519
   7.2073849  16.8366196  58.6791664   7.7409585  17.8009274  59.7166615
   8.0300385  52.8564024  16.9694543   7.8293759  52.1625757  17.5976074
   8.7220341  53.3671045  17.3896289  11.8691403   2.5010869  31.3627481
  11.2939984   2.9760161  30.7628441  12.7342755   2.8847039  31.2191844
  20.6021641  36.9452293  26.7768478  20.0492428  37.3936469  26.1369777
  21.3013122  36.5513999  26.2550020  43.0668839  72.5270944  36.0385609
  42.8261479  72.0483877  36.8317294  43.9892109  72.3120286  35.8996558
  64.3715477  13.1610572  28.2831883  65.2362776  12.8670776  28.5696363
  64.3678522  13.0091882  27.3381209  65.8184727   0.3988316  61.5029805
  65.7582577   1.3427450  61.6500577  66.7132958   0.2614715  61.1920905
  77.2633266  38.4524941  19.2043734  77.0629263  39.0378356  18.4739971
  78.1738901  38.6482120  19.4252825  66.3008690  24.5347857  25.4877353
  65.8697319  23.6914062  25.6258130  65.9162331  24.8706985  24.6781349
  56.1147165  18.3182836  10.5353045  55.6259346  17.5567174  10.2233124
  56.1107922  18.9251053   9.7950447  68.4209871  41.7212534  39.8748136
  69.1637897  41.6326237  40.4719877  68.6301565  42.4904394  39.3448782
  75.1363095  34.4549610  56.5076327  74.7236546  34.1143467  57.3013108
  75.5024250  35.2991249  56.7714124  69.1552067  45.4070091  15.2311242
  70.0783443  45.2947712  15.0042903  69.1527081  46.1047316  15.8864141
  75.1765919  15.4391968  38.1785727  74.8411655  14.5590913  38.0078816
  74.5076799  15.8481228  38.7277246  78.1036387  71.1667509  56.7011594
  77.9597149  72.0209975  56.2939977  78.5613308  70.6568904  56.0327351
  59.8845585  24.4095423  56.3677871  60.8243283  24.2927220  56.5071183
  59.6462162  25.1382210  56.9408977  48.0402907   9.6273567  46.8620193
  47.4602803   9.7797825  47.6080644  47.6602658   8.8718798  46.4136159
  77.7441406  45.1896095  44.1171265  77.8990984  44.2878819  43.8358593
  78.1038284  45.2292538  45.0032854   7.3436600  42.1045637  33.0152154
   8.0263954  41.6456890  33.5046315   7.8218132  42.6989841  32.4370646
   8.6545235  40.8999634   7.9224223   9.0390068  40.1633072   7.4472976
   7.7584511  40.9574080   7.5907648  69.6500587  36.4224577  27.8945875
  70.3401041  36.3635612  28.5553479  70.1091719  36.6617799  27.0894957
  69.7335768  30.3121352  15.6345904  69.4971514  29.5253253  15.1434004
  70.6760836  30.2296233  15.7798457  31.8359574  15.3066351  53.0292320
  32.7339276  15.1364949  53.3137190  31.9138916  15.5051996  52.0961034
   3.8091713  38.0444860  32.7582312   3.2127243  38.7252879  33.0696750
   3.9304978  38.2391548  31.8289232   4.0883023  44.5566034  20.8913374
   3.4321171  44.0170574  20.4502702   4.7866589  43.9438629  21.1217213
  64.8475750   9.6520951  58.2173472  65.6597432   9.6208479  57.7117514
  65.1337632   9.6484473  59.1307538  61.9852448  29.1873312  24.1934848
  61.5596342  29.8089218  23.6029625  62.8591871  29.5512724  24.3349266
  30.8194113  75.1624537  17.3263967  30.3778791  74.3157864  17.2598016
  31.3353992  75.1009178  18.1302631  68.8802481  55.2406502  28.5751295
  69.7017097  54.9980211  28.1478524  69.1017818  56.0089350  29.1013360
  37.7917343   2.2697543  36.1164069  38.5093933   2.1916144  35.4878449
  37.7353913   1.4056203  36.5242434  37.1436858  61.2292671  16.7332935
  37.2604084  60.4133511  16.2465870  36.3272166  61.5959024  16.3939023
  80.9701260  37.3943093  60.1233041  80.6969555  37.6050236  61.0161691
  81.1545761  36.4552881  60.1445722  80.9577847  43.3540392  19.0781677
  80.1987839  42.9238415  19.4719708  81.4090252  43.7655497  19.8152387
  68.6863518  56.7663908  17.0486248  68.2497025  57.6118279  16.9446671
  68.2727194  56.3762712  17.8186548  58.2766533  38.5276532  17.8603268
  59.1775036  38.8013625  17.6877511  58.1745911  38.6230183  18.8072801
   8.4086567  39.2251778  17.5338161   8.2081658  40.1610518  17.5470722
   8.8094860  39.0540051  18.3860266  75.5824709  73.6480379  45.5772066
  75.9828377  74.2711687  46.1835432  75.0904799  73.0494022  46.1391783
  80.8733376   8.3543112  50.3013372  81.3103207   7.5923350  49.9209809
  81.5130909   8.7159302  50.9146654  68.4497309  49.1565847   9.5679796
  67.5371838  48.9074564   9.4216233  68.4437513  50.1134396   9.5429581
  16.4553402  64.5289419   9.5223368  16.3607023  65.1543877  10.2407349
  17.3916576  64.3315408   9.4984091  60.9742594  63.7650394  47.1304989
  61.2134123  63.4344292  46.2646294  61.4513874  64.5908594  47.2117376
  79.0073959   3.1032378  37.4667645  78.9293424   3.8877113  36.9238639
  78.6203806   3.3531482  38.3058071  13.6345059  52.5308037  42.9221153
  14.0410572  52.0221615  43.6237049  12.9748589  51.9440556  42.5522137
  56.2253332  72.8947687  22.3640418  56.6551971  72.0859528  22.0860720
  56.9319391  73.4292364  22.7263737  60.6505966  67.5348282  17.5262260
  60.7110596  66.6887045  17.0827806  59.9733686  67.4090481  18.1908882
   3.8728291  33.8534427  10.1755726   3.8394982  33.1843734   9.4918549
   4.1105229  33.3735299  10.9689295  45.1753187  18.7793553  54.2498732
  45.0277853  19.3758345  53.5159254  45.1657343  17.9072630  53.8554192
  49.8345184  68.5372400  25.0087762  49.1637945  69.1810513  25.2365065
  49.8201036  68.5044670  24.0522456  69.8513222  38.1345916  23.0648780
  70.0991058  38.6771917  22.3162627  70.0345087  37.2385812  22.7823234
  46.2306744  22.4393368  15.8386171  45.4501206  21.8933988  15.7441449
  46.6832119  22.3575306  14.9991262   8.6414391  25.6131530  49.0654516
   8.9077336  25.2071738  48.2405281   8.4127003  24.8763990  49.6321154
  19.1121529  15.3655345  11.0660481  19.2398737  16.2487895  10.7199514
  19.3941400  15.4229171  11.9789684   0.2155930  45.9959888  34.3337107
   0.0029999  46.9042826  34.1191435  -0.0997490  45.4924774  33.5832024
  74.1785383  51.7228365  18.1764889  73.6062336  50.9734297  18.3410597
  74.6605539  51.4866161  17.3839641  52.2268581  14.6952927  36.8772244
  51.8056870  14.1696990  36.1970782  53.1484222  14.4389987  36.8416929
  10.1194531   5.9547162  31.6525269   9.4549423   6.0058165  30.9654689
   9.8155171   5.2527642  32.2279572  65.4524279  45.5453777  27.3516130
  64.7776842  46.1402369  27.0243645  65.2660704  45.4631090  28.2868862
  61.6014576  29.7049999   6.3110799  61.7200851  28.7553620   6.3298428
  61.0010242  29.8857045   7.0343077   6.6492230  53.8037109  48.6955500
   7.4022633  53.9103222  48.1143427   6.4461190  52.8691673  48.6554337
  75.9230995  57.4591970  32.8036046  76.0104084  56.8920374  32.0374870
  74.9849463  57.4624205  32.9935598   7.5070053  19.3079603  42.8795910
   8.0989605  18.7759936  42.3477745   7.3222119  18.7662721  43.6468315
  62.2627735  32.9309821  37.3923564  62.0966434  32.6873088  36.4817238
  61.8167686  32.2573709  37.9057360  79.8166752  52.4642611  11.4813781
  80.1660252  51.7589808  10.9366179  78.9464188  52.1596670  11.7384827
  70.1527691  38.5767555  35.1551723  71.0317898  38.8975596  34.9535799
  70.2215290  38.2335520  36.0460806  80.6661892  31.7071700  11.3781857
  80.5239582  32.6365256  11.1984551  80.7410717  31.3046193  10.5129826
  76.5314245  41.9974518  51.1221600  76.7614555  41.4711905  51.8879080
  76.8910503  42.8643036  51.3104820   5.4402405  25.7606840  48.9754629
   5.5797440  25.1993823  48.2127619   5.5867440  26.6486239  48.6493778
   5.9215035   3.5783961  48.0506718   5.7044568   3.0004027  47.3192024
   6.8585934   3.7471821  47.9526758  19.4163948  21.8784142   8.8295007
  18.5514694  21.7437077   9.2167860  19.2359978  22.1611500   7.9329813
  77.6527452  53.8482857  45.9990358  76.8716478  53.3583784  45.7419252
  77.9630327  54.2479706  45.1865053  63.9477634  51.0922050   1.3071083
  63.3290482  51.7915440   1.5177049  63.4100389  50.3014660   1.2645406
  77.2924089  59.4268656  41.3312292  77.7899504  60.0164938  40.7646418
  76.5523243  59.1456032  40.7932711   9.3287903  21.8714452  24.1403365
   9.9179798  22.3917508  23.5941052   9.8085839  21.7472148  24.9592376
  57.9080399  10.3739645  47.3577880  58.6919888   9.8457672  47.5083446
  57.1975907   9.7355892  47.2947061  74.6314812  63.7817049  45.4471445
  74.8379326  63.3606339  44.6126938  75.4255581  63.6768770  45.9712505
  80.6752205  41.4752197  29.6816564  79.7771358  41.4280081  29.3538594
  81.1305046  42.0353413  29.0530014  49.2737442  47.2696114   7.3958611
  49.7243744  46.4261198   7.4370390  49.9739128  47.9090881   7.2652215
  52.1248055  57.1987915  40.7916164  52.9254150  57.6951647  40.6217003
  51.4780664  57.8623009  41.0318661   5.4026371  27.9046082  30.8606410
   4.4999844  27.6633477  30.6526828   5.3201824  28.6144137  31.4975166
   7.7564301  24.8115923  43.4200370   8.2617917  24.6486046  44.2164504
   7.7635636  23.9742663  42.9562842  66.1253937   9.5756056  60.4761457
  65.5242356   9.4428875  61.2091034  66.8578537   8.9866640  60.6574672
  59.4239910   4.7133925  47.2764754  59.7987851   4.5426275  48.1405365
  59.8391159   4.0685799  46.7036521  64.6020842  41.7873001  22.4152112
  65.2513361  41.4049149  23.0055380  64.6325302  41.2338209  21.6348505
  49.1279840  52.3727131  12.1770930  49.7478151  51.7207098  11.8500876
  49.6642208  53.1458235  12.3531342   2.5183636  28.5808825  15.7424998
   2.4999291  28.8952804  16.6464055   3.0328041  27.7745414  15.7798219
  27.6599747  16.5208709   9.7544301  27.1699959  17.1934581   9.2813790
  26.9864708  15.9677482  10.1502502   9.6981388  30.0319076  21.6080546
   9.8104721  29.4354224  22.3482037   9.8133045  30.9045768  21.9841075
   7.7930844  63.1824160  30.5139470   7.0410645  62.7033901  30.8621359
   7.5046110  64.0947294  30.4875875  74.8171234  58.6365700  49.4635248
  74.6624517  59.1771841  50.2381516  75.2130127  57.8351545  49.8059225
  72.5516518  22.7301266  65.8210398  72.9027661  23.5385420  66.1944231
  72.6759537  22.0752575  66.5080104  11.2528664  16.7335331  25.0227022
  12.0843846  16.4401627  25.3952026  10.6203419  16.0690665  25.2958751
  74.8700237  29.5875192  33.8297915  74.9624014  28.6368680  33.7668538
  73.9805698  29.7625971  33.5224557  64.5685585  32.9926493  61.1800640
  64.9321755  32.6362231  61.9906055  64.8009117  32.3495915  60.5102008
  73.0334854  54.1660547  19.4436717  73.5265255  53.3605814  19.2876232
  72.9309464  54.5560980  18.5755789  66.8711042  39.8612952  41.3060093
  67.2333479  40.6608486  40.9242678  67.6367760  39.3689966  41.6020203
  75.2036905  43.0883932  24.2390943  75.8858013  43.5983133  23.8021302
  75.5862904  42.2173405  24.3445253  67.9130363  41.1790800  61.7706919
  68.2042980  40.3170156  62.0677519  68.4784746  41.7961311  62.2351980
  15.2657181  26.0133314  33.0261469  15.9441048  25.3408790  33.0879974
  15.4388481  26.5968776  33.7648821  60.1869726   7.9021239  26.5616584
  60.3262854   8.8325739  26.7379713  59.5600796   7.6231271  27.2290421
  75.8137035  26.1437941  32.1496773  76.3732481  26.5597343  31.4938331
  76.2349892  25.3023672  32.3250365  17.9244373   4.3340976  40.8401918
  17.1555994   4.6224696  40.3483009  17.6020811   3.6219604  41.3926268
   4.5021778  41.1885881  29.0372062   5.2107960  41.8251419  29.1315317
   4.4531018  40.7566929  29.8900199   7.9181439  50.3918791  52.1760702
   8.4412438  49.5933199  52.1060848   8.2788616  50.9738779  51.5071964
  64.1331863  49.3510628  48.9495659  64.2406368  48.6051416  48.3594084
  64.1056442  48.9626312  49.8239756  49.8561237  16.5096767  13.1911194
  50.5927322  15.9616191  13.4617865  49.2772243  16.5263183  13.9532447
   7.0621830  46.3993502  24.6662784   6.3482910  46.1118460  24.0971255
   7.8551441  46.0793114  24.2361450  72.1166801  20.7103300   4.9713644
  72.5760603  21.4713693   5.3263533  71.8314314  20.9873986   4.1006756
  46.7612648  47.0093584  23.1108928  46.4144039  47.8358698  23.4467459
  46.1644077  46.3430643  23.4515524  77.2578812  29.5555449  24.1554642
  76.9172812  28.6610508  24.1656899  77.8321409  29.6019220  24.9198651
  59.3150997  46.0220098  57.3947525  58.9760542  45.3702736  56.7811441
  59.1203165  45.6608915  58.2595587  66.9493055  28.7747860  30.9797573
  67.5677490  29.4912720  30.8369160  66.2597990  28.9208412  30.3320837
  15.8544499  60.4260159  31.2681174  15.5048710  61.0264206  30.6096768
  15.5821663  59.5582676  30.9696078  76.2083538  52.3716357  60.3730952
  75.4949482  52.9424097  60.6586021  76.9159039  52.5435259  60.9944301
   9.8471409  36.4584923  21.6565299   9.1216522  36.4834690  22.2804523
  10.3582817  35.6912923  21.9141459  12.3575113   8.3452327  22.0868230
  12.8279064   8.3886821  22.9193330  12.0306538   7.4466426  22.0430207
  65.7502413  48.2940865  29.5140719  65.4158115  47.4064207  29.3858457
  66.3708591  48.4221745  28.7966752   2.8030354  55.0987768  46.6537333
   3.5854870  55.4324245  47.0926952   2.8585297  55.4504728  45.7652140
  32.4077080  30.7691676  32.6053834  32.6491211  30.2087886  31.8678641
  32.6931427  30.2830798  33.3789992  32.4006699  12.4310500  51.5300083
  33.2593296  12.0089538  51.5020943  32.5497482  13.2457072  52.0099449
   6.7823203   0.6500723  57.6747459   7.4168571   1.2421539  58.0785226
   6.6226657  -0.0195811  58.3398061  57.8037214  63.6937666   2.4325427
  58.0338717  63.3279657   3.2866234  57.2127676  64.4192886   2.6340955
   7.0467422  12.8808219  27.9875135   7.9972408  12.9883392  28.0224729
   6.8971775  11.9787223  28.2704973  34.6469925  37.9958637  18.0700600
  33.9805363  37.8755672  17.3936093  35.2148292  37.2299106  17.9857457
  60.9367800  38.0080128  14.8057985  60.9965658  38.1022525  15.7564700
  61.8439054  38.0511951  14.5033181   1.1100441  69.1122818  13.9408433
   1.7036969  69.7431564  13.5336530   1.6275460  68.7133932  14.6403503
  31.4100216   6.1295230  41.4360428  30.9781216   6.1251361  40.5818272
  32.2670982   6.5216644  41.2690687  73.5614157  60.1496172  51.7994833
  74.0817308  60.3129578  52.5861359  72.7405214  59.7823000  52.1272707
  25.1104695  25.9528422   5.2147818  25.2906567  26.8920064   5.1731592
  24.1847092  25.8968401   5.4515380  53.5374173  26.8770077  49.6748042
  54.3666943  26.8225386  50.1497387  53.3499058  27.8144457  49.6269941
  27.9424133  38.2602267   1.2279594  28.4396352  38.6757379   1.9324863
  28.1307592  38.7930398   0.4553879  80.9899712  29.7350430  38.2955241
  81.5104961  30.5171275  38.1121230  80.4517460  29.9768662  39.0492249
  12.0537239  57.7048540  13.2597601  12.2112137  56.8551588  13.6713898
  11.8079621  57.4928761  12.3592603  71.3491734  54.4008925  51.4038038
  70.9863957  54.9314692  52.1131086  71.3156899  53.5033705  51.7348253
  27.5127228  68.7771296  28.2017207  27.4244412  68.6784505  27.2537231
  27.3980053  67.8915494  28.5464239  40.0728464  28.7387609  16.5937805
  40.2001905  27.8250146  16.8488944  39.2007995  28.9594769  16.9209695
  44.1704035   3.0994427   3.1651607  44.6817684   3.7406546   3.6587062
  43.4204674   3.5941729   2.8349009  74.5263910  40.8278513  21.4180589
  74.5635939  41.0681057  20.4922485  75.3091002  40.2951622  21.5589070
  24.5363911  50.6460707  32.9980040  25.3268584  50.1519840  32.7805877
  23.9565762  50.5124014  32.2482181  12.1929391  34.2688896  57.0200943
  12.6501449  35.1068022  56.9487065  11.7751439  34.2965796  57.8808569
  31.5827680   2.4515276   9.7210401  31.7169142   3.0060753   8.9524615
  31.0929632   3.0026188  10.3314674  64.3063498  37.3998642   1.4040090
  64.4911432  37.5329447   0.4742923  63.8896370  38.2146978   1.6844125
  71.1238251   9.4525976  59.9149549  70.5173455   9.0138836  60.5115622
  71.5449152  10.1236386  60.4521888  69.4359312  44.1773046  41.2100684
  70.0570069  44.1121418  40.4846394  69.4512854  45.1022000  41.4561688
  31.0612210  70.2185666   6.9035512  30.3980835  70.9024184   6.9974935
  30.8942517  69.6212476   7.6326340  40.0460823  15.4210331  61.5213194
  39.5112093  14.9507525  62.1608334  40.4243048  16.1490109  62.0144996
  40.1193714  22.7073288   8.2263511  39.5372605  23.4640670   8.1575960
  41.0005093  23.0810595   8.2140666  32.4021870   1.9388822  37.8518367
  32.6558262   1.0198772  37.7662253  33.2020432   2.3828594  38.1335354
  70.7987859  56.1476248   6.6318935  70.8755722  56.4476197   7.5376189
  71.6880729  55.8903067   6.3886058  17.2778058  29.1045356   4.1586012
  16.7591357  28.3002043   4.1424122  18.1655228  28.8129473   4.3663639
  63.1129169  14.4898689  23.3273172  62.7351379  13.9667678  24.0343380
  63.8026905  15.0014305  23.7501049  54.4245863  23.3125520  45.0094318
  54.6450949  22.9997969  44.1320515  54.4215727  22.5234723  45.5512571
  54.8629618   1.0490374   5.0255197  54.2558718   0.3090018   5.0207132
  55.2664995   1.0221571   5.8930826  23.3683276  18.0321133   5.6159693
  23.1130409  18.4313452   4.7842997  22.5657272  18.0312157   6.1375666
  64.0151415  45.3894420  52.1840405  64.6180306  44.9457438  51.5874755
  63.1989441  45.4622759  51.6893208  27.2402787  10.9354568  22.4656677
  28.1196117  11.2588191  22.6617360  27.3637438  10.0052285  22.2768164
  71.0716828  64.2040103  38.8446331  71.3333996  65.0079613  39.2934084
  71.2432774  64.3794422  37.9194260  67.7527581   3.6126990  55.1463627
  68.2858477   3.9695973  54.4359600  68.2266055   3.8494940  55.9436237
   4.6339432  36.9165103  61.5498250   4.6972195  36.3292291  60.7966130
   5.4303614  37.4458758  61.5083622  25.2409085  70.0741809  28.8930559
  26.0644730  69.7609656  28.5190678  24.5625981  69.6286206  28.3855104
  29.0523011  34.7239494  28.2028723  28.6182648  35.0646615  28.9850235
  29.7807843  35.3261781  28.0516768  24.9710798  21.4418077  39.5752883
  24.2067719  20.8717465  39.4910622  24.7332883  22.0607996  40.2656031
  13.4571044  48.6687059  66.1761471  14.1859452  49.2315204  66.4374247
  12.9472367  49.2039378  65.5680413  59.5271206  40.2192688   7.3987508
  59.8273468  39.8219585   8.2162118  59.1783333  39.4869804   6.8904835
  39.8562439  47.5212376  23.7786436  39.4728001  48.0998771  24.4377160
  40.7868393  47.4890702  24.0004420  57.9671486  74.8528463  25.6365633
  58.4250458  75.0133037  26.4616776  57.5075158  75.6724715  25.4543924
  53.8607645   1.9833015  32.8985143  53.4165144   1.7353654  33.7093186
  53.8159561   2.9393351  32.8835535   7.1659009  57.3021896  59.3895274
   6.5057008  57.1593685  60.0677382   7.4367730  56.4216383  59.1297382
  73.2714997  49.8501809  57.5636410  72.6494036  49.6040030  58.2482022
  72.7239619  50.0656922  56.8086642  16.2845093   7.5395441   7.2833455
  15.9157044   7.5848114   8.1654835  15.5974156   7.1305478   6.7571807
  76.2148523  24.7859120  17.9599988  75.2872992  24.8736477  18.1795001
  76.2225676  24.2675877  17.1553171  35.9129485  71.0260462   4.7939083
  35.1013668  70.5432205   4.9502510  36.3933905  70.4892193   4.1636500
   6.0589989  11.7010500  49.9732995   6.9024118  11.9672968  50.3393578
   5.6202682  12.5243618  49.7590410  27.4177416  20.6372692  38.3613789
  27.5738772  21.3194039  37.7082717  26.6173895  20.9124758  38.8085091
  62.7216148   6.8073088  26.7111039  62.0878887   7.5186682  26.6184211
  62.2229767   6.0148650  26.5120554   6.1109034  51.8327804  63.0803775
   5.6111542  52.5371749  62.6676914   5.6245534  51.6305072  63.8796150
   7.6496559   1.6523743  35.3203797   6.8530136   1.1254767  35.2573681
   8.3624226   1.0229058  35.2109861  12.6189907  67.6502942   3.2668853
  12.8005441  67.5140803   2.3369846  11.6813620  67.8395235   3.3026466
  35.6763951  55.3967555  66.5587653  34.8990933  55.6280894  66.0503194
  36.4115445  55.6719394  66.0109893  14.3147294  45.6974508  62.7584531
  14.4676081  45.1880951  61.9625777  14.4252650  46.6080637  62.4849590
  22.3784788  71.4105671   0.7696763  21.8203743  71.6342800   0.0248905
  21.7907008  70.9753834   1.3872269  80.3438282   7.5671893  25.2472520
  79.6807146   7.2582555  24.6299410  80.1205635   8.4855574  25.3988647
  71.3699160  53.6701114  45.5846750  72.2037802  54.0929158  45.3793895
  70.7281027  54.3796713  45.5558431  58.5344458  20.5359125  54.2731571
  57.8893280  20.2535248  53.6248398  58.5006046  21.4920688  54.2439795
  25.0944477  34.2919683   7.7403259  25.4327446  33.7130737   8.4234571
  25.5362469  34.0036678   6.9416243  12.0440346  29.5686793  55.3029203
  11.2311989  29.3845582  55.7737017  11.8967968  29.2179298  54.4245529
  51.7010985  31.4869077  62.7087548  51.7993412  30.6144841  62.3273652
  50.7914529  31.5177066  63.0051091  53.7820768  29.2410970  13.2041490
  54.5239973  29.2481947  12.5993907  53.3207512  28.4257245  13.0077183
   9.1577689  17.5731559  65.0567351   8.3365933  17.0815105  65.0703479
   8.8929192  18.4851570  65.1764947  73.9439640  35.3714950  54.2462217
  74.2566977  34.9251888  55.0331389  74.6724711  35.9346477  53.9847540
  62.6061543  44.3317836  22.3098564  62.4234017  43.4209817  22.5406671
  62.4179467  44.3837922  21.3727832  77.1202755  34.3466449  10.3137159
  76.6327572  33.6092997  10.6809723  76.9167614  34.3263793   9.3786210
  52.2782095  70.5526792  16.7663479  52.3910387  70.2474176  17.6665235
  53.1116589  70.3537040  16.3397253   3.7390836  62.6924424  19.8711252
   4.3517216  63.1422334  20.4530144   4.2959007  62.2724455  19.2155421
  63.2590389   9.8402876  16.7307067  63.6618471  10.5767763  17.1906650
  63.6361551   9.8718375  15.8514917  32.6434445  26.8179250   4.3983379
  31.9867969  27.1874690   4.9886626  33.3944273  27.4061942   4.4770733
  57.5609493   3.0017850  14.0106392  58.1179762   3.2853544  14.7355807
  58.0844307   3.1687498  13.2268512  57.8547859  28.4176874   1.6304086
  58.7045050  28.8275218   1.4683962  58.0686378  27.5609422   1.9998479
  44.6941566  20.9131932  29.9271297  44.1404867  21.6635799  29.7112632
  44.5455313  20.7667494  30.8613133  59.1188820  75.4744604  16.8376827
  58.9937123  76.3365599  16.4410090  58.6591252  75.5273129  17.6755762
  73.2971104  71.6463863  12.9948938  73.2936009  70.9762417  13.6783600
  74.0184792  71.3960313  12.4176824  50.7692194   8.3904564  33.3179593
  50.2421474   9.1856408  33.3961105  50.1621246   7.7331609  32.9779196
  20.5309065  70.1903986  26.8467736  21.0413321  70.9964841  26.7697906
  19.6246918  70.4667830  26.7103362  42.9406699  70.4651480  33.6791110
  43.3906515  71.2808614  33.4592080  43.5614117  69.7770541  33.4394503
  80.6877136   9.3770599  19.0200746  81.2343407   8.6722821  18.6726224
  80.2592850   9.7499162  18.2495832  67.7518654  42.5472879   7.5578636
  67.9488373  41.6191912   7.6846266  66.8143749  42.6198101   7.7369648
  41.8719721   9.1440588  14.9170744  41.9455004  10.0076032  15.3234208
  42.7703524   8.9133483  14.6806073  64.5418461  73.7422498  50.0206423
  64.3249329  74.3633864  49.3253946  64.1667660  74.1281872  50.8122206
  21.0730418  46.2358325  33.1839013  20.7231196  45.4644363  32.7381015
  21.6473254  46.6461842  32.5373411  65.5268097  24.8927283   9.3471879
  65.9501219  25.5862474   9.8532265  65.6985903  25.1234579   8.4342325
   6.0642179  74.5826881  41.9932938   5.4803213  74.9674683  41.3396597
   5.4811724  74.1067263  42.5846910   9.8854309  16.8145907  15.6169999
   9.0102154  16.4310360  15.5612969  10.4324967  16.2420988  15.0792158
  18.9550130   9.6795220  57.3147606  19.8292176   9.7337217  56.9286787
  18.4470240   9.1664619  56.6863107  72.3401403  27.8127646  25.4713392
  72.1384716  28.1802130  24.6107912  73.2964754  27.7866960  25.5025029
  74.2159271  26.7597032  10.2906704  73.8812304  26.7319107  11.1870182
  74.5476437  25.8760643  10.1313627   3.8489491  19.2328143  27.4560356
   3.8624722  18.3001113  27.2412944   4.3069989  19.2922342  28.2944226
  51.2660170  15.3502715  17.2530198  51.0044765  15.6986523  18.1053436
  50.4477262  15.0552619  16.8535197   8.1989533  24.7280407  62.9031563
   7.2426945  24.7658634  62.9224348   8.4257752  24.0677357  63.5579681
   6.5568215   9.4136065  11.7645943   6.7138344   8.4797084  11.9039202
   6.5571934   9.7904289  12.6445007  18.8783034  69.7664641  11.9373500
  18.7633570  69.3547790  12.7938151  18.4988507  70.6394171  12.0383501
  24.4783258   7.2500288  29.5394206  25.2796721   7.3609525  29.0277839
  24.3959236   6.3031912  29.6531773   1.0437351  26.6133475  26.0724783
   1.1255604  27.2380090  26.7931271   1.9166905  26.5836644  25.6809521
  21.0661570  55.4463453  32.6995718  20.4802148  54.6926422  32.6300585
  21.3984887  55.5741127  31.8110549   6.3662593  65.9297867  45.4799497
   5.9952704  66.7429991  45.1374781   6.7453114  66.1761112  46.3236749
  51.2926626  11.3822138  16.3973045  51.8262911  11.6365778  17.1501470
  50.5928659  10.8459210  16.7700040  21.5293175   5.7283390  45.8822536
  20.5730778   5.7690907  45.8954048  21.7983776   6.1531162  46.6967487
  72.5973854  27.2034163  57.4299365  72.8273068  26.6539092  58.1792104
  72.2648583  26.5891261  56.7754852  29.4342629  69.2735858  56.7664128
  29.5884244  69.1694827  55.8274626  30.1821439  69.7840638  57.0767724
  50.8804512  33.6028123  14.7329903  51.4281273  33.6024523  13.9479554
  50.3143215  32.8378224  14.6304202  19.9090479  31.1068568  13.9419640
  20.7541178  30.6587527  13.9060295  19.9566172  31.7638806  13.2474936
  49.3684101  37.6042247   3.0576694  48.7697220  38.0139875   3.6820889
  49.4085407  38.2193089   2.3253509  68.8793667  75.9392078   3.1462976
  68.0377205  76.3948691   3.1309521  68.9783581  75.6494589   4.0532035
   6.3017041  14.7927570  36.3362527   5.4878765  15.2181697  36.0661745
   6.7830521  15.4733455  36.8067193  65.1736832  48.1105280  12.9533672
  65.2236700  47.7342749  12.0746362  65.8958244  47.7016592  13.4304118
  60.7420254  13.9211917  25.3151703  60.5282116  14.8503554  25.2304816
  61.2006378  13.8563359  26.1528468  55.5393227  63.2103842  18.8479483
  54.8164566  63.4087544  18.2526755  55.7592209  62.2975605  18.6618578
  45.0371456  14.5715749  25.1348972  45.1831579  15.5175316  25.1437283
  45.3068399  14.2794585  26.0056233  17.4332213  48.3944607  40.1858044
  18.2107806  47.8364897  40.1683617  16.7512333  47.8679943  39.7687197
  58.8272961  73.5144328  14.8239493  59.0627964  74.2318798  15.4122007
  59.6665772  73.1521874  14.5400190  39.8962887  65.6380873  23.4246492
  39.0671357  65.9287744  23.8044333  39.8206719  64.6846764  23.3856392
  34.0939736   9.5495403   3.3359104  33.7406754   9.5174879   4.2249465
  35.0006700   9.8348922   3.4486389  13.4561306  31.1057186  -0.2898016
  12.7536064  30.4954171  -0.0656985  13.4783036  31.7240334   0.4405603
  72.1866417   1.7165051  38.7350106  72.8591108   2.1163559  39.2864990
  71.7009783   2.4580690  38.3738399  62.6237114  64.0886038  54.7073841
  62.4107941  63.4711736  54.0076113  61.8999394  64.7149866  54.7025490
  70.9627295  25.4983878  12.4972665  71.3996887  25.6500125  13.3353031
  70.0334549  25.4389811  12.7189803  55.1795109  68.0273425   9.4644260
  54.6132096  67.3099582   9.7488534  55.6042679  68.3298652  10.2671051
  10.4432644  58.9715677  49.2677784  11.2510934  59.4450550  49.0691471
  10.0478615  59.4637864  49.9872303  72.8238344  38.9827061  14.8458886
  72.7322388  38.8008904  15.7811880  73.7207317  39.3033195  14.7509265
  44.3306828  11.3780594  33.6300540  44.1320372  10.6621921  33.0264759
  43.9118576  12.1445942  33.2385898  77.6986752  60.1400609  63.8920876
  76.9363127  60.4493947  64.3813209  77.4637185  60.2724190  62.9736602
  43.8724049   1.0686328  65.6786356  43.4965666   1.6304328  65.0008746
  43.1513842   0.9146502  66.2890865  77.3417807   4.1288424   7.1486264
  76.6274643   4.7383505   6.9629264  78.1137991   4.5385513   6.7582971
  23.4453074  32.4842001  43.3040177  24.3914096  32.3490251  43.2506549
  23.3411423  33.2067628  43.9231193  24.4046646   7.1372336   6.6479695
  23.5417229   6.7230320   6.6488004  24.8099190   6.8480659   7.4655139
  21.3039939  43.8267661  54.8355352  21.0847108  44.3878980  54.0917086
  20.8239571  44.2062916  55.5715787  73.8507557  33.4532809  35.9002399
  74.1106224  34.2008686  35.3618979  74.4163895  32.7388906  35.6070828
  50.5990362   9.2094320  13.3721030  51.3373470   9.7034502  13.0156219
  50.9124660   8.8865775  14.2169464  20.5579136  13.9427764   1.5654258
  21.4204739  13.8215167   1.9623147  20.7433985  14.1734225   0.6551331
  60.1919222  15.5650568  22.5541472  59.9735641  15.8864105  23.4289527
  61.0178709  15.9983909  22.3390579  30.6547221  74.3392942   8.6612171
  31.0442551  73.5775053   8.2320631  31.3937863  74.9243555   8.8277233
  32.4016627  75.6668675  26.9367218  31.6903933  76.3050721  26.8817377
  31.9749792  74.8205673  26.8027425  17.3621090  64.6471625  33.7932777
  16.9746312  65.5096035  33.9425635  16.6511258  64.0312414  33.9704132
  56.6679335  20.4214525  45.5072784  57.1220493  19.5861268  45.3966475
  56.9666719  20.9557748  44.7714233  74.4787741  51.4137602  40.4299593
  74.0754271  51.3560772  41.2961102  74.8600388  50.5477953  40.2851486
  22.9965131  73.1077952  57.5643771  23.9362828  73.2873435  57.5355106
  22.8830783  72.3355622  57.0102810  58.2163525   1.1156446  20.7588601
  57.4967480   0.8790348  21.3440204  58.9232492   0.5143105  20.9932303
  23.8024735   5.2467030  10.6916523  24.5182419   4.7192129  11.0461426
  23.7245536   5.9831578  11.2981129  20.5311161  29.1370153  11.3801587
  19.7146279  29.4290614  11.7854798  20.5789524  28.2029772  11.5839076
  22.6912276  61.1768169  61.8832716  22.8780381  61.4648647  62.7767819
  22.3111741  61.9456930  61.4582762   9.1129929  22.0613694   3.3642825
   8.7236458  22.7189660   3.9406580   8.4396035  21.3860703   3.2821026
  55.9763384  69.3599272  20.0366807  55.7409811  69.5098114  20.9523058
  56.0310221  68.4076786  19.9562323  77.7345419  40.8439016  49.1006613
  77.5472450  41.4088058  49.8503494  77.5921392  39.9559021  49.4284010
  65.9243536  71.4318609  34.8593068  66.6705751  70.8740520  34.6396780
  65.8684826  71.3922024  35.8140516  66.2712288  36.8531084  51.8356752
  65.4629183  37.2135377  52.2003078  66.7924929  37.6214576  51.6029692
  75.8701372  62.0755625  28.0998492  75.0391817  61.6022778  28.1417251
  76.5209627  61.4003372  27.9082012  24.8055416  56.8801308  35.4811358
  24.9351555  57.8216267  35.5952263  24.4358689  56.7940044  34.6024108
   2.4391228  29.2211699  42.5256681   3.0577141  29.1613984  43.2536840
   2.0575863  28.3455348  42.4630594  10.8018653  38.1809330  49.0134084
  11.7060487  38.0077895  48.7512814  10.8767096  38.5924007  49.8744094
   8.8740142  65.7220178  24.7055793   8.5885771  64.8105126  24.6430182
   8.1163295  66.1863940  25.0612497  72.1528633  74.2525736   9.5197690
  72.7070530  75.0280640   9.6076286  71.8620690  74.0636717  10.4119492
  10.0503975  73.5986567  24.1983676  10.8505207  73.8733625  23.7505293
   9.3859154  74.2223883  23.9056969  67.0808705  10.7586624  57.1089088
  66.6867073  10.9067824  56.2492966  67.5596436  11.5663054  57.2952389
  78.5940075  26.5654349   5.1662624  78.2249308  26.4819717   4.2870301
  78.6760473  27.5092602   5.3029817  74.6312523   0.7929765   8.3630437
  74.5728540   1.6848707   8.7056011  75.0051880   0.8964940   7.4880075
  14.9138790  63.7609339  27.1050692  15.7851464  63.3854818  27.2321796
  14.5958000  63.3596420  26.2963510  63.0430126  33.3198142   7.2608358
  63.5236073  34.1468716   7.2256273  62.1598244  33.5433197   6.9671327
  10.1343972  26.0982227   1.0600431   9.2959172  25.6625986   1.2130672
  10.7494694  25.6424999   1.6347060   2.2106224  30.1997113   7.1555823
   2.4215561  31.1333776   7.1564370   2.7183777  29.8387837   7.8823215
  73.5910273  54.6005297  15.9088659  74.4212532  54.9556208  16.2264550
  72.9226017  55.1404762  16.3306499  28.9450604  23.5527754   7.4939114
  28.8024765  24.1679192   8.2132864  28.6270958  22.7144408   7.8290623
  66.1630011  34.3683505   3.2283530  66.4878464  35.2681065   3.2622164
  65.2351665  34.4401002   3.4524104  20.8957289   3.5110957  27.8220701
  20.1551626   3.8969619  28.2899332  21.0400961   2.6695115  28.2546520
  53.2781601   7.8303421  11.0937762  53.6593294   8.4572470  11.7085373
  53.8774872   7.0841718  11.1101580  53.9572382  35.9893775  15.0739813
  53.7424612  35.5058002  14.2763257  54.1769028  36.8695736  14.7686350
   9.9971443  52.9290533  43.3000708  10.0757653  53.8678026  43.1303787
  10.3749901  52.5131178  42.5251770  31.2239414  68.4752274   9.3254393
  31.0981137  68.2862282  10.2553201  31.9460541  67.9053640   9.0607816
  80.7350445  28.4260249  24.4484472  80.2785397  28.9284492  25.1232839
  81.1948776  27.7391624  24.9311566  61.5768719  46.8922186  48.2200718
  61.3266850  47.1484137  47.3323774  62.4044418  46.4239883  48.1099606
   5.5108990  59.6542661   2.6123959   5.9499898  59.9399154   1.8112513
   6.1811795  59.7269886   3.2918596  65.7957792  27.8609896   4.4912302
  66.4703751  27.1982455   4.3431774  66.2540579  28.6955047   4.3922603
  14.6824739  73.2817934   3.1390799  15.0898884  72.4812029   3.4696806
  15.0862644  73.9841554   3.6488569  10.9842785  49.6528309  18.4392452
  10.9333428  49.9355858  17.5261807  10.4917272  48.8324492  18.4637582
  72.5108147  14.5053327  15.1731718  71.6184139  14.8231637  15.3104270
  72.7424192  14.8127735  14.2967749  68.1694317  32.1912670  35.7753611
  68.6953688  31.4173317  35.9769726  68.5850525  32.8984499  36.2687016
  80.9849072  26.3389492  13.7767959  81.3584423  27.1335697  13.3956409
  80.0779152  26.5719080  13.9750862  34.3928345  66.0760885  10.3122139
  35.1345929  66.0350459   9.7086072  34.6681841  65.5541747  11.0658860
  52.6708420  63.9506917  33.9281631  51.9637164  64.0148502  34.5701027
  52.4434288  63.1877105  33.3967757  79.3399914  73.0330219  31.4553881
  78.4992703  72.5846325  31.5468693  79.8447903  72.4767836  30.8620858
  57.0652103  26.8177986   9.2713761  56.5740728  27.5361466   9.6701145
  57.7030230  27.2500086   8.7033767  63.4732437  25.3235674  14.0524769
  63.1746006  25.0643277  13.1807899  62.6703310  25.5419374  14.5256257
  71.6793776  21.6462898  11.7063820  71.5918159  21.0891747  12.4798071
  70.7866049  21.7349148  11.3727224  52.0475674  65.2623653  15.3597796
  51.7566156  65.4163313  14.4609606  51.3506746  65.6298733  15.9033883
  58.9515352  24.5106626  21.4063835  58.0452156  24.2554164  21.5786123
  59.4614887  23.7215233  21.5892529  81.1834717  13.6671686  25.6083155
  80.4574299  13.7079036  26.2307549  81.5463924  14.5528960  25.6053495
  79.2280340  26.9281244  22.9160571  79.9360943  27.4869990  23.2362795
  79.6469212  26.3552260  22.2737527  61.4363774  72.4607345  17.9584360
  61.8695839  73.0609803  17.3515797  60.7578858  72.0370032  17.4327660
  67.5520515  54.8327971  24.2796159  66.9821548  54.4745398  23.5991025
  66.9843674  55.4136705  24.7861218  78.0520449  71.9754787  59.3897068
  78.5942374  71.1909575  59.4720643  77.7845965  71.9863982  58.4706938
  24.8742199   1.1040137  28.4076047  25.3516817   1.6447538  29.0367794
  24.7154427   1.6854529  27.6639986  79.1585922  39.0653682  24.2615485
  78.6688614  38.2442117  24.2157364  78.6519575  39.6132731  24.8610091
   2.3161648   0.5802257  25.2217340   2.6993511   1.2799508  25.7506824
   2.4542425   0.8608396  24.3170667  34.8454044  11.5323550   0.8761330
  34.5233391  12.0147140   1.6375995  34.0695332  11.3983161   0.3318061
  14.6767384  58.8366175  21.3997722  13.7458187  59.0466833  21.3256288
  14.9760586  58.7521935  20.4945040  24.0974204  73.5679336  50.2027344
  23.8307397  73.7833662  51.0964369  24.5693986  72.7394362  50.2867555
  49.0838718  11.7729616  48.8161802  49.0937996  11.6810393  49.7689056
  50.0041294  11.7116952  48.5600424  11.3715378  67.9911537  61.0847574
  11.0157172  68.0703087  60.1996815  12.1069972  67.3852820  60.9939324
   9.7843605  13.5757101  20.7115555  10.0973851  13.6502516  21.6130495
   9.1112095  12.8961337  20.7471752  45.2019358   3.9524713  54.2881823
  46.1213827   3.6897242  54.2456579  44.7793198   3.4600160  53.5845423
  49.8876476   9.7240049  62.2397327  49.6579409  10.5460858  61.8065500
  49.0761328   9.4401175  62.6605511  18.5834080  36.5740275  30.2177691
  18.0412251  37.3627472  30.2315712  18.0620629  35.9168983  30.6788659
  17.9782637  60.5618577  33.2005358  18.5674675  59.9511152  32.7577472
  17.1379622  60.4486101  32.7563453  57.2841024  38.5038424   9.8768955
  57.8167725  37.7101350   9.8267019  57.9132080  39.2202616   9.7920328
  61.8748522  57.0448589  53.0536652  61.1912060  56.4101171  52.8392839
  62.6941729  56.5665579  52.9264784  65.4310608  18.7856781  25.8045197
  66.3283777  19.0646434  25.6222272  65.4454374  18.5180843  26.7234421
   1.2960202  21.4094806  31.1011052   1.2108189  22.3493886  31.2609315
   1.3909584  21.3356447  30.1514912  45.0356442  30.9242678  13.2086611
  44.9796921  31.8373704  13.4903443  45.6399685  30.5184722  13.8302398
  62.8380442  46.8837500  19.6979988  62.8638792  46.6712809  20.6309628
  63.2005978  47.7679634  19.6435940   9.9834877  17.6947546  10.8808827
   9.9422318  18.5718918  11.2618816  10.6896645  17.7463686  10.2367783
  26.7497307  30.9718752  16.8568623  26.7497689  31.9181490  16.7126608
  27.6254898  30.6893969  16.5932858  38.5258198  18.0411351  29.3662167
  39.4708562  18.1736970  29.4408107  38.1995988  18.1335962  30.2613497
  78.6341238   6.8814927  19.2665982  78.8877773   6.4843363  18.4334373
  79.4638968   7.0623535  19.7081804  36.5343451   8.4598964  29.6742749
  36.2208962   8.4700292  28.7699080  36.5543199   9.3817586  29.9311829
  61.7509460  29.8585320  59.9888659  62.2654486  29.8686719  60.7959700
  62.2273540  30.4375124  59.3938446  58.3771763  74.3319268  63.6080840
  57.5241218  74.5790691  63.9650900  58.1840740  73.6215777  62.9962447
  68.5885382  21.1511564   2.8424314  68.5392427  22.1070671   2.8362748
  69.2166615  20.9392643   2.1519287  77.0501280  22.4828911  45.0420761
  77.3893738  22.6308513  45.9248304  76.1396122  22.7752948  45.0832701
  48.0309772  39.1307211   7.3600858  47.2392750  38.9793921   6.8438137
  48.6204433  38.4197187   7.1086180  64.3090677  38.7370849  37.1188593
  65.1512003  38.9759564  37.5061440  64.4154263  38.9168811  36.1847329
  19.1234549  13.9915087  44.9127423  18.9402397  14.6404364  44.2333638
  19.7312220  14.4318106  45.5068671  20.2956931  49.4436009  66.0091486
  19.5678441  50.0628467  65.9543597  20.0711505  48.7541635  65.3842573
  27.3466736  44.9652672  14.7122502  27.4887997  45.8640337  14.4151890
  26.6901356  44.6150064  14.1101658  50.5845126  74.6718690  36.2992144
  49.7617205  75.1359796  36.4536285  51.2093123  75.0879688  36.8931127
  52.5364447  20.8644223  44.3481970  53.0357742  20.3618312  43.7045336
  53.1019974  20.8941746  45.1198816  14.8079640  27.1346569  35.5720353
  15.1743084  27.8272438  36.1219001  15.0679261  26.3218665  36.0056520
  78.7674093   7.7727276   3.4875453  78.2507849   8.3703291   2.9469880
  78.6683273   6.9201589   3.0638224  58.4891272  12.9337287  45.0132418
  58.2813358  13.7234533  45.5126286  58.3793402  13.1930459  44.0984011
  10.6755787  20.1942539   4.9686444  11.2218720  19.9849236   4.2110324
  10.0143105  20.7966709   4.6279821   6.8529755   8.3523637   0.1998219
   6.3720471   8.0692202  -0.5778508   6.7409760   7.6359832   0.8247124
   2.0575482  48.4118509   8.7891287   1.3418061  48.1964636   8.1911677
   1.8326718  47.9621935   9.6036661  70.9489393  11.3223886  32.3669291
  71.4086437  12.0214307  31.9019103  71.3178682  10.5144334  32.0100927
  55.0583275  63.1847077   8.8595593  55.3493603  62.5385242   8.2161456
  55.0750073  64.0171712   8.3873737   1.1794907  25.0615549  18.8250005
   1.2853962  24.1733742  19.1658115   1.2616783  24.9654055  17.8761947
  44.9765491  39.5000935  10.7869339  45.7967520  39.6328235  10.3116620
  44.7209883  40.3770113  11.0731733  40.6047344  23.2252645   4.6744961
  41.4681911  22.8807974   4.9025753  40.3444386  23.7428570   5.4364514
  65.8624363  58.1388092  32.4947953  65.8358145  58.6112165  31.6627169
  65.3922653  57.3230934  32.3222494  78.9610386  10.3510642  31.0304427
  79.6357203  10.5163956  31.6890049  78.1567860  10.2330172  31.5358901
  54.4184875  22.3250580  17.8163362  54.8600864  21.8001962  18.4839761
  53.9123583  22.9679275  18.3131063  60.9836713  55.6557069   3.7990988
  61.7905394  55.1557205   3.9224232  60.9079639  56.1874864   4.5913828
   8.5010765   0.6826312  12.0917881   7.8831766   1.2959296  11.6939235
   9.2699192   1.2153299  12.2951245  21.0441740  23.2278111  65.2759058
  21.0265358  22.3291065  64.9468946  20.5452164  23.1939127  66.0920700
   7.7221066  41.2018871   2.5801507   6.8941647  40.7398129   2.7114213
   8.1068093  41.2572336   3.4548900  11.1466748  33.2234287  18.7434649
  10.3753907  32.7164078  18.9970088  11.8819386  32.6264548  18.8821411
   6.3388306  42.6389980  25.6253242   5.6798798  43.0447817  25.0619841
   5.9822899  41.7736530  25.8260274  70.2293730  56.6348886  61.6728163
  70.2811575  57.5673723  61.8826342  71.0505962  56.2693977  62.0018244
  73.9674568   6.3481003   4.9173355  73.6156511   7.2166610   5.1124400
  74.8286819   6.3391602   5.3350049  41.1602551  53.4884071  24.0792060
  41.4075714  53.8358498  23.2222652  40.4122025  52.9187679  23.8998890
  79.2970800  55.0855160  10.1989305  79.6430206  55.2531815  11.0755384
  79.1803598  54.1360664  10.1650560  55.8814240  65.4158926   2.8466666
  55.0008583  65.6915855   2.5920635  56.1618376  66.0705662   3.4862041
   4.4876820  49.6731663   8.1722850   3.6141545  49.4265127   8.4761542
   4.8595864  48.8612032   7.8278381  41.8069702  70.9201384  12.6295590
  41.6001469  71.8302107  12.4169087  42.5350338  70.9782410  13.2482493
  39.8320442  65.0903845  18.2722437  38.8970333  65.2952909  18.2701612
  39.8741871  64.1615105  18.0449843  18.5139519  38.5807920  22.1598005
  18.3570343  38.6637235  21.2191987  19.4668824  38.5416961  22.2411227
  51.6511202  54.0840769  10.4391408  51.2988710  54.2636156  11.3108730
  52.4709463  53.6180973  10.6033945  18.2910736  28.3803704  53.2890963
  18.8939150  27.9733469  52.6668858  18.8190707  29.0415909  53.7365782
   1.2523037  47.3048067  21.5712404   0.3007370  47.2430229  21.4878869
   1.3973385  47.5482225  22.4855399  54.2757988  58.9033461  24.9323964
  53.8643551  58.0455780  25.0381374  54.2190361  59.3047428  25.7995129
  24.8800906  65.9930687  32.5609469  25.1274021  66.9082551  32.4286556
  25.2024277  65.5426102  31.7802954  48.9119037  17.2356515   9.3191755
  49.1821887  16.5582900   9.9391401  48.6787577  16.7544370   8.5252560
   4.4720381  41.5320444  45.8921623   5.4120636  41.5509224  46.0716820
   4.3879572  41.9078350  45.0158358  59.2065710  59.7800398  58.6768579
  58.4897226  59.7525167  58.0431366  58.8183969  59.4610119  59.4915819
  66.6599017  30.3982377  59.1940022  67.2524685  30.2361941  59.9280548
  66.0978156  29.6240139  59.1645145  69.6735152  55.8213048   0.2802122
  69.0621718  56.2906651   0.8478249  69.5446416  54.8987298   0.5003965
  63.7851407  19.1651254  15.4430664  63.0297973  19.5193105  15.9123695
  63.4076651  18.5652118  14.7997559  21.4587073  75.5005095   7.3768557
  20.5279670  75.3210161   7.2436798  21.9057302  74.9089573   6.7714918
  50.2342979  76.0762713  28.4178532  49.7799961  75.5239461  29.0540779
  49.7223727  76.8847177  28.3938015  67.0207508  43.6688809  24.0162838
  66.1333330  43.8842111  23.7293041  67.3402913  44.4712167  24.4290531
  25.2310061  43.3701229  62.7285957  24.7529292  44.0389872  62.2383976
  26.1523628  43.6048603  62.6180029   7.2413111  17.9232144  45.1589060
   7.8876811  18.1291902  45.8341932   7.3874414  16.9980109  44.9617338
  10.5365719  34.3053489  12.9399527  10.2364554  34.1315894  13.8321198
  10.4335393  35.2509027  12.8324831  10.3572311  15.7532649  13.0009831
  11.0739221  16.1929660  12.5435436   9.5933547  16.3062673  12.8369225
  18.2910220  53.3361635  40.8997143  17.3509453  53.5163591  40.8955277
  18.5716061  53.5483549  41.7899311  15.7168515   2.4856763   7.2042597
  16.5961321   2.6583867   6.8677032  15.7533558   1.5817218   7.5169409
  71.7300391  41.7558289  40.6687975  72.4277437  42.3946047  40.5224943
  71.3914549  41.9660711  41.5390778   1.6095247  16.0659699  22.4223316
   2.3898854  16.3773684  21.9637383   1.0562195  15.7000642  21.7322529
  72.0885044  74.1191053  50.5470419  72.4210685  74.1845989  49.6518612
  71.6073114  74.9351358  50.6840801  33.4731521  49.1235929  22.0044697
  33.9904012  49.4876389  22.7229107  33.4848346  48.1785111  22.1558464
   2.8239483  43.6151123  58.0610418   2.2949094  42.9607964  58.5173559
   3.3567148  44.0143585  58.7487888  57.6632110  69.4598530   2.5932968
  58.2652966  70.1877806   2.7477158  58.1343428  68.8827036   1.9923246
   6.9303226  48.2372570  33.8669825   7.0861685  48.7334061  33.0633759
   5.9775537  48.2211637  33.9575601  34.0657244  62.8782175  34.8435963
  34.8807089  63.2404659  35.1911724  34.2485766  61.9459198  34.7269142
  48.0324330  72.3000817  19.3486107  48.8567086  72.6332765  19.7032726
  47.8408070  71.5246396  19.8760498  75.5248411  38.1580501  36.7363441
  74.6255072  37.8872066  36.9209469  75.4387553  39.0340667  36.3603008
  48.2981511  22.9514794   7.9253281  47.5621047  22.9880624   7.3144854
  48.1635882  23.6992173   8.5075748  51.7103237  33.8925338  54.6947336
  51.4665073  34.7553754  55.0298309  51.0809964  33.2931876  55.0959349
   4.5408676  15.6660468  63.1378031   3.6451052  15.7829387  62.8212929
   4.9018906  14.9733360  62.5845861  48.2439860   2.0740371  12.5424326
  48.4965142   1.5362411  11.7919386  48.6443122   2.9265742  12.3716963
  18.1567430  45.2268171  65.1531124  18.5119975  45.8007765  64.4744396
  17.7633023  45.8236313  65.7897043  40.4019789  15.1823528  27.6349854
  40.2334313  14.4403751  28.2157445  39.5805613  15.3055675  27.1592474
   2.6067844  52.4618196  56.9542503   2.4538274  52.4365091  57.8988123
   3.5441101  52.6356268  56.8679762  70.3524133  12.4885612  14.0780151
  69.9491759  11.6741424  13.7774265  71.2250276  12.4832015  13.6846340
  69.3022710  64.7705603  54.7350121  69.9571270  65.4686546  54.7423267
  69.1430467  64.6012402  53.8064575  45.9998204  33.9467721   9.7587956
  46.1903407  33.6395936  10.6451262  46.6864701  34.5877461   9.5746792
  24.0722640  14.4017558  29.1767490  23.9981969  14.2914157  28.2288158
  24.9971422  14.6001821  29.3232334  13.6964095  30.6058526  64.9849558
  13.5809398  31.0958385  65.7990885  12.9915226  30.9162164  64.4165897
  30.1233029  48.6292267  33.7934160  29.3363452  48.0919361  33.8842416
  30.8448434  48.0329132  33.9934731  24.7542914  12.8046279  26.5041245
  25.4136284  12.2273021  26.8890942  25.1772006  13.1649833  25.7246864
  66.7515818   4.5727641  50.7663584  65.9726540   4.0981681  50.4760838
  67.2097484   4.7989280  49.9569368   0.8882529  50.9027290  33.2572579
   1.5538839  50.9704399  33.9417887   0.8887116  51.7626572  32.8368354
  43.2190545  21.3186698  26.1915291  42.4135097  21.1020474  25.7220638
  43.8877674  20.7655292  25.7876862  22.6606826   4.6084697  40.6909275
  21.8130908   4.2120750  40.8926535  22.8838698   5.1089961  41.4757156
  18.2766233  76.4452622  10.3959883  18.5960082  75.7571409   9.8122824
  19.0182022  76.6351722  10.9706390   2.4518661  65.8396196  47.6167774
   1.9639337  65.5472660  46.8469191   1.8271226  65.7665205  48.3382893
  11.6822018  16.5363269   8.6055220  11.3202061  16.8208508   7.7663315
  11.0622968  15.8799844   8.9235914  69.4634267  45.9247498  19.8652256
  68.5135897  45.8065896  19.8563278  69.8067411  45.0827508  20.1642216
  58.0738973  30.7390027   4.4849098  57.5151967  31.3388209   3.9906347
  57.7468448  29.8677020   4.2610729  70.3270729  20.2527480   0.8447302
  69.8647912  19.9580579   0.0600756  70.7006319  19.4538741   1.2168634
  16.9017732  28.7336278  40.9604788  17.0917189  28.0733728  40.2939796
  17.7602017  28.9804769  41.3045645  15.9565914  72.5967646  47.8515768
  15.7369101  71.7331457  47.5021076  16.0484457  73.1521416  47.0773983
  14.9671197  73.7878084  62.7630949  14.4498062  74.3297625  62.1673584
  14.5580840  72.9236364  62.7169704   2.2313283  62.9732943  61.7013407
   2.1825038  63.6577940  61.0340214   3.0145764  62.4723434  61.4737415
  13.4046543  72.6062393  65.7326031  12.4710643  72.8054237  65.8030844
  13.8273633  73.4620142  65.6605053  45.9929206   0.9047561   1.5830458
  46.6882588   1.3816433   2.0361603  46.4067211   0.5808287   0.7829989
   0.6130146  59.5334053  65.1315546  -0.1111835  59.0430021  65.5204916
   1.0507280  58.9018488  64.5607901  52.0386722  72.8697305   8.3221186
  51.8638364  73.5673146   7.6904238  52.2723735  73.3297353   9.1283548
  42.0411416  40.6539588   9.5104254  41.4237364  40.2030854  10.0864113
  41.5804489  41.4483695   9.2404259  14.9570620  52.2268152  56.8979406
  14.5011616  52.2988653  57.7365065  15.6339383  51.5671301  57.0492172
  28.7516489  39.9093442  25.2791489  28.5866966  40.8510976  25.2330101
  29.1629638  39.7798161  26.1337078  63.4411663  40.8845997  31.1002564
  62.7822453  40.3159189  30.7019377  63.6811465  40.4401684  31.9133520
  75.1555693  45.6535673  37.8041601  75.6231374  45.2529907  37.0712543
  75.4466170  45.1612616  38.5717249  16.0184062  51.7272043   5.0200176
  15.7289374  52.3105001   4.3184459  15.6649673  50.8705330   4.7803763
  22.5020445  72.7464102  25.5741108  22.8425846  72.7039430  24.6805466
  22.1353046  73.6273859  25.6490410  11.6742086  51.7478132  48.9535761
  11.7863834  52.6851892  49.1116190  11.9401205  51.6250610  48.0422831
  79.8293468  69.6581411  59.3807697  80.1669463  68.9853001  59.9719858
  79.2897613  69.1769314  58.7534618  30.7073728  64.7865389   5.2677429
  31.6042260  64.4786308   5.1370562  30.7902227  65.7363508   5.3527582
  32.6772269   7.4739318  34.0218819  32.1851571   8.2764535  33.8485039
  33.5397228   7.6343827  33.6390198   2.9178333  66.2524891  16.6422439
   2.9781038  67.1662283  16.3635194   3.1137896  65.7478571  15.8528268
  17.1742666  69.8097086  55.5861902  17.6684809  69.0534830  55.9025812
  17.7927482  70.2849150  55.0313091   1.9944282  53.3999681  44.4837427
   2.5049907  53.8061953  43.7833548   1.1217034  53.2844973  44.1079092
  23.0870666  17.7583842  14.0715015  23.4264459  17.4794917  14.9219597
  22.2553720  18.1866508  14.2742718  16.7152109   1.6276841  16.7793930
  15.9287157   1.4863114  16.2524403  17.4217357   1.2378578  16.2645233
  20.1605995  12.0659595  14.6868694  19.2353853  11.9790082  14.4574154
  20.3065189  13.0104928  14.7397221  21.7457461  41.2348509  59.3463039
  22.0587468  40.6992340  58.6173487  21.5373731  40.6036854  60.0351000
  32.2342495  20.5692107  45.3239107  32.5087521  19.6537692  45.2704811
  33.0459092  21.0543544  45.4724646  41.3419310   1.7440994  45.2555132
  41.0460202   2.6370866  45.4322672  40.5577211   1.2060458  45.3638935
  64.6499558  31.9273572   5.4372585  64.2117067  31.1509423   5.0889147
  64.0226849  32.2982364   6.0579145  16.8887939  38.0650620   7.9276026
  17.8391733  37.9524569   7.9459608  16.5751638  37.3613744   7.3595417
  14.2105712  38.7284760  18.2072628  13.3166256  38.9754157  17.9703606
  14.1029491  38.0468087  18.8705719  21.6512656  46.6528893  48.2212162
  22.5638938  46.4734840  48.4473944  21.6981339  47.1119308  47.3825788
  78.7200769  15.4479699   6.7302073  78.6994966  14.5764976   7.1256102
  77.9827030  15.9096007   7.1294630  17.5395000  27.8513908  34.0205908
  18.0908871  28.2181263  33.3294249  17.6311719  26.9036484  33.9225483
  80.1107112  26.6859484  50.2071476  79.4894993  27.3810530  49.9899912
  80.6795729  27.0724964  50.8728886  53.0522275  52.0753102  21.3347042
  53.1135829  52.5482373  20.5047596  52.2006880  51.6395478  21.2996758
   4.2852630  15.9233098   3.7006796   3.7231483  15.2960210   4.1553963
   3.6921825  16.3982253   3.1184900   0.7987958  46.6515970  27.1731281
   1.6390809  46.2072515  27.0603752   0.2929965  46.0676384  27.7382755
  75.7995361  57.4051380  45.2800846  76.3681167  58.1722403  45.2130318
  76.1411858  56.9186115  46.0302830  76.7090066  27.9006343   9.8418558
  75.8707341  27.4805217  10.0343121  77.3051747  27.5630050  10.5103004
  72.5077623  48.0858278  64.5421410  73.3017629  47.6700068  64.2061520
  72.1451318  48.5529280  63.7894487  18.6473048  55.4412174  36.3610339
  19.2250204  54.6933794  36.5134001  17.8343058  55.2114010  36.8109775
  15.6612243  37.7551703   0.1845921  14.8423757  37.2995954  -0.0107681
  16.0171213  37.2932153   0.9436501  71.5464862  35.5124955  11.1807526
  71.3317807  36.3083796  11.6672743  70.9330054  34.8565536  11.5118301
  58.1614201  11.5499978   6.7517269  58.8672729  11.4124207   6.1199987
  58.0487036  10.6984715   7.1741379   5.2319247  52.2585106  54.4609594
   4.8303419  52.3367548  53.5956001   6.0910833  52.6692915  54.3643236
  23.2794149  63.3790968  16.0394848  23.3926956  63.8473246  16.8666256
  22.6008532  62.7294038  16.2230194  12.5579919  38.9434819   2.7031267
  12.5432767  39.4607692   1.8978775  13.1760730  39.4028478   3.2716311
   6.2532820  37.0975308  28.2541359   5.8645143  37.7869897  28.7924088
   7.1826496  37.1104388  28.4829224  60.3098555  35.1508288  13.2900990
  59.4187768  35.3084807  13.6021174  60.6853326  36.0251241  13.1858910
  63.4884459  70.2037811  53.0566931  62.8912502  69.7168970  52.4887753
  64.0130371  70.7325077  52.4554586  31.7255277  19.9711330  57.8520250
  31.7695985  20.1041419  56.9051409  32.0694453  19.0879638  57.9860926
  18.9175999  56.7125845  48.6950874  19.0263343  57.2305202  49.4926786
  18.4704852  55.9174156  48.9849663  41.2805672  11.7105823   2.6925648
  41.4340182  11.9577222   1.7806423  41.0293623  10.7878404   2.6516283
   4.6787202  63.6575890  59.2130041   4.1808081  64.0015221  58.4713650
   4.3844846  62.7508163  59.2991543  78.4113081  22.4605565   6.0560215
  78.9784773  23.0986981   5.6232060  77.5506957  22.5976281   5.6600512
  35.4897056  26.1083896  38.4118509  35.1620481  26.7488773  39.0432429
  34.7095946  25.8160217  37.9404926  29.2065038  30.2944474  15.9590519
  29.8667087  30.2719121  16.6517628  29.6868457  30.5730014  15.1793564
  75.4134832  54.6258531   2.8963554  75.0781403  55.4807840   3.1662977
  74.7633062  54.2990039   2.2745264  11.8119812  24.8314476  43.9541245
  11.3015473  25.5085969  43.5101032  12.3458266  24.4414139  43.2619476
  73.0591822  72.9716158  58.1890535  73.5669792  72.3193979  58.6717415
  73.5956734  73.1734943  57.4224710  51.9179145   6.4812381  54.5903587
  51.4382855   5.6909854  54.3419981  51.8429200   7.0562179  53.8287783
   3.0879229  28.4527278  62.9720545   3.6015135  28.9599466  62.3434162
   2.2545418  28.9196730  63.0326414  42.6515015  11.4701753   5.0397146
  42.9053338  10.5665593   5.2275456  42.2795769  11.4362149   4.1583813
  58.4743470  54.9364090  47.8423500  59.1998380  55.3802156  48.2815886
  57.9457015  54.5782566  48.5554361  21.3446569  12.3432541  39.4313049
  20.5172420  12.4675763  38.9663744  21.1378169  11.7170370  40.1250648
  14.5570123  57.7799129  53.5743666  15.0719595  58.2674360  54.2173100
  13.6496580  57.8966475  53.8559866  44.0310017   6.6355521  58.8820267
  43.9170388   5.6855399  58.8553429  44.6779338   6.8184097  58.2006502
  52.1024216   4.3743854  18.3860958  52.6051842   4.2432218  19.1899956
  52.2523045   3.5776620  17.8771771  70.2238746  24.5122104   5.5388058
  70.7226582  24.5932679   6.3517464  70.8378859  24.7765307   4.8537052
  72.2704120  18.0274920  14.5865715  73.1604834  18.2187896  14.8822201
  71.9438692  18.8633161  14.2533958  44.5121773  25.1586108   6.6062201
  44.2875071  25.7280307   5.8703411  44.0859600  24.3258529   6.4035070
  32.2279382  76.2900352  40.1059723  32.2067165  77.1140766  40.5925274
  32.5045657  75.6384850  40.7503319  77.9301643  42.5857019  40.8777952
  78.5816362  41.9205999  41.1001778  77.2322121  42.4618244  41.5210295
  68.2182066  39.0798290  44.8768616  67.6957218  39.8557479  45.0798035
  68.0107919  38.8836486  43.9632273  36.7241277  35.3448348   5.9180105
  37.4113264  36.0013347   5.8040083  36.0845413  35.5465083   5.2350128
  62.7629501  65.7741928  47.5285053  63.2362276  66.3412857  48.1373072
  63.4442919  65.4032707  46.9677687  39.6666459   3.9201839  45.7219601
  39.4336216   4.1060073  46.6315746  38.8734595   4.1217906  45.2255344
  45.0093512  23.9930351  58.9331961  45.0397054  24.3622787  59.8157883
  44.2424194  24.3995673  58.5297394  21.9198455   4.7217326   1.3663614
  21.2136259   4.2458014   0.9293545  22.0715417   5.4872613   0.8121193
  50.4006735   8.8626201  59.0139484  51.0236541   8.2325752  58.6517668
  50.8902828   9.3161971  59.7000790  67.3813268  36.8096118   6.7946852
  66.5458270  37.1931939   6.5281523  67.5694927  36.1546807   6.1224545
  52.5445849  24.2377620   9.1904915  52.9150746  24.7637324   9.8992384
  52.1752689  23.4712129   9.6289433  69.3323406  12.2169261  30.0609482
  69.0685817  12.1228747  30.9762753  69.9089523  11.4700608  29.8998917
  69.3632956  36.8329911  13.7822140  68.8414129  36.0979276  13.4604204
  69.5408126  36.6179805  14.6979034  80.1545808  27.7003908  32.1781301
  80.7022861  27.1288824  31.6399598  79.6833500  27.1030211  32.7589250
   2.9285802  13.9724355  15.0376595   2.0670213  13.6476045  15.2992523
   2.9878320  14.8411756  15.4351700  49.3228714  20.9851463  36.7999649
  49.1887013  20.8975036  35.8562756  49.2863003  20.0879104  37.1314287
   7.7717747  28.9160924  17.2750176   7.1582307  28.5246091  16.6532982
   8.5746612  29.0452390  16.7701233  33.6568818   3.5136325  50.1081181
  33.3295558   3.0296333  49.3499422  34.5494399   3.1905658  50.2313995
  56.2745110  28.5249095   4.4208849  56.1647889  27.6285224   4.7381866
  56.2170165  28.4505181   3.4683121   4.5002565  64.0465546  46.1420822
   5.2566373  64.5981884  45.9425354   3.7704554  64.6606922  46.2224293
  35.5362535  75.6773090  52.5561905  35.9357429  75.9309340  53.3882427
  35.2694869  74.7672653  52.6861334  78.1792553  41.0983806  31.8526733
  77.3337372  41.4043717  32.1808517  78.8023122  41.7679315  32.1350468
  64.4828884  19.5500667  56.9449186  65.3919403  19.5864494  57.2424603
  64.2380778  18.6290939  57.0349646  65.2323218  36.7839675  25.0866306
  66.0991116  37.1896081  25.1057137  64.7383555  37.3041253  24.4528568
  11.7450404  53.6447525  62.9680538  11.5588367  54.1263056  63.7740707
  10.8843565  53.4816027  62.5822592  49.7357170  21.2541873  47.5966740
  48.9279501  21.0268314  48.0571604  50.2120940  21.8132503  48.2104731
  56.2405454  35.4555564   4.8340977  56.9027938  34.7644286   4.8346031
  56.0716685  35.6247764   3.9072359  51.7303457  25.6650119   5.7445181
  51.4452298  24.8215489   6.0959566  50.9626882  26.2307792   5.8272350
  45.9784706  30.1339488  10.8095205  45.3942354  30.3233104  10.0753248
  45.4924943  30.4211192  11.5825642  66.5849443  56.9231229  11.3457001
  65.6856747  56.8897920  11.0194576  67.1166821  56.6076856  10.6149614
  14.2770183  48.9299965  58.2259893  14.8681080  48.7164021  57.5040340
  13.5460413  49.3869066  57.8098869  55.7568075   9.4643741   1.2982357
  54.9280639   8.9946227   1.3917864  56.1319447   9.4659667   2.1788633
  17.8564739  22.6544714  37.1185184  17.7929080  22.2570181  37.9869795
  18.5455644  22.1575451  36.6775513  76.0731800  72.0237069  22.4428070
  75.2302297  71.6786103  22.7370537  75.9843953  72.9733853  22.5231255
  57.9877888  12.4257760   0.8569515  58.3881884  12.5486426   1.7176569
  57.0885523  12.1584563   1.0470713  67.5268765  60.6927686   4.2193878
  68.1599494  61.0595231   3.6021841  66.6851993  61.0552030   3.9428843
   5.2375927  19.6448903  32.1583260   4.3782963  19.8369603  32.5337589
   5.7662620  20.4161220  32.3631371  60.5470480  42.9973512  12.2423351
  60.9664740  43.3560662  11.4602650  59.6160676  43.1845384  12.1220530
  65.6515880  62.4400334  -0.2052938  65.8188017  62.9322820   0.5984200
  65.2367814  61.6301446   0.0917900   4.7777721  44.8493910  44.5552254
   3.9563179  44.7911692  45.0431347   4.6458811  45.5794811  43.9504099
  76.7965588  56.6972971  52.7068233  77.1310836  57.5671625  52.4885130
  76.8133146  56.2192202  51.8777275  60.5758001  49.7679620   5.5357302
  60.0337179  49.4413857   4.8175896  59.9586447  50.2065759   6.1213673
  30.6211881  13.1069000  41.3660383  30.1953287  13.4143169  40.5658054
  30.6930257  13.8881500  41.9144201  24.4654789  20.8379655  19.0966023
  25.3745164  20.9580474  19.3713177  24.0440740  21.6752534  19.2905129
  12.6777472  31.1697822  22.5056446  12.6317920  31.6529517  23.3306683
  11.7804517  31.1788516  22.1724690  55.7402607  43.2079225   5.8959997
  56.5034803  42.6721005   5.6800688  55.8793246  43.4667497   6.8069828
  73.6297440  44.2959499  47.9203081  73.4884554  43.6998034  48.6557531
  74.3986064  43.9444637  47.4713755  14.9881782  20.5525880   2.0100773
  14.5206394  21.3878350   2.0123947  15.7191457  20.6889443   1.4073122
   3.4973571  72.7945423  16.6469836   4.3048623  73.2761717  16.8264365
   3.4668806  72.1176958  17.3231339  39.0592353  69.6955679  12.1977652
  39.9087445  70.0530861  12.4561203  38.8236038  70.1841305  11.4090860
  12.6206267  53.1041241  52.5622654  12.8438294  52.4740744  53.2474279
  13.4283292  53.2068205  52.0589733  58.1496493   7.3957736  52.2571516
  57.3157469   7.0122821  52.5287676  57.9074279   8.0728442  51.6253805
  71.9533344   9.8922687  13.8840855  71.2276669   9.7530465  14.4925678
  72.4389787  10.6289964  14.2550457  34.0890551  73.7166357  55.2872753
  34.4127417  74.6161699  55.3351498  34.2432547  73.4545851  54.3796492
  41.4447840  14.5504765   0.5948437  41.6298159  15.3907351   0.1753700
  41.5269967  13.9077907  -0.1097309  54.5688685   7.6492791  27.6217640
  54.8116571   6.8813901  28.1390942  55.3511072   7.8486114  27.1073711
  43.7848739  16.1322410  37.8564620  43.6814026  17.0637424  37.6619673
  43.9796189  15.7309253  37.0095563  27.7282936  18.8848884  47.7517414
  28.0629252  19.1233833  46.8872356  28.2037064  19.4532020  48.3577394
  15.3665340  38.8056397  55.0912857  16.1140347  38.7160015  55.6824207
  15.0598729  39.7021461  55.2271795   8.8229511  -0.0587790  39.4922113
   9.0736721  -0.0233691  40.4153156   8.2115887   0.6694467  39.3819690
  17.8634491   5.0148301   7.9169453  17.1043958   4.5289617   8.2394302
  17.5728359   5.9266000   7.8956926  79.4375005  39.2961574  38.0971289
  79.0401265  39.0295339  37.2681308  79.7568187  40.1838589  37.9351139
   7.1688881  40.2122264  10.9979570   7.5998010  41.0144238  10.7029617
   7.1881642  39.6352963  10.2344025   5.4619183  73.0802159  14.0828121
   5.8900609  72.8467851  14.9064911   5.1940598  73.9914231  14.2019356
  21.6725135  62.0498228  53.3220482  21.7435718  61.1031103  53.1998968
  21.1270952  62.3451185  52.5929737  61.5068165  71.9453690  27.6801765
  60.7935945  72.2608207  27.1251667  62.1921078  72.6073907  27.5888813
  20.7821178  75.2101612  40.8171225  21.1008501  75.3499842  39.9254417
  20.0657892  75.8372402  40.9165096  64.8738666  35.5376677  27.4530495
  65.5822666  35.7610660  28.0567825  65.0426431  36.0725121  26.6773594
  76.5942804  29.1879565  61.5739632  75.6433050  29.0832145  61.5437317
  76.7289487  30.0268752  62.0147705  45.0911168  69.8957727   9.7510708
  45.8882431  70.3921530   9.5655239  44.3985001  70.5559442   9.7772396
  22.5951505  52.0905972  64.5202017  23.5065651  52.3821211  64.5440435
  22.2492194  52.4524117  63.7043285  21.4652586  59.4557476  36.2355685
  21.2327576  58.5495472  36.0331488  21.2220836  59.5658016  37.1547985
  43.9599313  69.0665917  18.1808651  43.5281410  68.6816506  17.4182404
  43.4497251  68.7541585  18.9280689  16.9968166  32.7752786  28.8713730
  17.3004856  33.6458306  28.6141670  16.9917860  32.2729497  28.0565918
  79.9234255   8.6074214  21.4799488  80.3098210   9.0837388  22.2148407
  80.0763639   9.1715531  20.7219303   5.3457081  67.2427177  51.4497471
   4.9878737  67.9816628  50.9576607   5.2051675  66.4857006  50.8810616
   6.5894308  62.7044015  15.2338493   6.5970149  63.6152844  15.5279053
   6.0519661  62.7128606  14.4418419  79.3945557  32.1804285  27.7633500
  79.4162384  33.1193185  27.5782847  79.2956419  32.1258855  28.7138629
  81.0610183  20.5679278  10.7238758  80.2366288  21.0540585  10.7068432
  80.8068713  19.6732573  10.9501637  21.4258518  38.8636832  10.4501236
  20.7423629  39.4886641  10.6919325  21.6305151  38.4053426  11.2651527
  81.0952800  61.3369656  61.9086647  81.9110100  61.8376541  61.8973780
  80.5246651  61.8221664  62.5046635  58.5953442  52.8549323  18.0106915
  59.0452902  52.2916339  18.6403549  58.3160297  52.2604809  17.3143852
   1.1987434  63.9676714  17.5651991   1.9132344  64.5893908  17.7037442
   0.8722165  64.1695642  16.6883576  63.8360282   9.3014865  10.9413517
  64.5370265   9.8576360  11.2812508  63.3401271   9.0401177  11.7172373
  -0.2616105  35.3693681  15.8008373  -0.2546297  35.6912379  14.8994053
   0.5174603  34.8168235  15.8639038   4.0700211  23.5730414  24.2944801
   4.9063649  23.7973695  24.7024525   3.9589729  22.6393323  24.4735992
  77.1372549  57.5019977  37.9556931  77.4393741  57.7373896  37.0784557
  76.8954984  58.3363841  38.3576668   0.0683727  28.4671979   0.0686777
  -0.5768118  28.1034856   0.6750477   0.7760419  28.7809043   0.6317223
  68.1276743   7.9937370  47.1233940  68.9844362   7.7652461  46.7628574
  68.1460182   8.9478309  47.1982098  68.4877006   6.3662059  53.6495161
  69.3504898   5.9519393  53.6639357  68.6213867   7.2128684  54.0755796
  61.8801443  75.6032083   7.7538908  61.6211836  74.8467586   7.2276247
  62.5860993  75.2765415   8.3116997   1.1503090  40.3269105  27.3780144
   0.3786006  40.8865933  27.2916782   1.0490717  39.6712546  26.6880215
  16.0584283  52.0429468  37.2390532  16.8689311  51.6603470  37.5751162
  15.4736197  52.0685244  37.9964018  49.0408246  73.6355994  22.0743645
  49.4279949  72.9658673  22.6380909  49.7813408  74.1786597  21.8042648
  79.0630275  52.4417496  65.2275801  78.9285910  53.0910778  65.9178877
  78.2254362  51.9827938  65.1640558  11.5127516  69.8218107  48.9173746
  10.9703779  70.6095934  48.8791418  11.9698536  69.8861933  49.7559118
   7.6334590  76.2738609  35.8263421   7.3181295  76.4133215  36.7192864
   8.5862100  76.2386703  35.9115410  15.3433216  62.1173620  60.0514984
  14.7024584  61.9257736  59.3667936  14.8994935  61.8843365  60.8669424
  62.3926012   3.1591470  45.4319668  62.9234354   3.5528571  46.1243868
  62.9068081   3.2858426  44.6346140  15.7886092   0.2980335  43.4884214
  14.9382118   0.2595527  43.0507278  15.7128147  -0.3217118  44.2139578
   2.5936307   8.2206874  23.0357636   2.0342292   7.4854379  23.2861889
   2.4038162   8.8980250  23.6849297  77.5249499  60.0082874  11.0376728
  78.4006137  59.8848867  10.6713164  77.0162803  60.3862858  10.3203142
  12.2672524  35.2195983   5.6089199  12.3076286  35.9942918   6.1696804
  11.9893970  34.5147233   6.1938799  21.2572885  50.1526022  58.6485863
  20.5973148  49.7524357  59.2147446  22.0374918  50.2178812  59.1992712
  74.8280986  47.5820832   2.7147091  74.7646721  46.6307740   2.6297462
  75.7679160  47.7556519   2.7681053  45.7531889  62.3355107  14.2639626
  44.9971714  61.8138509  13.9946354  46.1309882  62.6512628  13.4431065
  46.5996027  74.9213982  49.7609091  46.9538164  74.0361357  49.8450470
  46.2472391  75.1217985  50.6280375  58.8063854  59.8072624  61.4819431
  58.2067507  60.5406237  61.6192532  58.4878629  59.1238022  62.0715714
  44.3916368  68.8730669  46.3054514  44.4969225  69.4753885  47.0419025
  44.2417860  68.0201101  46.7131805  79.1206018   5.6514747  45.1594877
  78.2738487   5.8989627  44.7880173  79.2257444   4.7299297  44.9230051
  12.9164982  73.0088139  56.4342785  13.7897325  73.3961105  56.4950752
  13.0671477  72.1330309  56.0785532  54.7211901   8.4309394  51.7026329
  54.5514647   9.2273147  52.2058392  54.6856419   8.7130077  50.7886314
   1.5018811  29.2732911   2.7134073   0.8263268  29.2215447   3.3895624
   2.2023573  29.7884517   3.1136263  78.0470077  21.4780242  53.0455923
  77.2350589  21.6637141  53.5172844  78.3109371  20.6115157  53.3549833
  46.7581097  28.4546573  57.9347610  46.0268501  27.9661281  57.5568295
  47.2655980  27.7966983  58.4099340  22.4425220  70.9493637  32.7110052
  22.3245454  70.7723904  33.6442757  23.0137777  71.7169046  32.6831150
  20.9698105  67.2824335  58.6325788  21.4530826  67.0176315  57.8499174
  21.1947322  68.2051086  58.7522125  76.1913331  33.6312537  12.8482187
  75.2882608  33.3699994  13.0283201  76.6585024  32.8056674  12.7201736
  52.4909417  74.8953054   6.1458672  51.9984595  75.1954410   5.3819216
  52.9571954  74.1173933   5.8397711  57.3192159   1.0104043  60.0813341
  58.0295817   1.6481311  60.0112104  57.5081913   0.5289800  60.8867836
  32.7411890  68.1639957  62.2222376  32.7622795  68.3900690  61.2923574
  31.8991351  68.4984350  62.5309944  69.3721191  17.4506194  65.6218529
  68.4480611  17.6582916  65.4832172  69.6738283  17.1234233  64.7744131
  79.0257716  64.5314217  32.0389676  79.7347903  64.0238094  31.6441846
  79.1604087  65.4223490  31.7159367  41.0209028  19.1759116  38.8595748
  40.3653900  19.7126205  38.4140706  40.5209748  18.6697108  39.4999361
  26.3980665  51.9205480   5.7569254  27.1765556  51.4196973   5.5133141
  26.6032590  52.8204923   5.5035103   3.6173238  22.4386840  14.1701878
   3.5629978  23.0900722  13.4709251   3.8257923  21.6203408  13.7195385
  62.3318521  13.6995418  44.5181513  61.8933431  13.1624133  45.1780272
  61.8450133  14.5236881  44.5180416  67.8424875  31.8944843  43.3640194
  67.8908579  31.2004573  42.7065754  67.1646015  31.6009338  43.9727354
  13.3437693  61.6202068  58.1556511  13.9318645  61.8932438  57.4515009
  12.5700486  62.1736956  58.0496550   1.8874214   0.7987125  63.2999659
   1.9089029   0.9655769  64.2422676   0.9940050   0.5001838  63.1299019
  19.3547380  18.0308151  49.7415781  20.2318096  17.8980327  49.3819284
  19.1188645  17.1824980  50.1170111  69.9021180  15.4504399  38.9961613
  69.4414099  15.5116420  38.1593597  69.2054303  15.3744512  39.6481407
  62.0230597  11.5988624  32.6549554  62.6641422  12.2572935  32.3871589
  61.3965148  12.0804060  33.1951284  24.7137789  75.5702875   7.4940098
  24.3585394  76.3737509   7.1139038  24.6858064  74.9343775   6.7791212
  11.8090904  45.3094292  32.1684432  12.2615278  46.1197329  32.4028444
  11.0328865  45.5986547  31.6887689   6.7921162  10.6107128  39.3343425
   5.9090877  10.2900350  39.1508794   6.8667334  11.4144766  38.8199234
  56.3126987  15.2576661  44.1269398  56.8738073  14.8439121  43.4710455
  55.4277843  15.1751876  43.7714767  34.9548473  69.5426255  12.8318679
  35.0447025  70.1603138  13.5575533  34.1961100  69.0077310  13.0651832
   7.1908510   4.6354410  58.5572577   7.7729601   3.9281780  58.2794809
   6.5266252   4.2023340  59.0934086  10.0611663   4.7865900  62.8058958
   9.7843140   3.9183795  62.5129890  10.7962406   5.0090057  62.2345591
  70.5094773  40.2830601  46.4198399  69.6459514  40.0152397  46.1054659
  70.4327899  41.2275457  46.5551281  13.6159960  30.4280720   8.3585060
  13.2719747  31.3067857   8.5189522  14.0218298  30.4840151   7.4934042
  66.1516811  70.8243679  56.9939137  66.2685790  70.3871136  57.8373432
  65.7001342  70.1789414  56.4500713   0.3404398  29.4483352  56.3496065
   0.1612714  29.9077010  55.5291700  -0.3824638  28.8273597  56.4392233
  80.0365345  29.4507456  60.3273487  79.4895780  29.6937013  59.5803261
  80.3216140  30.2862835  60.6972647  20.7937835  50.7912061   9.6091784
  20.4734699  51.3613317  10.3081692  21.4322648  51.3260863   9.1375053
  58.4254464  62.5222450  32.8937864  58.1964733  62.1817534  33.7585807
  58.9289843  61.8183534  32.4848628   6.7808628  21.5133309  12.3121512
   7.1495879  21.3756609  13.1846881   7.3990619  21.0843992  11.7204762
  58.0853003  12.0496535  63.7175941  58.8160151  12.4373448  63.2359457
  57.4141735  12.7321267  63.7247562  30.2689491  46.5473149  10.1924933
  30.1173059  46.6276340   9.2508019  31.1011217  46.9966302  10.3402699
  14.2567146  69.2261648  53.1228542  14.8915422  68.5866499  53.4457350
  14.2770231  69.9314117  53.7697268  69.0017313   5.4987425  26.5935278
  68.4367698   6.1085492  26.1189890  68.9961666   4.7033060  26.0610986
  -0.1648024  33.1048965  64.0471840   0.7343318  33.4324026  64.0701675
  -0.5241677  33.3312845  64.9049950   7.6891017   0.9753524  52.8902054
   7.7898920   1.8946026  53.1372929   7.0436299   0.6308333  53.5073805
   3.6574449  13.2313828  12.3355377   4.3564930  13.6883216  11.8678082
   3.6205830  13.6608653  13.1901825  40.7913248  58.8472746   1.2565315
  40.8381144  59.6719167   1.7402733  39.9486581  58.8826058   0.8038748
  78.9860229  62.8560781  18.6963189  79.0905699  62.7637005  17.7493405
  79.4210298  62.0856428  19.0615964  79.2425140   5.5977254   5.7780874
  79.9449356   5.6245379   6.4277924  79.5663245   6.1322646   5.0530756
  54.1760582   6.5901113  48.8969803  53.7264889   6.1134833  49.5947981
  55.0634879   6.7223275  49.2304754  19.1299152  43.0950117  62.3975039
  18.5526872  43.6278772  62.9443979  18.5944128  42.8635359  61.6386318
  28.9150801  64.9438045   2.7242268  29.0680131  64.5466254   3.5816038
  28.3340428  64.3293450   2.2758234  57.7355520  17.2356899  56.9028521
  57.5163571  16.7333991  57.6876354  56.9550220  17.7619846  56.7295599
  15.3172421  52.8348255  64.6501637  16.1790514  53.0906343  64.3214083
  15.1025259  53.5010576  65.3030539   9.7669303  58.8274336  43.5954428
   9.2232698  59.3339825  44.1988277  10.5811715  58.6767864  44.0755987
  66.3669497  24.1920638  48.7111473  66.4744061  24.4426560  49.6286917
  65.4197198  24.1258812  48.5902929  28.9169804  12.1097285  60.4191446
  29.7080944  12.6222331  60.2526665  28.3480497  12.2981746  59.6727943
  23.9245224  58.7485313  44.4136286  23.7551618  59.5391512  43.9013195
  24.5793676  59.0165567  45.0582790  47.9945389  72.1461032   2.3173416
  47.5992195  72.0190642   1.4548958  48.5994116  72.8783152   2.1980560
  64.1286403  43.2113504  29.3823433  63.7069386  42.4913740  29.8514223
  64.1518217  42.9219437  28.4702373  12.4032015  23.0328512  65.1174784
  12.3929590  22.7449679  64.2046547  13.2126611  22.6676488  65.4747295
  46.3700392  15.0214629   2.6645697  45.6529297  14.4269376   2.4442900
  46.0537883  15.5060153   3.4270847  69.4372135  51.4598179  37.1063948
  69.8767692  52.2896290  37.2919798  70.1435107  50.8666658  36.8503833
   9.5094579  27.8862619  46.8792295  10.4373217  28.0962396  46.7733526
   9.1884047  28.5310125  47.5096703  17.2002220  63.2431221  47.5439024
  17.0568502  64.1873169  47.6084852  16.3621449  62.8557730  47.7965260
  68.7728077  38.9281368  63.2720137  68.3565658  38.9511275  64.1336632
  68.4375566  38.1291199  62.8653097  72.8752240  13.1280618   8.8588465
  73.6045941  13.2708936   8.2556427  72.2161539  12.6733689   8.3343304
  21.5886998  20.5908418  61.0871315  21.2102699  21.0490894  60.3367758
  22.5343633  20.6469274  60.9499884  73.3075786  27.9085064  63.9157724
  72.7055883  27.5230885  64.5523977  72.8289187  28.6547017  63.5547876
  35.6514845  63.3125661   1.1737144  35.9977470  62.8388880   0.4174316
  34.7292129  63.4585569   0.9631575  69.4583207  17.5832367  34.1340423
  69.4960016  18.1334865  34.9163699  70.3073281  17.7103925  33.7106657
  69.6973628  32.9714322  48.8090086  69.3497521  32.8309727  47.9282856
  69.1363543  33.6512351  49.1823244  21.4427638  28.8720036  17.9444957
  22.1957397  29.0156507  17.3712409  20.8145690  29.5473337  17.6885068
  51.6982891  59.0241437   1.9465387  51.5619006  59.8660951   2.3809755
  50.8156400  58.7104611   1.7496431  52.0477698  25.6890779  21.9313419
  52.4074719  25.0436501  22.5398338  52.5912765  25.6082635  21.1475647
  21.7156720  27.8648305  37.9530120  22.4552894  28.4712458  37.9147911
  21.1368418  28.1481385  37.2452545  32.3565368  61.0324953   4.9025238
  32.6222525  61.9520042   4.9138201  31.4002107  61.0598920   4.8721684
   0.5704657  73.5700677   9.5916212   0.6295578  74.5213983   9.5038021
   1.0933010  73.2295916   8.8657082  75.6331025  42.9194445   2.8821886
  76.1474500  42.1843488   2.5485552  75.2238450  42.5831146   3.6794460
  76.0016531  34.8357630  43.8584423  76.3270032  34.5864177  42.9934549
  75.2282923  35.3703332  43.6785030   6.8589467  18.6776853  34.8597956
   6.7485499  18.2219076  34.0253425   7.4649286  18.1267667  35.3552794
  75.1129937  24.5017791  55.5670643  75.6349701  23.7114906  55.7056856
  74.3714619  24.4069600  56.1648703   7.3803848  22.3062682  42.1932220
   7.7475405  21.4523339  42.4217558   7.3638183  22.3114920  41.2361765
  31.0074423  61.9016168   1.5845860  31.2908850  60.9893320   1.5243280
  30.5654709  61.9596527   2.4316538  20.9158254  69.0236092  65.2046156
  20.4435325  69.8561573  65.1987696  20.9269977  68.7481403  64.2879772
  16.6389668  18.0448985  48.3663321  16.4806890  17.5916946  47.5382137
  17.5405586  17.8186011  48.5947037  45.3517203  61.7946980   9.7172726
  44.6632139  61.8354676   9.0535486  46.1675171  61.8537376   9.2200554
  73.1957692  56.5871382  51.6455984  72.7832109  55.7427073  51.4640474
  72.6416969  56.9849586  52.3171473   6.6985752  69.4317614  34.1061330
   5.7753803  69.6612274  33.9999175   6.7950012  68.6032455  33.6365628
  15.6381261  15.7038164  34.1653252  15.0311756  15.6652725  34.9044847
  16.4070618  16.1576998  34.5102286  77.5138935  45.8981895  19.6434450
  76.9779515  45.1389074  19.4143426  76.8802312  46.5806007  19.8648489
  62.6776677  19.7000444  41.2464285  61.7898089  19.6814799  41.6036272
  62.7320033  20.5358672  40.7830954  19.9029154  15.0589776  34.1872215
  20.2586120  15.4822457  33.4058428  19.8895544  15.7503653  34.8490667
   1.3096631  51.6098881  61.6459990   0.8565424  51.4339447  62.4705935
   1.2124041  52.5531912  61.5157938  39.1276161  58.8850639   8.1875885
  38.5328654  58.4437893   7.5811375  39.9601118  58.4239838   8.0846870
  57.9374280  52.3368649   6.5016926  57.5984769  52.9095368   7.1897257
  58.7547641  51.9902997   6.8595875  36.2484201  17.6484447   2.8714979
  35.3279861  17.6322131   3.1337393  36.4647826  16.7319398   2.6999319
  47.0653870  58.0294638  26.0215020  46.9707384  57.0784657  26.0751247
  47.5476255  58.2671969  26.8134379   8.8592893  19.9898231  58.0306482
   8.2174265  19.2844403  58.1123734   9.3299592  19.9831152  58.8641071
  59.3632382  24.3883228  46.0316944  59.4354314  24.3121576  45.0802660
  59.7728890  25.2288532  46.2364531  59.1943028  73.2687583  52.7856779
  59.9535855  73.2040345  52.2064257  58.8416322  72.3795032  52.8185511
  11.1047220  12.8420413  46.5151548  10.8566558  12.0128465  46.9239712
  12.0617270  12.8265548  46.5036535  19.3154860  52.8816652  25.0852823
  19.9818850  52.2844362  24.7454834  19.7266924  53.2913160  25.8464170
  65.4570099   9.0484338  31.3944424  65.5243238   9.8085504  30.8165825
  65.3203054   9.4210916  32.2654617  78.0463442  38.8781357  35.5240178
  77.4740580  39.2235303  34.8388720  77.4568722  38.4090352  36.1145258
  14.2405629  54.4922161  50.5488300  13.8783944  55.2182865  50.0410128
  14.1920602  54.7880554  51.4578724  17.0189059  46.6607332  48.9563894
  17.7143407  46.5544796  48.3073044  17.4780405  46.8933201  49.7634411
  77.4467039  24.4464135  50.4604578  76.5586016  24.7502041  50.6481218
  77.9695684  25.2470207  50.4171848  75.3159875   9.3943518  17.5799525
  75.3596044   9.9087930  16.7739248  76.2297571   9.2810732  17.8415334
  76.2742859  38.8467908  46.9153309  76.4622751  39.0259981  47.8366184
  75.8030337  38.0136847  46.9246960  81.3652802  12.9327404  39.7846913
  81.5275318  11.9911385  39.7273088  80.4119503  13.0095971  39.8232555
  80.3959798  41.6978455  37.0198965  80.4242605  42.5786114  36.6461587
  80.9201442  41.1664391  36.4206529  16.9135606  41.6636372  38.1203270
  16.7151940  41.6352320  37.1843386  17.0407498  40.7473183  38.3661199
  79.1090348  47.3367834  42.0997095  78.7586790  46.6946220  41.4823675
  79.6788552  47.8932810  41.5688181  77.5502215  58.4507010   0.1733053
  78.2911620  59.0558813   0.1417482  77.8807149  57.6463757  -0.2267801
   6.3372666  44.9466181  49.2255831   5.7027620  44.7029018  49.8995543
   7.1824050  44.6730566  49.5821428  78.4718825  76.3745699  63.3000326
  79.4018223  76.6007052  63.3176184  78.1761863  76.6443672  62.4305439
  77.6470110  16.3162684  24.2576385  77.1374622  15.7906294  23.6409593
  77.1564582  16.2654984  25.0780129  28.8035294  71.9014881   7.6270617
  28.2416658  72.6504967   7.8258789  28.4049999  71.1709140   8.0999983
  11.3285152  68.5908315   9.9506701  11.4460162  68.0819080   9.1485346
  10.4954771  68.2843373  10.3089178  19.8877227  36.6479802  61.4244747
  19.7916472  36.2133837  60.5770493  20.4649448  36.0715151  61.9252062
   3.8476464  26.3250017  28.7503076   4.7196326  25.9994197  28.9736199
   3.3957756  25.5660129  28.3815503   8.2411844  39.8119593  50.2821112
   7.7981490  39.2077351  49.6864033   7.7242714  40.6162405  50.2356195
  51.5536183  31.1765790  45.6483746  51.1574692  31.6589260  46.3740730
  51.8854946  31.8563199  45.0618219  20.4682589  30.6346393  61.4422989
  21.0020208  29.9111748  61.7708206  19.6195328  30.5194044  61.8696356
  21.2408185  63.1846142  55.7975769  22.1102500  63.3118963  56.1772108
  21.4081955  62.9912806  54.8751688  64.5163508  14.2771010   1.6987694
  64.1843082  13.4351211   1.3872564  64.8281976  14.7186713   0.9088314
  80.9808771  65.3423548  51.0680819  80.2940685  64.6977472  51.2383842
  80.5136208  66.1734438  50.9832382  79.8034847  62.6264095  59.7585726
  79.0309134  62.9522610  60.2202940  80.2453659  62.0662785  60.3967094
   4.4122982  60.1231909  52.0169067   5.2942467  59.7518444  51.9945526
   4.4907904  60.9550905  51.5499878  24.8329997  57.8039646  30.9293699
  24.6617532  57.4461889  30.0582194  25.1874399  58.6776209  30.7640672
  73.2837244  42.4006085  16.6823471  72.3542388  42.5619130  16.5202606
  73.7009748  42.5274568  15.8302677  32.4480589  28.2704167   1.9851816
  32.2195133  27.5937610   2.6224697  32.9731687  27.8132253   1.3283194
   0.8772560  70.4064941  47.0233488   0.5218858  71.1758566  46.5783501
   1.4072491  69.9682283  46.3575745  11.1860847  18.2002437  39.0553069
  10.5028057  18.8319325  39.2796540  10.8086944  17.3495638  39.2792535
  17.6594591  48.5419655  60.3428221  18.4348178  48.6114264  60.8998013
  17.9938841  48.2196522  59.5058584  48.2786075  49.8751638  23.7759102
  47.4504606  50.0810263  24.2095268  48.7654678  50.6992398  23.7857903
  24.4748950  45.1189232  45.6098747  24.3255997  44.5409870  44.8615885
  25.3624415  44.9095821  45.9008598  79.0804611  46.5713310  66.1179781
  78.8464572  47.3887444  66.5576506  78.3338946  45.9930372  66.2743330
  27.3550039  74.3622873   8.4813393  26.4488212  74.6491120   8.3682192
  27.8780204  75.1421902   8.2957685  10.4302227  24.4050503  34.9441457
  11.1391842  25.0341249  34.8104668  10.5596709  24.0843916  35.8366990
   4.2568457  69.9679184  33.2825041   3.5348734  69.3485308  33.3890104
   3.8668621  70.8234739  33.4618711  29.2900848   8.3429486  17.5782907
  29.3974638   8.3367521  16.6271532  29.1113853   9.2584354  17.7931905
  78.6357233  11.3358843  57.7439690  79.5230724  11.2637091  57.3923492
  78.0927050  11.5423667  56.9832277  65.1435679  23.7002015  53.3869934
  64.6447104  23.2956719  54.0967369  65.4164630  22.9657316  52.8371620
  40.5119391   0.6169109   8.4359921  41.4147182   0.4228859   8.6881292
  40.3973146   1.5428858   8.6496866  23.5775314  27.0330284  11.5691221
  24.0706469  26.2291477  11.7329681  22.9325397  27.0665608  12.2755898
  47.2310082  69.0391586   6.5704906  48.1083981  69.3228195   6.8273104
  46.8422691  69.8091243   6.1554420  72.6081067  46.2445021  56.1671543
  73.1224996  46.9338131  56.5872574  72.8052682  45.4563284  56.6732645
   7.4606923  75.3918598   3.0790747   7.1375362  74.6463607   3.5850657
   8.2032315  75.0428794   2.5860394  76.5897783  12.7267795  10.7036007
  75.6572326  12.6395373  10.9010351  77.0320113  12.4094586  11.4909828
  70.4137429  11.0319810  11.4810789  71.2080284  10.5336194  11.6733683
  69.7629591  10.3675036  11.2548435  75.2205223  60.6663370  35.7999372
  74.6844649  60.0948906  36.3497758  76.1035705  60.3029299  35.8662009
  66.4264554  31.7852664  29.7028995  66.9727653  32.5343800  29.9408197
  67.0136398  31.2048078  29.2186356  34.6174099  68.3452224  59.9911880
  35.4913010  67.9942959  60.1626396  34.7621324  69.2761188  59.8217201
  42.1627712  67.3830891  59.2022276  42.1511030  66.5175104  58.7937307
  41.3254452  67.7757406  58.9553642  46.1968573   6.8290906   7.3483265
  46.8271663   7.2581439   6.7696560  46.4719482   7.0799546   8.2301558
  56.8580476  67.6563261   4.6062267  57.0870201  68.2270358   3.8726795
  57.6774351  67.5457952   5.0885332  77.3110297  17.1245015  33.5425258
  78.2279366  16.8825889  33.6728787  76.9517952  17.1874893  34.4275188
  26.7352420  61.8090842  18.3783329  26.6460366  61.5445564  19.2939175
  27.6735329  61.7440031  18.2005489  42.0780675  57.2448693  22.8956879
  42.0970456  58.1462429  22.5741280  41.2226836  57.1586690  23.3165443
  49.7047918  70.0218343  62.6944399  49.3308019  69.1879468  62.4098444
  49.1529538  70.2940147  63.4276676  11.9074070  46.5518951  61.4440155
  11.0719287  46.7538643  61.8652201  12.5632989  46.7178011  62.1211481
  61.6839105   5.9141576  41.4358759  61.4334744   6.8372953  41.3994122
  61.0153407   5.5061668  41.9861364  15.4772580  66.3647461  40.1473045
  15.1026058  65.9326792  40.9148884  15.0126505  67.1997929  40.0918961
  20.8293388  68.4495614   3.8931215  21.1457310  68.1825469   4.7561586
  21.3468740  67.9308198   3.2772530  79.7165688   0.2787595  30.5578411
  79.6615656   1.1929183  30.2794254  78.8051160  -0.0013490  30.6416405
  21.2299275  32.5544453  59.3644238  22.1637130  32.3541355  59.2999887
  20.9464383  32.1188760  60.1682520   6.4683813  41.4571333  61.7913389
   6.8272483  41.2221050  60.9356451   6.5010929  40.6445408  62.2961712
  17.2312570  42.7047920  60.5970669  16.3911116  42.8195763  61.0411549
  17.1281230  43.1682301  59.7659111  74.6262497  29.7198391  47.1085501
  74.3368548  29.0067172  47.6777077  75.1816142  30.2626133  47.6681900
   7.9362893  54.4285583  50.8750772   8.7710625  53.9685488  50.9632635
   7.5662982  54.0985584  50.0562763  69.9581424   5.0076301  64.9340200
  70.1185314   4.1008479  64.6727848  69.0329591   5.0262935  65.1788092
  39.7106743   3.2248083  61.6718864  40.3141689   2.4854612  61.5984535
  40.2211237   3.9084479  62.1058369  14.6949184  14.0503049  59.9833679
  15.4714417  14.6031439  60.0706100  14.3483901  14.2592406  59.1159010
  15.9215200  38.6923790  61.0941601  16.7462754  38.4405565  61.5096092
  15.4012525  39.0693808  61.8036842  55.4257218  70.9050820   1.8206203
  54.6884910  70.8901427   2.4309481  56.0730116  70.3188513   2.2125137
  75.2065523  29.2652278  11.8037117  76.0055788  29.3467240  11.2829960
  75.1892575  30.0569682  12.3413694  42.2428052  70.7872579   7.1417797
  41.9673137  71.7016933   7.0773829  42.2203449  70.5958030   8.0793655
  10.9678996  34.1514587  59.8202324  10.6600797  33.2735324  59.5950127
  11.1548626  34.1064930  60.7579184  13.3725059  46.1749792  59.1799116
  12.8003538  46.2903070  59.9385786  13.6122656  47.0653915  58.9231777
  52.8885096  64.3598890  10.0004208  53.6698574  63.9959860   9.5841229
  52.2314638  63.6681795   9.9225706  18.0155623  48.8402891  50.2831173
  17.2699153  48.5847855  49.7400141  18.5676479  49.3628550  49.7014332
  80.2143416  21.7026997  65.7262993  81.0053998  21.8757844  66.2366915
  80.5377468  21.4501882  64.8614979  54.5382708   5.4784185  55.6320620
  53.7287086   5.8394110  55.2707815  54.2960972   4.6032584  55.9348440
  68.9317097  68.0810445  43.6974859  68.6197223  67.6763414  44.5068741
  68.6407628  68.9910065  43.7570763  59.6251076   6.3165736  33.2203293
  59.9308461   5.5601400  32.7197647  58.6709088   6.2417173  33.2086396
   6.1089069  10.8388638  41.9713354   6.9585490  10.4693127  42.2116947
   6.1790335  11.0095859  41.0320997  13.9873638  27.8003745   0.2914417
  13.2087268  28.3549981   0.3399551  13.8392057  27.2460179  -0.4746973
  11.5642524   5.8170372  50.9658480  11.4965641   4.9026531  51.2407160
  10.9822011   5.8832926  50.2088404  71.7973340  51.7917252  52.6656866
  71.7345339  51.5883064  53.5989141  71.7618316  50.9392405  52.2318172
  60.5737730  74.4709378  48.6325264  60.3696789  75.4058654  48.6104393
  61.3444324  74.3807117  48.0720139  64.7474080  23.6855412  19.2534816
  64.2290169  22.8812504  19.2783988  64.9003714  23.8431358  18.3218181
  76.8458390  37.4915528  24.6494460  76.2404627  37.0238423  24.0741205
  76.3180974  38.1911683  25.0344896   2.4045941  21.5254426  46.5222979
   1.8559276  21.8425274  47.2396946   1.8054570  21.4447403  45.7801723
  10.2024925  19.4958413  15.8186376   9.8303968  18.6201978  15.9236336
   9.9731189  19.9522007  16.6281784  12.5090802  55.5330610  47.3079920
  11.8900704  55.0413418  47.8476858  12.8832853  54.8796225  46.7170429
   3.2098350  46.4718819  40.3446579   2.7907395  45.7415676  40.7998896
   3.6625266  46.0653925  39.6056938   5.8325708  58.6342430  39.4251800
   5.6367356  58.8599014  38.5158086   5.9106004  59.4782495  39.8699260
  27.8601390   6.0898692  42.8290224  27.9385014   5.1749141  43.0991030
  27.7416264   6.0501582  41.8800211   8.9011246  32.1287036  59.8897219
   8.2238483  32.8003454  59.8095655   8.6655593  31.4716458  59.2347288
  55.3339138   0.5885892   7.6245726  56.0758351   0.8536081   8.1682194
  54.5642327   0.7761269   8.1618345   4.5338809  59.5356131  34.2078662
   3.6771029  59.7126341  33.8195014   4.6812707  60.2676678  34.8067045
  72.8347433  70.3950357  54.0165997  73.1764752  70.1636124  53.1529474
  73.1265414  71.2959385  54.1561079  53.1422846   3.4076888  41.1443901
  53.6645333   2.6681382  40.8336544  52.4451033   3.4982879  40.4948092
  39.5989227  60.9609365  60.4445934  40.1944637  60.2384186  60.6434107
  38.7413979  60.5458832  60.3517771   9.2727262  60.8323908  57.8964567
   9.9383795  61.5127468  57.9977226   8.4796059  61.2156487  58.2710314
  20.1103187  53.2909870  14.7256851  20.0661969  52.3796988  14.4361222
  20.9288144  53.3462191  15.2188861  72.5136667  56.6293335  35.7145262
  73.2349926  56.0032463  35.7772565  72.4249881  56.7993879  34.7767353
  18.7001204  17.3958790  40.3598261  18.2339406  17.0616984  39.5935154
  19.6214259  17.2081900  40.1803780  36.2409274   9.5198924  47.5274324
  35.3741185   9.3542297  47.8981495  36.3176231  10.4739291  47.5146723
  59.1992847  74.2709754  42.5117863  60.0153057  73.7741301  42.4527252
  58.9645783  74.2367027  43.4391296   4.7902894  59.6545362  27.0784736
   4.5045370  58.8163185  27.4417424   3.9970860  60.0349379  26.7011738
   0.2692020  35.1536703  33.4483242   0.4035227  34.5942116  34.2133045
   0.0222582  36.0033584  33.8134003  19.1865468  29.9839759  55.6353188
  19.3376362  29.5519948  56.4760303  18.4126031  30.5279875  55.7812357
   7.8784829  61.5338945  64.3591022   6.9831240  61.8614101  64.2736769
   7.9534239  61.2785816  65.2785730  65.6120547  12.6863055   5.6507004
  66.1060031  13.3114104   5.1201427  65.4919430  11.9286017   5.0782574
  36.9956444   2.2342021  47.2495747  37.5687079   2.9625804  47.4889469
  37.5942985   1.5327556  46.9930363  16.1152935  59.9679947  28.1845403
  16.2004805  59.9763775  27.2311759  15.2223265  59.6615982  28.3425307
  22.3426578   4.8912341  33.1116128  22.3142303   5.6970794  32.5958204
  22.0361982   4.2116458  32.5112247  41.7100946  10.1444823  46.3156414
  41.5368954  11.0762222  46.4500999  40.8453027   9.7346790  46.3363934
  72.9398066  53.8469124  64.8244190  73.4016263  54.3183088  64.1310644
  72.0387995  53.7786961  64.5085621  75.6548154  35.9282255  50.5117035
  75.9374672  35.1152611  50.0928640  75.2010131  36.4090610  49.8195410
  32.9681263  70.3607509   2.1045101  33.8207833  70.7230327   1.8637646
  32.6945917  70.8760092   2.8634012  48.4437029  11.2240703  44.6375370
  47.7850882  11.9123466  44.7309589  48.2563893  10.6148154  45.3516483
  44.8936510  52.8238726  21.0593796  44.5895815  51.9178581  21.0054469
  44.1120148  53.3254528  21.2911034   1.0931818  23.7435484  40.0696039
   0.3181200  24.2931008  39.9534011   1.8299846  24.3503451  39.9978209
  19.6357501  45.8852386  50.3605413  20.5000591  46.2292910  50.1350880
  19.3164122  45.4896545  49.5495129  29.4622588  34.9597716  20.3641391
  29.0806961  35.5975485  19.7609138  29.0264082  34.1353559  20.1482534
  61.4088541  19.8713315  45.3189468  60.8130950  19.6054590  46.0193825
  60.9409302  19.6563864  44.5120525  24.5638647   6.7075353  37.7843082
  23.6666193   6.9696574  37.9904068  24.6008625   6.7115788  36.8278301
  24.4369578  19.1604006  33.7883210  25.0138712  19.7722518  34.2455316
  23.8109994  19.7196710  33.3282971  77.9626510  59.8146725  32.6529360
  77.8694943  60.5892706  32.0983624  77.8017142  60.1348209  33.5405374
  70.4538542  71.8305874  58.2179546  70.1238137  71.7510462  57.3229790
  71.2227839  72.3953485  58.1403685   4.5358244  30.2188253  45.2245617
   4.9463147  30.2416396  46.0889769   3.6107540  30.0497055  45.4030991
  39.9704689  59.9968958  24.5236254  39.0600342  59.7639847  24.7055435
  40.2914280  60.3684092  25.3453255  23.4887409  68.0809212  52.6220942
  23.6807609  68.4755421  53.4727621  24.3104267  68.1484556  52.1357775
  73.6405444  44.9666119  65.7704353  73.9757228  44.2451811  66.3028193
  72.7718890  45.1462698  66.1301517  58.0622115  11.9117599  11.0124624
  58.9145972  11.4762597  11.0095156  58.1636559  12.6408868  10.4006470
  47.6342305  41.9994931   0.4455317  48.4033438  42.4767022   0.7569206
  47.5651832  42.2341924  -0.4798758  74.8374647  49.0389299  47.4128389
  75.2550220  48.1779575  47.3882198  74.8166174  49.3212461  46.4984560
   2.2706874  58.9252043  17.7152407   2.3919860  58.7576962  18.6498308
   2.7955604  58.2525969  17.2812593  52.4541027  14.1192727   5.0972927
  51.5123214  13.9593034   5.1580418  52.7978847  13.8522153   5.9497774
  63.2101005  59.9965096  48.1960630  63.4515125  59.5035458  47.4118853
  63.6881119  60.8219957  48.1166458  22.9183149  53.1284428  51.9443274
  22.4150181  52.3956633  52.2992325  23.7830472  53.0416822  52.3455048
  43.7147431  72.9770682  20.6623161  44.6354572  72.9614709  20.4010189
  43.2351212  73.0963228  19.8425758  74.9013638  35.3357768  60.0694275
  74.4542032  36.1266518  60.3707504  74.2084336  34.8025107  59.6799326
  54.1678468  62.7282737  15.2202786  53.2834832  63.0006740  14.9754799
  54.1830842  61.7859028  15.0531281  62.4791642   3.0343582  59.1482883
  63.1857034   3.3104136  59.7320920  62.8679981   2.3437168  58.6115813
  64.0526587  54.0175390  46.1214352  64.1530186  53.0742693  45.9933662
  64.1043323  54.3858337  45.2394342   0.1991536  36.3135719  40.5612516
  -0.1249782  36.2835407  39.6610999   0.0301262  37.2113991  40.8468533
  67.0494791  15.0370316   4.9173725  66.9061430  15.9814363   4.8558367
  67.5377901  14.9214988   5.7325018  54.1888587   4.3056113  36.4541674
  54.5211617   4.9602325  37.0683956  53.2554428   4.5026786  36.3758802
  73.6417842  67.8625965  28.4758544  73.4582967  68.7881613  28.6367631
  73.9283025  67.5242186  29.3241692  14.1659880  68.7482071  39.1143155
  13.6954653  68.6073542  38.2927322  14.7575164  69.4777107  38.9295292
  80.1638123  72.1947002  37.0193410  80.2762762  72.4827385  36.1134624
  81.0559983  72.0868635  37.3488975  73.0183184  33.0021954  52.1222973
  72.4816114  33.7945509  52.1410513  72.6019764  32.4158883  52.7540684
  73.5073038  19.1162543  20.7342518  72.7109059  18.9860778  21.2490643
  73.2528837  19.7382646  20.0526321   0.6832375  44.9833302  10.0894821
  -0.2657447  45.1078134  10.0764978   0.8129110  44.0954499   9.7561920
  55.7346757  12.8964095   6.1058128  54.9860840  12.6175170   6.6331280
  56.4955987  12.5341325   6.5596664  65.8376890  43.7692785  53.7348318
  65.3469306  43.2260227  54.3514872  65.1933604  44.3926382  53.3994293
  77.4819690  70.9067678  42.9270983  78.3663481  71.0311270  42.5826597
  77.1413064  70.1527643  42.4457884  34.1174422   3.4375484  55.4943752
  34.6894948   4.0179450  54.9922562  34.7157637   2.9138620  56.0272884
   1.2904508  53.0270720  27.1683693   2.0761964  53.4889412  27.4607944
   1.4649278  52.8143311  26.2515640  30.6925178  40.9913492  64.5670223
  31.4076185  40.9603548  63.9314938  30.0199676  41.5259075  64.1449356
   2.2853370  40.4253483  32.9089355   3.1038925  40.8294201  33.1968999
   2.3894876  40.3210068  31.9631577  23.6947608  73.5606480  32.2401071
  23.8440657  74.4921684  32.4020028  24.4402528  73.2880163  31.7051792
  76.1110528  11.7818694  15.8067406  76.6696103  11.6044621  16.5635574
  75.6657155  12.6007228  16.0244358   2.0754991  66.9095230  51.6720057
   1.8355800  67.6600552  51.1285257   1.4792195  66.2135029  51.3958931
  67.9597100  42.8455930  12.2427929  67.7991637  42.7511983  11.3038862
  67.9957577  43.7913709  12.3857248   8.7938207  53.8794231  61.6690922
   8.4181964  53.0003262  61.6209316   8.3921033  54.2693233  62.4455166
   1.0612859  48.5783720  61.9175816   0.2814448  48.5246849  62.4700308
   1.2866534  49.5086384  61.9111300   5.2123064  61.8593502  47.4463177
   4.7645980  62.6215887  47.0791960   5.2678734  61.2405157  46.7181778
  80.1030443  59.4112682  37.4163318  80.4747325  58.9683723  38.1791711
  80.4366560  58.9180470  36.6668868   6.4233923  58.5412312  52.3727560
   6.1657202  58.2486486  53.2469606   7.0700479  57.8966522  52.0853758
  68.2488759  29.7993188  11.4641846  68.8962742  29.1160922  11.2900818
  68.0642887  30.1788955  10.6050671   6.0758781  64.8255205  61.6671515
   6.8279362  64.2336226  61.6844177   5.5958486  64.5798588  60.8762932
  54.9406777   7.8196530  15.2554405  55.5704903   7.1754651  14.9320400
  54.4821564   7.3706965  15.9656704  44.5757381   3.6025245  42.1592951
  44.7986428   2.8125341  42.6516914  43.9940099   4.0914066  42.7413845
  16.8158925  16.0961115  38.6120987  16.2710321  16.7034554  38.1116056
  16.2305355  15.7476032  39.2845058  55.1671369  13.4420495   0.9806860
  54.8413508  12.8385501   0.3129423  54.5929644  13.2993274   1.7331446
  33.1732045  18.9865405  49.0146589  33.4395556  18.1204326  49.3231106
  33.1849704  18.9149482  48.0602121  67.7195185  11.2236595  63.4558058
  68.5788983  11.5321660  63.7430716  67.4654883  10.5759859  64.1132402
  24.0417337  55.5559969  37.5973153  24.1306138  56.1695623  36.8680215
  23.7742972  56.1008549  38.3374786  79.3338646  68.3090210   7.0222348
  80.2666858  68.3255053   6.8082142  79.1161059  67.3782873   7.0726538
  56.2541664  19.8827939   8.2568443  56.8425186  20.4179244   7.7241982
  55.7535926  20.5163770   8.7708748  23.0256581  37.1864796  46.0953760
  23.8465977  36.8121839  45.7756996  22.8783011  36.7563796  46.9377136
   8.0640852  59.8783684  61.1539316   8.1209660  59.0164375  61.5663290
   8.7910742  59.8945045  60.5314684  41.7378239  30.2173145  59.0163183
  41.1042658  29.5003803  59.0453053  42.1124760  30.2416045  59.8968172
  68.1874792  73.2408092   8.9076698  67.7105753  73.8125036   8.3060396
  69.0529529  73.1437633   8.5104740  22.0724392  53.8222933  62.5550222
  21.6454148  53.8046122  61.6985321  22.8009844  54.4336414  62.4468374
   2.0633380  71.3824177  28.0141616   2.9647714  71.0907698  28.1505060
   1.6079755  70.6073380  27.6853347  60.6138770  11.8788249  62.0666075
  60.2575962  12.6053054  61.5552092  61.2939159  11.5031535  61.5074587
  14.4801581  43.3652449  49.7773170  13.5873997  43.3093357  49.4365978
  14.8831415  44.0753651  49.2777491  37.1405049  28.3571439   5.7746351
  37.3476072  28.2843070   4.8429478  37.3937090  27.5107913   6.1431540
  20.0602893  13.7730987  21.3740993  20.9220544  13.4005172  21.1876130
  20.2385030  14.6844775  21.6061640   6.6379547  42.0764923  51.0368490
   5.7992566  42.5372458  51.0597277   7.1628654  42.5006962  51.7156410
   9.6353692  38.6086416  20.1892900   9.0401340  39.3078375  20.4595685
   9.5419073  37.9391956  20.8670354  80.6300345  37.8979683  49.8612499
  80.5369014  37.6002479  50.7661915  81.5078346  37.6149416  49.6051311
  24.9341297  61.4250231  50.7378864  25.8693218  61.3492441  50.5484056
  24.8953009  61.9099569  51.5622425  31.6920604  22.8807025   7.1489275
  31.7162075  22.4533277   6.2927759  30.7617130  22.9207330   7.3704851
   4.6920383  41.5940952  33.0373573   5.5347943  41.4796209  33.4765482
   4.8917317  42.1346569  32.2730613   1.2474628  48.7549114  50.5331516
   1.8307790  47.9960155  50.5258274   0.7993999  48.7207699  49.6879864
  43.1692628  17.8795440  41.5944481  42.7406279  17.2340114  41.0325003
  42.6368693  18.6695201  41.5010309  40.3035514  69.9415395   1.3137997
  39.3836204  69.9711249   1.0509575  40.3414921  70.4677556   2.1124781
  72.0483667  65.5585623  28.6848211  72.6183212  66.3183737  28.5661840
  71.6839093  65.6673717  29.5632076  53.0294555   0.2171650  47.0151186
  53.0208510   0.0696580  47.9608488  53.9339679   0.4613706  46.8190241
  12.7265155  34.1376519  62.3035049  13.6720335  34.0966558  62.4468470
  12.4976802  35.0511694  62.4748278   5.5076653  38.9847875  49.4752645
   4.7019660  38.5049987  49.6673107   5.5950278  39.6054840  50.1986837
  44.5748679   0.4925496  39.0636086  43.7863354   0.1759441  38.6229181
  45.2456776  -0.1557772  38.8493323   1.4018974  52.4309874  53.0288506
   1.2618025  51.9950199  53.8694096   0.7510811  52.0409155  52.4453163
   3.0547929  25.7567644  50.0710869   3.9796904  25.6949973  49.8323774
   2.7483055  26.5533900  49.6378565  65.4290479   0.4906919  44.4958782
  64.8835582  -0.2533320  44.2407322  66.3119775   0.2467586  44.2180920
  47.8514334  20.6162934  20.1818836  47.1288212  20.0165229  20.3671921
  47.4246134  21.4287381  19.9098766  10.0679457  14.4879055  35.3998351
  10.7637918  14.2555130  34.7849989  10.3916359  14.1923356  36.2507725
  26.4662113  21.7891221  10.6348503  25.5675020  22.1132331  10.5756844
  26.7358913  21.9930177  11.5303553  53.1216951  24.5670991   1.6380871
  53.2751385  23.9157729   2.3225296  52.8085435  24.0589623   0.8897818
  76.7905021  32.0464325  23.7209105  77.3474407  32.2977257  22.9840899
  76.9827267  31.1192775  23.8611484  18.8952386  61.3559198  44.5593262
  19.2526233  61.0631132  45.3976393  18.0662739  60.8848667  44.4747162
  17.5296891  57.9438210  55.4631472  17.2398758  58.3712006  56.2691164
  18.0232453  58.6192894  54.9979877   3.5680422  73.0334473  42.3365784
   2.6335701  73.2391977  42.3622942   3.8170853  72.9354048  43.2555962
   5.6242122  24.3617730   7.7282608   5.5813469  23.4068923   7.6772535
   5.9419026  24.5403247   8.6133707   4.9312931  33.6967611  51.7261696
   4.4174623  33.5160398  50.9390545   4.3780178  33.3969712  52.4474478
  23.9782286  40.3575039  51.7421341  24.1903853  39.8835850  50.9380102
  23.4939456  39.7246695  52.2724390  50.6808631   8.8340575  47.3171997
  50.9729520   9.1266353  46.4538813  49.7601120   9.0923602  47.3587751
  75.4999775  59.4970894  30.5629134  75.5688155  60.3908968  30.8984756
  75.5242383  58.9452362  31.3446426  10.4022980  51.7329216  35.9887338
  10.0173199  50.8942318  35.7345200  11.3459933  51.5727043  35.9900379
  13.8111556  47.3688650  16.1786485  14.0973055  46.5036964  15.8856666
  12.9392743  47.4743986  15.7979703   2.4098426  42.1394873  65.0778580
   2.2403689  41.7400217  64.2246675   3.3381492  42.3716211  65.0534916
  19.3404126  41.2653875  50.4937220  18.6348224  41.7846155  50.1080036
  19.0052176  41.0058832  51.3519382  69.1149765  46.0365582  47.0093346
  69.0906876  46.5680552  47.8050423  69.9518722  46.2562752  46.5999937
  25.2126122  76.2778425  58.5671663  25.2682066  75.3283501  58.4594488
  26.1186981  76.5575600  58.6975527  73.8983357  28.1805563  49.4841003
  73.9721799  27.2547817  49.7158766  73.0184042  28.4289384  49.7674036
  46.3881636  69.5110369  56.7400455  47.0495653  69.1133404  57.3062706
  45.5705166  69.0787077  56.9865799  73.7097130  72.6807425   0.2122772
  73.2867322  73.4178803   0.6526650  74.0753208  73.0576513  -0.5880367
  76.9053525  74.7759819  47.8047991  77.1019468  73.9011240  48.1397676
  77.7483883  75.2293062  47.8095627  14.2592168  63.5134125  39.8526478
  14.6845675  64.3595791  39.7136831  14.7743201  63.0970287  40.5436802
  16.5995693  27.8359222  60.6236982  16.6841614  27.2468352  61.3734007
  16.3905466  28.6864829  61.0098171  22.7847815  59.7612286  50.5479956
  22.3977542  60.4549408  50.0139523  23.7231660  59.9500084  50.5424500
  11.5762772  20.3316550  28.6548985  11.8960990  19.7809272  29.3694866
  10.9009518  19.8034625  28.2292450  12.0289230  53.2180500  25.4601955
  11.0979378  53.2099867  25.2378583  12.0614636  53.5899687  26.3415885
  13.1853676  59.1319084  29.5474768  13.6887813  58.5874653  30.1527762
  12.9380965  59.8988008  30.0641632  16.5193558  25.5910015  53.1849241
  15.5843365  25.7902360  53.1372166  16.7713487  25.8361101  54.0752363
   8.2269216  36.5216756  44.4632530   8.7061632  36.9065905  45.1970100
   8.8893759  36.0336733  43.9741325   7.2117716  45.6722021  55.9136057
   7.0203429  46.1040020  56.7461538   7.8041673  46.2736893  55.4624844
   6.7055118  39.0313458  44.4318914   7.0348179  38.1817245  44.1387510
   7.1506280  39.1862535  45.2650213  51.2552992  13.0722530  58.7419224
  51.2467901  13.4752948  59.6100903  52.0062462  12.4789912  58.7606287
  69.2922540   7.8112988  13.2379473  69.5690437   8.6360602  13.6371792
  70.0738796   7.4878602  12.7899731  44.9482842   7.2220378  11.1502827
  44.5535793   6.3760333  10.9388102  45.8757826   7.1127563  10.9404314
  17.2739315  49.8201609  44.7806072  17.5108993  49.0486383  45.2952242
  18.0781579  50.3377104  44.7407055   9.9923539  35.5840111  49.4785881
  10.6792092  34.9859571  49.7731924  10.3870404  36.4534974  49.5452738
  47.7432915  28.0890279  13.3513773  47.7616431  27.1534972  13.5530699
  47.6181896  28.1272035  12.4031532  16.0318983  29.6692729  53.9865637
  16.9316840  29.4431257  53.7510300  15.6465328  29.9963593  53.1737041
  56.8813222  21.9400268   0.4943073  56.2811971  21.4123254   1.0211933
  56.6153585  21.7739491  -0.4100811  49.2513885   5.6251626   2.6260794
  49.8438998   4.9665122   2.9884899  49.2745306   6.3425260   3.2594002
  15.8527613  43.0505037  64.0505314  15.1705980  43.6109209  63.6806440
  15.4274404  42.2010326  64.1677046  67.5236660  41.1089373  22.4296904
  67.9612452  40.6192636  23.1260920  67.5613648  42.0208931  22.7180362
  68.7253505  71.5851593  51.6249561  69.3354577  71.7244339  50.9006643
  69.1518825  70.9275103  52.1743155  70.2783900  37.9941916  37.9271889
  70.9702820  38.5386300  38.3028269  69.4650477  38.4221148  38.1947470
  38.5179345   0.2744539  17.0623934  38.5192172   1.2311990  17.0328450
  38.9883474   0.0097806  16.2718928  17.5048717  18.8119273   2.7250231
  16.9329317  18.3708100   3.3531416  18.2631429  18.2333808   2.6441706
  79.8694336  55.2171612  55.3643799  80.1173445  55.4902458  54.4810915
  80.7023178  55.0587082  55.8087063  37.3787073  13.2711894  30.4117250
  38.2226364  13.3867843  29.9750853  36.8145196  13.9398296  30.0233388
  81.2083000  55.8069372  52.9021549  81.6641790  55.1397848  52.3890114
  80.3783055  55.9363842  52.4432611  55.8247773  22.1908290  56.7159319
  56.0410563  21.9230277  55.8227682  55.7452027  23.1434924  56.6677094
  15.5316782  28.2698774  44.6970844  15.7345200  27.4222064  45.0927353
  15.2233815  28.0555940  43.8165903  14.6551347  58.6442423  41.9606924
  15.3375757  58.9424896  42.5619841  13.9206147  59.2372656  42.1189117
  64.2505723  72.0849514  16.4083326  63.7023145  71.6289711  15.7697976
  64.0817755  71.6329908  17.2350550  18.1516516  35.3414297  53.5153246
  18.4273565  34.8975134  54.3172979  17.3563993  35.8127093  53.7637186
  52.4517733  17.4258285  20.3360546  52.4873333  18.3497338  20.5837811
  52.9653888  16.9777255  21.0080898  17.2120690  73.7466812  39.7571468
  17.7401912  73.5836411  40.5386448  17.6933312  74.4223213  39.2795134
  16.9804420  10.3858619  22.9809845  16.2853660  10.1516156  22.3659790
  16.6054763  10.2109914  23.8441456   1.4089717   1.8342977  18.0503548
   0.5568637   1.7922072  18.4843815   1.5032758   0.9821777  17.6246441
  16.4345684  35.3526645   2.2033394  17.2449817  35.3120141   2.7110899
  16.4762582  34.5915704   1.6243494  80.1236423  41.7114644   1.8666590
  79.8084362  41.7138677   2.7704704  79.5416911  41.1027341   1.4116657
  18.0940294  69.8331976  64.3845654  18.7000060  70.3020525  63.8108063
  17.9732394  70.4168844  65.1335335  35.3579855  56.5581751  48.0539513
  35.1915455  56.7294073  48.9808846  35.9172511  55.7813549  48.0505419
  36.8514411   7.6389224  11.9889998  36.5527604   8.3044250  11.3692141
  37.5500301   8.0680473  12.4830210  58.2352821   5.8723171  36.2430811
  58.0060546   6.0265071  35.3266120  57.6561681   6.4536960  36.7358923
  55.8719985  22.3425205  53.7571859  55.2466003  23.0309589  53.9833832
  56.7197458  22.6875694  54.0373611  75.2103893  25.9338100  50.9538221
  74.6893541  25.3997905  50.3541708  74.6607439  26.0254771  51.7321014
  11.1566734  72.8084803  52.1521521  11.1904037  71.8518829  52.1482325
  10.2653825  73.0155659  52.4331284  33.5990218  10.1451022  49.1246843
  33.0455867  10.7427795  48.6219740  33.0943934   9.3330295  49.1708040
  25.0347938  22.6856284   2.0484007  25.6548967  22.1143346   2.5015295
  25.1747741  23.5483890   2.4386347   7.9250826  10.4598432   3.8173140
   8.8508215  10.2274184   3.8895596   7.7886548  11.1154466   4.5012749
  11.7801404  42.8977346  48.8609266  11.9806838  43.6636639  48.3229971
  11.2036490  42.3647785  48.3133411  55.0714721   1.1986713  17.9606426
  54.3658491   1.7793994  18.2453907  55.1565403   0.5601101  18.6686218
  32.3971605  61.9730759  54.4922209  32.3181200  62.5429296  53.7272024
  32.0084572  61.1436892  54.2142582   0.9014620  -0.2628775   9.3509472
   1.1232771   0.3605633   8.6593140   0.3519358   0.2357321   9.9556292
  79.8362764  18.1279139  11.5598238  79.1331204  18.1294684  12.2092903
  79.3847569  18.0653911  10.7181299  58.0139989  71.2937784  27.5783324
  58.1404823  71.9125605  28.2975960  57.3257488  71.6873598  27.0420170
  74.8401737  59.8273611  56.0777283  75.7367086  59.8710585  56.4102221
  74.3397617  60.3961658  56.6627789  22.2681236  70.4143667  53.2953739
  22.8923321  71.1385822  53.3412504  22.3805094  70.0567293  52.4146414
  70.1250607  39.8639965  52.0259094  69.2668837  39.8965216  51.6031742
  70.6924003  39.4374895  51.3836908  29.1914972  40.1891379  14.7725380
  29.2629679  39.5542245  14.0598000  29.2345079  41.0415416  14.3391884
  25.4459126  14.8704059  20.1587534  25.7471828  15.7784564  20.1889062
  26.2454159  14.3500526  20.2378368  60.4885618   0.4868180  52.4365282
  60.3542320   0.4505069  51.4894962  61.3051383   0.0087697  52.5811148
  55.8830858   7.3934607   8.8477791  55.8753102   7.9040294   9.6574057
  56.1869343   6.5258841   9.1146410  15.1042008  31.3768816   6.1704916
  15.6247807  30.8216619   5.5900103  14.9894500  32.1923447   5.6825548
  45.8656375   7.4450977  56.8484640  46.6323582   7.1601112  56.3513184
  45.1196543   7.1872813  56.3069201  42.4098873  73.2372570  57.9870176
  42.0922565  73.5491562  57.1396303  41.9639921  73.7905264  58.6283493
  13.5865092  74.4532108  33.8648081  14.2039037  75.1418066  34.1115713
  13.3995950  74.6189880  32.9407883  19.0181865  44.9642472   6.7798126
  18.2143154  44.4446759   6.7715586  19.0605011  45.3539090   5.9065426
  26.9141950  22.7817922  19.5303715  26.3396062  23.2597308  18.9323223
  27.7099313  23.3120875  19.5729912  60.3966751  42.8643231   2.9766405
  60.5482252  43.1363397   3.8817728  60.4009630  43.6808972   2.4772251
  26.2192200  16.2412364  49.5575857  25.5042213  16.3700969  50.1808071
  26.8386081  16.9437988  49.7550631  51.2056637  53.1252909  35.9505773
  50.9721231  52.4750853  36.6130924  50.4022408  53.2523203  35.4459882
  15.8404436  34.7823052  30.8452595  16.0660019  34.1105275  30.2017773
  15.2604045  34.3371110  31.4629925  50.8623449   3.1689746  42.8268909
  50.9548799   3.8441188  43.4990931  51.6670195   3.2314832  42.3122787
   9.9199810  11.3108306   1.2857998   9.5049347  12.1733289   1.2774170
   9.4272818  10.8016734   0.6421841  32.4021043  40.7460313  11.5346563
  32.6338996  39.8786120  11.8664444  32.0299520  40.5796199  10.6686056
  56.7411222  53.8982491   8.2390249  57.0381527  54.3655782   9.0197981
  55.9145801  54.3213754   8.0065811  13.6075294  55.0525045  55.0031185
  13.2865810  54.3341732  55.5483055  12.9441619  55.7366180  55.0934553
  54.6939484  13.5255058  48.0543089  53.8196174  13.9028175  47.9572964
  55.2741591  14.1506965  47.6198816  58.6826626  15.6598861  61.6310930
  59.0112106  16.2326057  60.9380722  59.4462792  15.4883868  62.1821928
  60.0457303   7.3057277  45.9400272  60.9777228   7.1105106  46.0375690
  59.6013133   6.5366180  46.2966585  63.8164131   0.7256944  58.2362032
  64.0937893   0.0911672  58.8970137  64.6330325   1.0391767  57.8474998
  20.5559063  62.5722122  50.7455111  19.8458934  62.6720619  50.1113653
  21.0429096  63.3944750  50.6912374  75.2044717   0.8893640  39.5985436
  74.4769184   0.8020074  40.2143908  75.9601919   1.0961778  40.1484013
   5.0458779  52.7312570  13.0650223   5.8665409  53.1001286  13.3916367
   5.2631964  51.8270688  12.8382242  16.4693276  68.9831159  16.6756523
  16.6652004  69.9096582  16.5364159  15.6217424  68.9816997  17.1204269
  53.1153621  43.1888776  18.4780396  52.5504818  42.5242810  18.8723076
  52.5204792  43.9021878  18.2466496  12.9776669  41.6101027  26.9169259
  12.5679910  40.9948206  26.3087964  12.9532707  42.4507523  26.4598179
  30.3784726   8.4683234  51.1117077  31.0324834   8.4013183  50.4159975
  29.5538072   8.6232002  50.6510830  43.5763836  51.2870979   4.5822835
  42.8675270  51.5085983   5.1861775  44.3764019  51.4503431   5.0818402
  45.6589985  72.0770502  35.2279711  45.2731609  71.9988775  34.3554735
  46.4625549  72.5786591  35.0904465   5.2572097  26.7929511  11.2840784
   5.0154032  26.9163136  10.3661764   4.6458354  27.3469834  11.7693604
  59.3764003  35.3568130  19.2034519  58.4265264  35.2584128  19.1379631
  59.6910109  35.2469068  18.3061398  48.7613916  72.7266264  57.7964258
  48.4097481  72.1073675  57.1568155  49.5223236  72.2806311  58.1683207
  44.4030513  42.0196443  11.8570269  43.4549131  42.1497064  11.8757666
  44.7472133  42.8222947  11.4651812  46.0158199  62.2151327  37.6219773
  45.3188914  61.6454268  37.9474878  46.5783900  62.3636246  38.3820415
  20.9458103  35.5887561   3.6308373  21.2863292  35.1559834   2.8479040
  21.0452499  36.5234904   3.4502256  23.5465121  66.8131590  42.4660778
  23.5068488  65.8819866  42.6842165  22.8218246  66.9471407  41.8552542
  60.0729942  71.5769148  65.4000807  60.1923227  70.7627678  64.9110413
  60.1920938  72.2675753  64.7481346   4.3793473  44.9769735  59.9002743
   4.1029593  45.8747387  60.0842905   4.3256322  44.5317316  60.7459116
   1.8301789  41.3879204  53.3518028   2.1979898  41.7830467  54.1422558
   2.3789173  40.6204844  53.1900501  27.6792612  45.0591760   2.5744713
  27.4089994  45.3380017   3.4493673  28.4852924  44.5636373   2.7193440
  46.1078215  54.8465061  22.4662185  45.8056450  55.7029009  22.1637154
  45.7447767  54.2270899  21.8331671  17.8353872  33.6769919  16.3050831
  17.4796953  33.1470017  15.5917538  17.2538032  33.5036044  17.0453060
  10.9059143  55.6967211  43.7550974  10.6023800  56.2277031  43.0187845
  11.5423977  56.2524605  44.2048454   7.2588934  28.5187488   2.3535908
   6.4229288  28.1554465   2.0613516   7.2199335  28.4710746   3.3088100
  25.7329045  16.0345561  65.1840067  25.2009639  16.2366779  65.9536934
  25.0955621  15.8601005  64.4914818  59.8890877  69.7005272  44.7291040
  59.5093250  69.9410582  43.8840246  60.1345301  70.5354452  45.1277304
  65.4873021  18.5115151   0.3637875  65.9037550  18.6637835   1.2120855
  66.0999795  18.8790421  -0.2732241  59.9563901   2.3719079  45.8604097
  59.9797479   1.4397056  46.0764885  60.8698312   2.6010043  45.6890345
  71.9981233  13.8195331  60.0991392  71.8142692  14.7447688  59.9367619
  72.9518453  13.7529952  60.0520372  19.0723219  23.8743548   3.5146082
  19.1032590  23.8130336   2.5598753  18.3365717  24.4599967   3.6932838
  20.8565416  72.5598531  43.5224903  21.5765609  73.1437020  43.7610710
  21.1469450  72.1398931  42.7128399  73.9724215  12.5804715  22.6679123
  74.4197949  11.7700963  22.9115952  73.3690759  12.3209147  21.9716061
   6.1574354  27.6972775   5.6625116   5.2242722  27.6018195   5.4719151
   6.4893236  26.7998748   5.6898916  74.6676811  37.8234868  19.5835197
  74.6697124  37.1929841  18.8633144  75.5392178  38.2184892  19.5584953
  80.6585691  45.8557796  43.9886808  79.8602128  46.1136913  43.5278749
  80.5978264  44.9030399  44.0581942  81.2472882  49.2552805  66.0243273
  81.9590442  48.6754608  66.2953281  80.5415703  49.0745926  66.6452503
  69.2088787  17.8309829  55.2717972  69.9363033  17.2191245  55.1590204
  69.6292011  18.6781223  55.4197884  58.9714209   2.6984746  62.0918131
  58.0262081   2.8451164  62.0556927  59.3189160   3.4805400  62.5205898
  63.9309780  10.2915008  66.1980200  63.9224235  10.4018790  65.2472401
  63.8352768   9.3483646  66.3305235  40.4853336  36.4036376  63.6828518
  40.1931934  37.1109016  64.2578888  41.0872475  35.8901031  64.2215729
   9.9572100  17.2891479   6.5863979  10.3871622  18.0392795   6.1756886
   9.2311873  17.0782332   5.9993399  16.3968706  64.4036245  66.1582375
  15.6561613  64.3325520  65.5561304  17.0901966  64.8098421  65.6381226
  52.2402279  30.7092101  58.8978148  52.2075597  30.4512317  57.9766130
  51.7950932  31.5561588  58.9252853  76.8255432  19.1223721   0.9592617
  77.2358521  19.9600415   0.7443464  76.2743600  19.3133740   1.7181719
  48.5634565  68.3738947  58.4657621  49.1773033  68.7113571  57.8134251
  48.0755377  69.1443205  58.7566328  38.9236774  15.6921105   1.0916985
  39.7501077  15.2117162   1.1414135  38.8609876  15.9668260   0.1769102
  25.7957697  51.0982561  61.0536814  25.9454274  51.9598436  60.6644487
  25.6137133  50.5267763  60.3076935  74.9546965  24.3440347  13.6539543
  74.4773920  24.7878985  14.3549526  74.2725142  24.0371900  13.0567110
   4.5507687  53.1833124  32.4907160   4.3869635  52.2601748  32.2977781
   5.3742594  53.1835556  32.9786658  54.4211686  58.2222085   5.2148998
  54.8753602  59.0611939   5.1371611  54.9241986  57.6252942   4.6609200
  63.6401955  72.9547951  26.3590229  63.7638251  72.4230144  25.5727947
  64.4582216  73.4437249  26.4485539  64.0581290  16.3974292  37.9424906
  63.1993906  16.1511142  37.5987911  63.9456693  16.3938720  38.8930559
  16.9855871  49.1500859   0.0730217  17.4999799  49.3052869   0.8651960
  17.3440256  48.3403783  -0.2904903  12.0126927  76.2208128  58.7894583
  12.0831001  75.3663349  58.3638430  12.6819420  76.7564344  58.3634901
  67.3802753  38.4203629  30.1151360  66.8218132  38.6774211  29.3814648
  67.4384995  37.4672036  30.0493420  39.6490447   2.3441179  38.4550548
  39.1721551   2.9891307  37.9327893  39.0939788   1.5644748  38.4379816
  57.8549782   3.6097533  50.2532101  57.3234073   2.8319509  50.0838375
  57.2281710   4.2671211  50.5552244  67.5102186  73.4620523  32.5852180
  67.8998566  72.6048136  32.4132895  68.2580233  74.0555859  32.6540518
  25.9245832   9.0468700  38.4852600  25.4926319   8.2322318  38.2283306
  25.8553620   9.0639503  39.4397998  24.3222070  43.0694485  51.4381933
  24.4051123  42.1160936  51.4165306  25.2032638  43.3818674  51.6440201
  66.4740523   3.7770514  25.3227127  67.3579832   3.8970094  24.9755657
  66.5608545   3.0670791  25.9588230  78.4058269  36.4819579  16.0780895
  78.7781056  37.1771531  15.5355633  79.1587361  36.1029439  16.5316475
   6.2514240   5.9986698   1.7376507   6.8822998   6.0304558   2.4568260
   5.3994995   5.9330094   2.1690929  12.6772704  37.2828774  14.5877922
  12.1525993  37.0411544  13.8245667  12.0961847  37.1360688  15.3341282
  45.9883944   8.8174636  59.9593019  46.0421793   9.3709380  59.1801929
  46.3874952   7.9892738  59.6927691  15.8891749  56.6312742  45.3963709
  16.0726821  56.6376305  46.3357973  16.4053416  55.9003448  45.0564480
  73.4968919  43.7331295  63.3010769  73.3791500  44.2491961  64.0986013
  72.7179217  43.9205503  62.7773285   2.2124257   3.4999757  28.7999905
   2.5659933   4.2274861  29.3118084   1.3587298   3.8113551  28.4991920
   3.2550333  28.0403526  65.6050253   3.2444952  28.1806476  64.6582222
   4.1830013  28.0564410  65.8392239  25.6508353   4.2543895  58.0775785
  25.4687294   5.1559646  58.3425856  26.4643264   4.3117339  57.5764036
  28.9306402  23.1665301  61.0670567  28.3601475  22.5408888  61.5135336
  28.9545131  22.8634739  60.1594114  67.9003135  16.4778526  45.4557657
  68.6024419  15.9811122  45.0356483  67.3212043  15.8101089  45.8231640
  81.4301570  60.5039220  23.6698330  81.4142044  60.3252702  24.6100796
  80.5078228  60.5744748  23.4237564  13.3721749  20.7111842  57.1329212
  12.6626436  20.3261478  56.6185856  14.0985946  20.7933814  56.5150309
  25.8528924  61.9570255  62.8304243  25.3725004  61.8907261  63.6556864
  26.7746043  61.9236612  63.0864763  21.9080901  66.9566441  39.7788095
  21.1843824  67.1267176  40.3817654  22.2419357  67.8251934  39.5543003
  17.5419654  19.3810372  12.0640171  17.2144832  20.1370339  11.5767181
  16.9659366  19.3194203  12.8260029  77.5226887  30.0710874   0.4925430
  76.8694456  30.0926785  -0.2067720  77.8555091  29.1736798   0.4817760
  73.9234106   5.6210525  45.6628132  74.6404688   5.9448344  46.2079954
  73.4119598   6.4019878  45.4511881  45.3958607  67.8897095  49.6048689
  45.0300074  67.2924137  48.9524698  45.1843405  68.7631178  49.2752552
  57.7456800  19.7467811  30.5364847  57.4039189  20.2230842  31.2931681
  58.5997550  20.1450259  30.3685760  64.5840208   9.5830924  33.9491653
  64.3894593  10.3042991  34.5476913  63.9638583   8.8958270  34.1926694
  31.5116191  65.4891586  62.8535223  32.0494175  66.1604643  62.4335814
  31.3515520  65.8270836  63.7346649   1.2774696  72.7852731   4.8237932
   0.7106700  73.5534387   4.8937786   2.1040692  73.1277280   4.4836605
  62.3123791  12.5306945  12.5260866  61.9828691  13.4286504  12.4896420
  63.2284846  12.6221805  12.7880276  14.0640964  15.7154613   5.5615032
  13.7723865  16.1358123   4.7525299  13.2970609  15.2338462   5.8712376
  59.5925061   9.9408920  52.5775480  59.2908637   9.4926555  51.7874050
  60.0993554   9.2799098  53.0491734  25.1789737  46.6909266  33.6529517
  24.3842697  47.1883106  33.8460517  25.2775908  46.7563200  32.7030945
  52.5539080   9.2039497  49.4233656  51.8149964   9.0069682  48.8476562
  53.1426040   8.4560306  49.3219090   1.2044237   4.3065555  55.1534653
   0.7416294   3.4690006  55.1297474   1.4850138   4.4508369  54.2497587
   3.4540604   0.9551675  29.6971750   2.9455183   0.3418357  30.2276850
   3.1613729   1.8200786  29.9843907  47.0645062  29.0301807  63.1370544
  46.7948178  28.3975227  63.8028145  46.4998714  28.8438709  62.3869181
  33.1169589  18.7373881  10.7130230  32.9315742  19.6212678  10.3958118
  33.5752352  18.8718371  11.5425623  80.2834074  22.5995643  50.0232077
  80.8745186  23.2827766  50.3394794  79.4193355  22.8663451  50.3369522
  66.6537094  65.3016376  55.5698633  66.7887878  65.4583597  56.5044355
  67.5331354  65.3287601  55.1928949  74.9507125  45.4736333  26.1550797
  75.7021364  45.5291753  25.5647362  74.2509826  45.1021867  25.6178272
  56.6890709   3.2051666  38.9754796  56.2381069   4.0248210  38.7729049
  57.3562853   3.4509380  39.6163034  79.2688028  11.2345416  25.4495978
  79.6819870  11.0472209  24.6067309  79.8999635  11.7895705  25.9076524
  31.8290901  70.6916475  57.9028749  31.8495321  71.6326666  58.0769300
  32.6515770  70.5145884  57.4463654  31.7200398  73.8265419  56.4742136
  31.8481255  73.9393330  57.4160767  32.5427198  74.1212845  56.0836267
  65.3601676  10.1448261  14.7043789  66.1820680   9.7061169  14.9240292
  65.6152326  11.0457527  14.5056332  76.3760511   9.7618301  55.7779932
  75.6360141   9.3108470  56.1844206  76.0852806  10.6697280  55.6919098
  27.9180956  75.8986759  59.3239021  28.4583473  76.6660023  59.5125055
  28.5419440  75.2303553  59.0403700  57.1609131   3.9797790  54.7131062
  56.3082449   4.4104392  54.7741175  57.6906816   4.5719535  54.1793346
   3.6229752  15.8154495  65.7665586   3.6618469  16.6948707  65.3905964
   4.3498609  15.3471191  65.3560305  74.7127763  19.2053516  44.3707848
  73.7871257  19.1300208  44.6025753  75.0416509  18.3070094  44.4030857
   5.9537282  28.2899480  15.4900635   6.3011255  28.2184415  14.6010006
   5.2943172  27.5983577  15.5458916  29.3674517  68.1112909  62.9504299
  29.9701786  68.6659622  62.4551630  28.8167000  68.7275505  63.4332657
  76.8293484  27.8443627  21.2718952  76.0129531  28.0054479  21.7449463
  77.2283586  27.1035104  21.7281330  14.7780180  55.5100679  63.1509447
  14.3854558  55.2641726  63.9885950  15.4629374  56.1373997  63.3823919
   3.3235961  44.1927147  32.1077275   4.1527081  44.6709394  32.0974898
   3.2383507  43.8803911  33.0085158  49.4531576  26.0121639  55.1854420
  50.2944986  25.5780418  55.3265476  48.8734881  25.6312663  55.8450842
  67.2385581  36.6158204  16.6602219  66.9225224  36.1248975  15.9017075
  66.8713268  37.4926238  16.5479935  57.5184433  13.0152423  31.9808125
  56.8055002  12.4548919  32.2873259  57.1570627  13.4670455  31.2182426
  37.8133718  20.0532825  51.8073225  36.9189177  20.1329047  52.1387482
  37.8354363  19.1965682  51.3809538  67.1660940   6.5579707  44.9706697
  67.7318851   6.5495689  44.1986370  67.6125709   7.1368892  45.5885267
  73.2474891   1.2963445  54.6922827  73.6645357   1.5120704  53.8581562
  72.6278822   2.0104177  54.8420191  27.3384809  70.1980209  45.6344509
  27.8755093  70.9884071  45.5785799  27.3023748  69.9986219  46.5699577
  69.5474156  18.8874869   8.0075205  69.1621002  18.5988526   8.8348377
  70.3369423  19.3638616   8.2643164  59.9116627  24.4329746  17.9716098
  59.0108458  24.4361980  17.6479590  59.9454323  25.1600845  18.5932255
  76.4252694  14.5335727  16.4604652  76.5985497  15.4405980  16.7124832
  76.3753970  14.5558600  15.5048264  81.0309656   7.9445748   0.9096087
  81.1096915   7.4375443   0.1015556  80.9710153   7.2854094   1.6010893
  46.2441913   0.8179433  41.2845278  45.4743365   1.0244376  40.7545137
  46.0769872   1.2431867  42.1256256   1.0532226  66.7413716   8.0488861
   0.7547082  67.2407632   7.2887981   1.3551225  67.4056725   8.6683977
   1.4785431  10.3188998  34.3633938   2.1771000   9.7266872  34.0849447
   1.3389681  10.1073844  35.2864408  75.0619833  29.0761382  42.1527672
  75.7532159  29.7382838  42.1551466  74.7326461  29.0769298  41.2540102
  80.6594221  25.6881721  39.2559385  80.6442062  26.3466556  38.5613918
  79.7972147  25.7531745  39.6665502  30.9675241  57.6957321  65.4726458
  31.0097265  56.7481232  65.3442430  30.0354910  57.9046297  65.4101276
  13.5340154  55.7674885  60.6863785  13.8008368  55.4080772  61.5324640
  12.5779355  55.7903767  60.7266426  56.6435756   8.4193950  11.2552441
  55.8759536   8.6638026  11.7722118  57.3875274   8.7417893  11.7640007
  76.9344274   1.2751205  34.6644306  76.7446605   0.8945997  35.5220008
  76.9157926   2.2206170  34.8125052  -0.1852896   2.8868348  52.2461605
   0.7400463   3.0584151  52.4209356  -0.1885368   2.0607621  51.7625999
  39.5294452  65.4472637  44.7888422  40.2754211  65.7373285  44.2638540
  39.8680687  64.7128868  45.3009510  18.3832635  15.8297353  -0.1257431
  19.2881908  15.5512576  -0.2664148  18.3670082  16.1434417   0.7784451
  21.7480159  75.8536911  38.4737301  21.7595220  76.4772177  37.7475667
  22.6328111  75.8925724  38.8368487  53.8780230  11.7269568   7.7901304
  54.1303888  10.8073096   7.7077139  53.9147496  11.9020562   8.7304628
   3.8726805   4.6137912  31.0848475   3.1039570   5.1816375  31.0315394
   4.4743011   4.9627597  30.4271960  35.9795451  61.2324572  11.7939746
  36.2375021  60.3127480  11.7321801  35.5150342  61.4064550  10.9753263
  36.4988295   6.2456233  59.7447205  36.2654595   6.2393672  60.6730175
  37.0232515   5.4539783  59.6242571  27.6916409  67.3508739  15.3572357
  27.5185323  66.6164541  14.7682619  26.9847012  67.9715061  15.1803732
  67.9720541  55.3933339   9.3924940  68.8303049  55.3240113   9.8106230
  67.5783904  54.5286279   9.5088566  61.6875887  71.0745096  30.4063630
  61.8141508  71.2625694  29.4763923  60.7448244  70.9355593  30.4964876
  61.9142151  73.2744026  42.1289206  62.5396872  73.2686758  41.4043665
  61.8393040  72.3559618  42.3879337  71.6336052  24.5144851  34.0949631
  72.1920244  25.2912624  34.1267610  70.8704225  24.7463233  34.6241450
  42.5586224  74.9401379  32.5002694  42.1445322  74.2076969  32.9566622
  41.8317223  75.4079437  32.0891714  19.0796757  74.5703363  46.3869858
  18.9805615  73.7401581  45.9209251  19.8981452  74.9367332  46.0521841
  42.3924015  12.5752170  60.2491951  41.8200920  13.3420570  60.2237940
  42.1796749  12.0910651  59.4513321  63.7737989  73.0153894  46.1805725
  64.4565010  73.6336851  45.9200716  64.2433023  72.3207569  46.6423941
  52.6843397  13.6709888  39.7791028  52.1085588  14.3642528  40.1017523
  52.9256312  13.9515502  38.8963246  50.1771688  68.4338713  65.9480238
  50.6585646  68.0971718  65.1922941  50.7023668  68.1699753  66.7035103
  15.4895294  62.8494501  44.1760588  15.8011174  62.3077536  44.9011230
  14.6729255  63.2322407  44.4967794  79.6405117   3.3148772  29.6658087
  78.8029710   3.7770946  29.6324253  80.1753132   3.7395007  28.9950490
  29.2497148  16.2627320  29.4436729  29.9266567  15.9406667  30.0388706
  29.7202339  16.4727311  28.6369885  30.2762747  75.1230669  53.7847662
  30.7488537  75.9425163  53.9310884  29.7841883  74.9826384  54.5936918
  26.0407009  71.7636590  14.8604858  26.3043727  71.6068273  15.7671917
  25.1992502  72.2145658  14.9303234  62.6698780  61.5701485  55.8869457
  62.6621819  62.4625254  55.5407763  62.3961449  61.0247946  55.1494551
  43.6896181  74.7980690  42.9232931  43.3835793  75.0950241  43.7802553
  43.9355326  73.8832426  43.0605984  19.5263861   5.6117637  53.0007744
  20.2532242   5.1167495  53.3788013  18.7836025   5.0088794  53.0330229
  50.8629576  22.9396922  58.3556557  50.7778684  22.0851524  58.7784624
  50.3980343  22.8430564  57.5245476  17.0623722  16.0710626  30.0222767
  17.5344791  16.8935065  29.8921669  17.5199070  15.6442647  30.7466686
   1.7876051  26.5540321  46.2142563   1.3066528  25.7329089  46.3175631
   2.3278759  26.4188487  45.4357529   4.5640562   3.5632236  56.2734509
   4.3441246   4.2183978  56.9357204   4.0183733   2.8080947  56.4931011
   7.7106768  76.4087152  43.4144545   7.3500490  75.6141329  43.0209875
   7.1026838  77.1012878  43.1557655   2.5388048  22.0975024  61.0583162
   2.2758577  22.7182777  61.7378187   2.9973600  21.4036853  61.5322208
  71.0122510  64.6535020  26.2593735  70.3313800  65.3076081  26.1019314
  71.3082703  64.8262601  27.1531094  80.8693012  57.3261838  14.8627937
  81.6935070  56.8960671  15.0906361  80.9332307  57.4826341  13.9206303
  80.7195894   5.1989181  39.8877764  80.5529920   5.0649554  38.9547539
  79.9787037   5.7240302  40.1903868  18.6330452  41.6993718  13.9609898
  19.2007341  40.9762435  14.2275322  17.8893175  41.2749057  13.5332811
  17.9508305  74.2401171  33.1080365  18.0983710  73.3855438  33.5132194
  18.6685610  74.7851992  33.4304976  57.7037621  67.1593142  51.4954138
  58.4588528  66.7096376  51.1161184  57.2938490  66.5043116  52.0603657
   3.3736513   7.8678901  49.3932056   3.2433794   7.4076659  48.5640717
   4.0987633   8.4688766  49.2221928  62.4606848  72.2071648  58.1488514
  63.0111074  72.5754833  57.4577570  61.6478443  72.7104282  58.1014109
  72.7787443  39.8965745   6.9099701  73.4383138  39.3676620   6.4611376
  72.1434482  40.1161103   6.2284792  36.4118338  69.1636419  53.5665941
  35.7550550  69.3230486  52.8887558  37.2492409  69.2173481  53.1060600
  80.9710558  37.2342544  18.0677498  81.1218699  36.2910228  18.1293571
  81.3831719  37.4892955  17.2423161  47.9730980   6.1830146  30.0728846
  48.8112299   6.5249736  29.7617078  48.0471698   5.2345855  29.9669099
  55.1520174  20.4801183   2.2223700  54.2678774  20.2453046   1.9406069
  55.1378493  20.3691154   3.1730068  74.5541728  58.4307384  66.1919451
  74.6284312  58.5787487  65.2491760  74.1166782  57.5827312  66.2675285
   6.3633631  13.3045871  53.3666563   7.0075748  13.8645370  53.7998724
   6.8853043  12.7193839  52.8177071  75.2113763  24.1398437  34.5401239
  75.5281154  24.4435794  35.3908014  74.6546356  24.8513610  34.2238688
  41.6030590   1.3477809  54.1086912  41.7385964   2.2097404  54.5022488
  41.2359718   1.5340907  53.2445335  73.3031551   1.5253265  50.3951073
  73.3517448   0.6153495  50.6880426  74.1787235   1.8763311  50.5575943
  45.1350880  54.8498249  37.6778793  44.4743681  54.1824532  37.4926829
  45.9708977  54.3968201  37.5663662   3.8842390  10.8181388  51.7524242
   4.6360920  10.9056003  51.1665106   4.1025494  10.0733764  52.3126841
  79.1032211  10.1280124  60.2575254  79.0449087  10.6392677  59.4504023
  78.8173095   9.2498309  60.0059605  64.9935349  69.5837979   0.1285017
  65.9141382  69.7571282   0.3251589  64.7766205  68.8149457   0.6558121
  67.3506252   4.7018249  66.4270687  66.7979972   4.9831779  65.6979084
  66.8388383   4.0234096  66.8675900  73.4997741  63.3831976  15.4674805
  74.0528814  62.6235459  15.6497849  73.6475889  63.9705084  16.2087334
  20.1777734  33.0223231  11.6892136  19.5296468  33.5877089  12.1093357
  20.2720632  33.3807187  10.8066643  49.4275490   2.5888736  37.6904297
  49.3106167   2.5828511  36.7404199  48.8632504   1.8828876  38.0056858
  10.9111774  76.2196589  65.1526308  11.7279983  76.1116171  64.6654320
  10.7258737  77.1575165  65.1045465   5.4387116  71.9708347  62.2052002
   5.7823312  71.7021656  63.0572414   6.1648709  71.8278217  61.5981817
  14.8413648  20.7171302   9.5042694  13.9391460  20.4714971   9.7089565
  15.0689401  20.1813703   8.7443960  48.3524132  61.3966179  55.4196787
  48.3882093  62.0612144  56.1076212  48.6161089  61.8602133  54.6248388
  17.4456348  34.2732244  34.0098656  18.2788934  34.6141582  33.6847866
  16.8232717  34.9864821  33.8678730  73.5448209   9.8140437  40.7956696
  73.8985197  10.6852634  40.9748316  72.7253334   9.9794490  40.3295040
   9.1493986   3.8199718  40.9183693   8.9754055   3.8384921  41.8594408
  10.1024244   3.8772208  40.8498287   6.1748932   2.6497371  43.4171247
   5.7996128   2.3955495  42.5740385   5.7631491   3.4899432  43.6190081
  72.1576977  63.7243223  65.7220602  71.4674473  63.2670259  66.2023401
  72.9680395  63.4599018  66.1575603  44.0651035  68.0810070  52.2529936
  44.5127392  68.0681562  51.4070082  44.7283030  68.3899355  52.8702164
   8.0031051  23.0790000   6.5726650   7.1490755  22.7196317   6.8129147
   7.7984252  23.8422875   6.0325420  77.7730687  45.5167394   1.8152941
  77.0615609  44.8790174   1.8727625  77.7742012  45.7923703   0.8986366
   9.2535677  53.2266240  40.1972759   8.5770216  53.2442384  40.8741844
   9.9127545  52.6192956  40.5332363  10.5587256  69.5571470  22.4548340
   9.7125900  69.8855925  22.7588248  10.6055570  68.6640310  22.7959800
  18.0792473   1.4791496  46.7978001  18.6662338   0.7785232  47.0820475
  18.3680056   1.6878516  45.9093761  22.4609699  33.9224534  12.7322329
  23.2566871  34.1614871  12.2569120  22.0002069  33.3252816  12.1428955
  14.0643311  66.4618540  50.7574177  14.7034550  66.9536161  51.2730932
  14.3843317  66.5235472  49.8574018  57.6788465  16.9870383  30.8744931
  57.3170416  16.6136653  30.0707984  57.5673739  17.9320628  30.7709098
   7.0653580  14.4188888  30.6478286   7.0597074  13.4617145  30.6521869
   6.1911295  14.6621806  30.3432703  10.9037819  48.6618428   4.6390713
   9.9750890  48.6618619   4.4072044  11.0923638  49.5707612   4.8725927
  52.0647446   2.7477271  53.5275316  51.9300882   1.8249280  53.7432718
  53.0054084   2.8850610  53.6394310  52.0988266  24.8114116  44.4549608
  52.8603903  24.5665462  44.9806023  52.4404160  25.4355342  43.8146353
  31.5824165  43.9806848  24.9466217  31.1311044  43.4336476  24.3037403
  32.4184742  43.5381417  25.0928772  22.7789877  30.0521762  58.1951952
  23.3961485  30.5286319  58.7504768  22.5282476  30.6826503  57.5200224
  21.4147796  35.6034284   0.1118458  21.8488540  34.9056487   0.6026733
  21.9434967  35.7041125  -0.6797039  29.9382973  72.3872709   2.6867831
  29.9527478  72.7028608   1.7832193  30.8499265  72.1669436   2.8781393
  62.1412961   3.4691245  36.2738276  62.8116719   3.9209754  35.7613254
  62.5833503   2.6909263  36.6132927  56.4982748  57.2244978  61.8026257
  56.7574072  58.0478954  62.2162628  55.8362627  56.8594646  62.3897552
  42.4466542   9.9799926  19.7185326  42.1208636   9.2875869  20.2935743
  43.1890682   9.5832927  19.2628062  65.9992067  15.1509101  53.9751482
  65.1391045  15.5709369  53.9809704  65.8545725  14.3030936  54.3952894
  35.4089145   8.2808788  51.1637592  34.9793623   7.4312122  51.0648203
  36.3434039   8.0867107  51.0912275  48.7448446   5.6547267  12.6585138
  49.3604008   5.9029777  11.9688082  48.4246699   6.4876182  13.0049503
  74.5491922  62.7003527  63.7544203  73.9366990  62.0038652  63.5177946
  74.0538633  63.5091209  63.6248922  28.9522924  47.0615106  13.0665148
  29.4957723  47.2453313  12.3003090  28.1857910  47.6243024  12.9570568
  35.4836392  60.2824974  24.6106172  34.9584651  60.5193710  25.3750229
  35.5728149  61.0989285  24.1189694  34.9224804  23.0271728  50.5045033
  34.4455479  23.8372810  50.3242397  35.6198929  23.2885463  51.1057711
  14.1529989  68.7539959  21.1081052  13.6156273  68.4198523  20.3899050
  13.9613092  69.6914339  21.1346030  69.8526899   9.8187263  34.4701481
  70.0094215  10.2809531  33.6467338  68.9012949   9.7228820  34.5136809
  38.0229115  70.8205128  42.9960060  38.8667440  70.9434319  43.4308338
  38.0940294  71.3277292  42.1873617  12.9387043  13.0348212  36.1344600
  13.8850258  12.9690749  36.2624860  12.6997087  13.8689620  36.5385890
  64.3450324   6.1218173  44.8553038  65.2684156   6.3131816  45.0195456
  64.3572585   5.4491813  44.1743946  24.8898457  24.5000369  56.5832949
  25.3916452  23.7120349  56.7918253  24.5528028  24.3429382  55.7012796
   4.0502536  66.7599058  35.6263089   4.0162858  65.8480787  35.9155273
   3.8748160  66.7196751  34.6861839  47.9387371   2.2440965  17.2111142
  48.3462659   3.1042869  17.3122346  48.0734650   1.8144471  18.0557930
  61.9544840  63.5715485  59.7168970  62.8033829  63.1296015  59.7000885
  61.3496542  62.9435682  59.3218613  66.3254730  16.6558845  24.1250157
  66.9521848  16.1816795  24.6714568  65.8138911  17.1766669  24.7441292
  67.7827303   1.6259391  51.0998678  66.9048111   1.2520082  51.1751223
  67.8054611   2.0092256  50.2230501  11.6747663  45.1190669  43.1520700
  11.8359421  44.2310340  43.4708738  11.1781691  45.5391986  43.8542891
  58.7240473  21.5463073  49.7580910  58.2639448  21.8660648  48.9820194
  58.0512587  21.5116222  50.4380798   1.7868517  19.4597919  41.8203878
   0.9956215  19.0681846  42.1902943   1.7044161  20.3937728  42.0130587
   9.1220091   9.1825683  21.5391779   8.7170217   9.8928363  22.0369172
   9.9124048   9.5723159  21.1655259  60.3712861   4.5779617  13.5874975
  60.7730786   4.9388606  14.3777788  59.9033586   5.3165824  13.1979918
   3.6275433   6.5656287  41.0391045   4.1752432   6.7361076  40.2728176
   3.6834906   7.3687179  41.5569353  56.3609955  69.5559298  62.0225906
  55.8740330  69.8016953  61.2360191  56.9767105  68.8867222  61.7237806
  29.7352554  66.7876356  19.6033168  30.6091287  66.5328770  19.8994112
  29.3969276  66.0103612  19.1587818  79.2098816  52.2185946  50.0104284
  78.3901688  52.1498775  50.4998970  79.8085783  51.6230059  50.4610586
  63.8937372   9.8236024  28.6334157  63.3690459   9.7545624  29.4310164
  64.7363406  10.1674998  28.9300418  51.4653605  26.2386298  40.0806808
  51.7605084  26.1499190  39.1744542  50.5219454  26.3852286  40.0120544
  28.9957738  18.3509064  64.9950981  28.0569124  18.2094681  65.1166201
  29.1017151  18.4562659  64.0496302  22.6199214  25.5156810  61.2125182
  22.6284240  25.0382395  60.3829342  23.4893958  25.9118731  61.2697696
  23.7859227  72.6561066  22.8214574  23.1661083  72.6168497  22.0930886
  24.6075251  72.9413860  22.4216890  72.1747309   7.5392002  29.3481088
  71.3441360   7.0673591  29.4090199  72.8376347   6.8509567  29.2923307
  81.3293411  55.4096859   7.9215777  81.3617088  55.9611576   8.7032831
  80.4236962  55.1022332   7.8826940   0.6409171  24.7241950  50.5837679
  -0.0012516  25.4217958  50.4526091   1.4880930  25.1519918  50.4592085
  58.9995732  68.0957871  62.4666071  58.9966013  67.7102863  61.5904713
  59.3440517  68.9795791  62.3382425  58.0701815  75.7033258  51.9827318
  57.6232632  75.9972607  52.7765179  58.5457127  74.9176507  52.2525787
  67.9272177  68.1464176  55.1151466  67.1724107  68.7001055  54.9153233
  67.7420189  67.7940463  55.9856462  72.9793209   3.8697883  32.2032952
  73.5648572   3.1324342  32.0309925  72.4317104   3.9287892  31.4204335
  22.6581621  16.6200733  42.1077919  23.2107043  17.3078454  41.7364454
  21.8170285  16.7220318  41.6624498  59.5795693  51.9653957  46.0500574
  60.2033104  51.2458174  46.1469364  59.8075869  52.5760238  46.7510366
  33.8722825  52.8821278  23.2888341  34.7133374  52.7357817  22.8558874
  34.0040898  52.5640154  24.1819525  16.6169000   8.7495971  31.0285163
  17.2441554   9.1964543  31.5969348  17.0442283   8.7258071  30.1723289
  42.3553518  31.2795464  13.2083738  42.9979722  30.9203438  12.5966204
  42.0408336  32.0778195  12.7840269  13.7956429  -0.0428658  31.1053681
  13.0361354   0.0926626  30.5387878  14.4762957   0.5167043  30.7314372
  74.6400501  48.0199831  44.2201519  74.6992018  47.4128716  44.9578142
  74.4089963  47.4676507  43.4733057  80.1902045  14.8761117  50.3584814
  80.7458994  15.4706061  49.8544836  80.4146974  15.0548017  51.2716627
   1.5356672  34.3280029  46.8040943   2.2016159  34.2624187  46.1196661
   1.5604722  33.4785485  47.2445965  70.4313868  12.6458228  27.5163984
  70.0952357  12.5008202  28.4008241  71.3769346  12.7397275  27.6319575
  10.0228872  12.3568158   9.4742954   9.4601669  11.9040399  10.1024473
  10.6032290  11.6742949   9.1372431  44.7063891  57.7723346   4.5940340
  43.9561872  58.3265827   4.3790043  44.7079007  57.0974050   3.9152849
  48.0603266  24.7725701  57.1015263  47.4159336  24.1744375  56.7230701
  47.6229954  25.1414657  57.8689146  65.4829115   6.7241251  21.8456721
  65.3500396   7.3903763  22.5199747  64.9548680   5.9805393  22.1363282
  10.2753389   6.6906774  28.3301425  10.9820950   6.1995000  28.7490368
   9.4810230   6.3923329  28.7731838  12.9575181  21.0106349  15.4183733
  12.3772311  21.5859556  14.9198711  12.7884209  21.2345433  16.3335252
  33.2701278  35.3634953  34.0827060  32.3782611  35.6974483  34.1790557
  33.8163352  36.1483359  34.0389466  76.4659931  61.8002420  48.0767488
  76.1202910  61.6853743  48.9619207  76.8524863  62.6759284  48.0823326
  19.3555176   7.6212728  31.0247231  19.0089858   8.4709412  31.2971377
  19.4187343   7.6828164  30.0715971  19.6870172  34.0015483  39.9910831
  20.5395746  33.7749720  40.3626251  19.2377901  33.1620336  39.8928928
  19.3538761  12.4667156  56.9709778  18.9460230  11.6061091  57.0671225
  18.9346766  13.0066335  57.6410484  18.8498461  42.7320004  26.2315917
  19.2859042  42.0074415  25.7831502  18.0516160  42.3452854  26.5914679
  73.3903587  16.6154897  23.7650490  74.1023862  17.2388458  23.6212564
  72.7859426  17.0729327  24.3495655   5.9927398  13.5591161  11.1285007
   6.5876228  14.2739153  10.9017658   6.4304835  13.1018174  11.8464768
  47.8999130  60.8892606  22.1860588  48.4310643  60.2398751  22.6469410
  48.1515447  60.7960222  21.2672508  44.1310038  46.7535846   8.5022116
  43.8665726  45.8341449   8.5328370  45.0871344  46.7292207   8.5403293
   9.6156752  25.4718399  24.5206261   9.9879700  24.9156976  23.8362765
   8.9309180  24.9349213  24.9194455  74.1348678  20.9287953  16.7334199
  74.7009599  21.6920137  16.6182256  74.5959562  20.2189541  16.2864828
  55.8470386  24.9260020  41.9770193  54.8984832  25.0351667  42.0445490
  55.9643835  24.2713261  41.2886429  43.9177704   6.4473307   5.8917242
  44.5812273   6.7558044   6.5088940  43.6776304   5.5781609   6.2128299
  12.0325959  28.4786797  52.4346304  11.7943645  28.0000949  51.6406345
  11.4385366  29.2290854  52.4493074  66.5253987  73.9295884  38.2995439
  66.0506894  74.5696892  37.7693057  66.3998415  74.2252462  39.2012382
  79.2950115  16.0388899  14.5036185  79.7986668  15.2337062  14.3842816
  79.8934972  16.6303539  14.9599278  59.7110194  17.1076727  15.5159080
  60.3737801  17.7241528  15.8272469  59.2948741  17.5552320  14.7791958
   7.6909002  70.1142751  51.4990187   7.9451140  70.2282428  52.4147797
   7.8090461  69.1791486  51.3322496  21.4388132  11.3723207  28.2927537
  21.7514801  10.7644320  28.9627862  20.6249475  11.7261791  28.6514163
  62.2271391  69.3094545  46.4428949  62.9305985  68.6819934  46.2765551
  61.7302301  69.3345206  45.6251621  43.3296722   8.8062495  33.0618238
  43.4207815   7.9112941  33.3889103  42.8029412   8.7184584  32.2674179
  27.3075628  42.7929115  27.6144624  28.1144285  43.2829475  27.4561405
  27.5185490  42.2144461  28.3473301  18.3499515  42.1211290  40.6631470
  17.7271724  42.8289604  40.8285332  18.0459464  41.7199945  39.8489571
  23.1403567  65.4547506  46.5345144  22.4400928  66.1029344  46.4588785
  23.0544927  64.9164753  45.7476759  39.7267642  53.2163494  17.9778612
  40.0655701  54.0586703  17.6746511  39.6098318  53.3306997  18.9209855
  19.5844030   3.2081556  44.4223595  20.3328753   2.9726875  44.9706078
  19.4379151   2.4378622  43.8733387  59.5839562  68.1039911  21.4286470
  59.2121973  67.7446788  20.6230903  59.7802945  67.3360049  21.9651937
  78.6458137  43.5673158  38.4358025  78.0528810  43.2544511  39.1190147
  79.1892173  42.8082483  38.2242370   9.2808515   3.1568116  43.6481142
   9.4735318   4.0370703  43.9709949   8.3270162   3.1332651  43.5714626
  49.3358701  10.9253240  33.0540156  48.9036196  11.0409713  33.9001918
  50.2413076  11.1944878  33.2088137  66.5710884  15.8877647  59.3583584
  67.5188822  15.7539213  59.3607426  66.4436930  16.7070639  59.8366356
  12.1680506  75.1011073  31.2847686  12.2542890  75.6285195  30.4906440
  12.2430404  74.1965412  30.9808445   3.5987085  20.0539684  64.5540571
   3.9052561  20.9594035  64.6035337   3.7707588  19.7919345  63.6496401
  21.9610290  48.1464074  17.1930588  21.5948306  47.2877000  16.9815147
  22.2183831  48.5121343  16.3467396  25.4554298  65.6797724  60.1971436
  24.5771911  65.3332238  60.3547287  26.0433390  64.9748092  60.4684782
  64.4476382  70.8147047  19.2259872  63.5571853  71.1480973  19.3363369
  64.5209376  70.1098511  19.8694504  38.6814312  26.6349135  12.6424158
  37.7700023  26.7250762  12.3642052  38.6683385  25.9186266  13.2772339
  68.3635980  16.1210883  36.8649077  67.4958259  16.2571228  36.4845181
  68.9376157  16.7022896  36.3659692  51.9887847  38.8572502  12.5498283
  51.8437618  37.9182482  12.6659071  51.5414542  39.2623401  13.2928157
  77.1074678  68.7387430  49.2569494  77.7736642  69.3837195  49.0194178
  76.2965443  69.0830486  48.8826656  11.8372643  34.3155384  35.9744883
  11.3000000  34.9971342  35.5707502  11.3813603  33.4989786  35.7704902
  35.9611750   5.7266963  27.3582864  35.1944804   5.1580000  27.2876191
  35.6260705   6.6043842  27.1749806  31.5979385  15.9554660  39.2919111
  30.6535840  16.0126150  39.4373703  31.9444966  16.7755151  39.6435475
  43.6232156  11.7539179   9.5420229  44.2682570  12.2889352   9.0795171
  43.3721203  12.2827876  10.2993071  46.6442722  47.1670437  16.5118611
  47.0098776  46.8781805  15.6757271  46.6076583  48.1208801  16.4405143
  15.9923063  59.3928356  61.6492339  15.0899861  59.3256946  61.9615498
  16.4728926  58.7448020  62.1643278  72.5704765  21.1477733  18.8872969
  73.2582444  20.9341908  18.2567501  71.7698866  20.7981610  18.4960687
  16.7482901  28.2854605   9.2342341  17.3082864  27.5147223   9.1415030
  16.5681970  28.5602355   8.3351809  61.2562460   4.4538587  31.6865396
  61.5802747   3.5751432  31.4888144  62.0349103   5.0095248  31.6526508
  19.8872435  20.3390336  33.2750106  19.7040665  21.0386729  32.6479673
  20.8355498  20.2175999  33.2281089  27.3446727  24.8087382  53.5771894
  27.4276733  23.8580847  53.5023642  27.9597592  25.1545095  52.9303932
  14.0816033  13.4896588  21.1822605  14.7155321  13.0101764  20.6489110
  14.1182148  13.0636191  22.0386386   7.3709989   8.0261785  59.9194336
   6.5294999   8.0100578  60.3753376   8.0087382   7.7669895  60.5845213
  46.3835855  67.3754107  14.8873293  46.6680421  67.2148447  13.9875877
  46.8760892  66.7431312  15.4106796  12.3788810  22.5654507  33.8165998
  11.6206717  23.1189823  34.0035629  12.4670088  22.5937819  32.8638864
  69.3193102   5.2992088  47.7662182  70.0168276   5.9234214  47.9663610
  69.4596291   5.0696647  46.8476057  12.4088943  37.0230865  41.2901878
  13.0469680  36.8021345  40.6117535  12.4274099  36.2763357  41.8887281
  58.0728022  21.7544160   9.9605072  57.6182143  22.0666478  10.7428682
  57.9015438  22.4257503   9.3000401  32.7119112  22.4123192  27.9800534
  31.9191766  22.8915882  28.2211018  33.0790734  22.1214342  28.8148022
  37.2416474  75.5089363  39.2376232  36.3274135  75.4868175  39.5203209
  37.7189006  75.8448060  39.9963403  26.1023045  16.8493199  33.2816601
  25.4003859  17.4886274  33.4034371  26.3657928  16.9541478  32.3674297
  48.4126997  16.9396091  51.5596485  48.1613636  17.6222229  50.9374762
  48.2816029  17.3392105  52.4195099  13.6030785  64.4213293   1.5225494
  13.2381980  64.2569444   0.6530226  13.6735801  63.5537026   1.9206512
  78.4680988  66.5307825  41.5322638  78.2715799  67.3513233  41.0802412
  77.9135086  65.8808296  41.1007261  70.2114834  48.4822767  39.5721412
  70.7049086  49.2723887  39.3519497  70.7577481  47.7627795  39.2556739
  41.4346413  61.5634034   1.8271101  41.1171655  62.4190066   1.5383471
  42.0915286  61.3191531   1.1751354   3.6827496   2.9529208  46.1615181
   3.6876446   2.8940400  45.2061415   2.7783698   2.7600247  46.4087391
  67.7642399  19.9118423  24.1852784  68.0210179  19.0093279  23.9961600
  67.6483387  20.3133440  23.3241177  68.0983975  66.6444307  45.8535242
  68.1259980  65.8078032  45.3892756  67.8864338  66.4100914  46.7570639
  10.8483386   6.0802048   3.2103661  11.6504729   5.5604821   3.2623374
  10.9694850   6.6309577   2.4369146  62.7979475  25.1342797  28.7454081
  63.5757905  25.6520319  28.5377479  62.9112524  24.3227863  28.2505608
  60.6165596  56.1339801  49.2541361  60.3628113  56.9997447  49.5739794
  61.1058178  56.3095110  48.4503651  62.8812083  53.4737175  35.7460260
  63.3107742  52.6293199  35.6092787  62.1207817  53.2701843  36.2905979
  77.0931265  15.5257201  43.1154776  77.6809609  15.3143120  43.8407278
  76.2584925  15.1254332  43.3591747  56.5788120   0.3083573  23.0575538
  56.4038438   1.1368603  23.5038733  57.2357219  -0.1237142  23.6034632
  73.5107917  33.7627339  27.1765280  73.0702883  33.3231616  27.9038262
  74.3988007  33.9228845  27.4959397  71.0637885   5.9530687  42.7389288
  71.6482460   6.2593079  42.0454884  70.5640417   5.2436024  42.3350239
  13.6359930  62.2259665  21.2833667  13.6788726  61.2717390  21.2213969
  14.4516420  62.5287914  20.8843112  46.9353036  44.0312389   3.1964052
  47.0285944  43.8529209   2.2606028  47.1794049  44.9520192   3.2902754
  39.0071122  57.1087692   3.4781874  39.2535011  58.0327997   3.5193241
  39.6861748  56.7036031   2.9387939  49.8927967  73.3958361   5.0116766
  49.5100347  73.9554689   5.6873549  50.6373827  72.9756997   5.4421509
  18.9026046  14.9628460  27.7790213  19.1991377  15.7862687  27.3913670
  18.2398665  15.2240837  28.4183693  56.6106609  10.3662353   3.7246168
  57.4943395  10.1182370   3.4528769  56.4982054   9.9523311   4.5803440
  14.3756795  18.0723858  32.7902246  13.8173294  18.5011721  33.4387755
  14.6760356  17.2734618  33.2235146  23.8688445  32.7837467  28.0052710
  23.7268305  32.8145313  28.9513779  24.7591567  33.1143641  27.8858304
  72.5759441  31.3700414  65.0193501  72.6819122  32.2107244  65.4646063
  73.1318122  31.4383984  64.2430973  60.6098606  64.3743639  33.4984970
  59.9007388  63.8228672  33.1679988  60.6313070  64.1987508  34.4392061
  36.4408803  62.6066828  20.3517413  35.5907249  62.8646612  19.9954891
  36.3998795  62.8573370  21.2746286  32.8308702  13.3119714  65.3549814
  32.8794289  12.6757371  66.0684776  32.2322106  13.9864302  65.6758261
  78.0535056  66.7212932  28.1998229  78.8362743  66.5657597  27.6713204
  77.3331120  66.3884359  27.6645947   4.1842616  40.9554529  21.3783550
   3.4006122  40.9625435  20.8287406   4.6113187  41.7927742  21.1973834
  10.4220700   7.6038712  57.0235538   9.6338892   7.3959416  57.5253201
  10.1253152   7.6367098  56.1141109  15.3774826  13.8200042   6.7903412
  15.6393544  14.0700386   7.6764238  15.0267831  14.6245144   6.4082373
   5.1170695  29.4283009  33.1306481   4.1857725  29.6426725  33.0762243
   5.4708385  30.0557637  33.7610221  10.0436771  13.7394381  38.3119082
  10.4284680  13.0197382  38.8121104  10.7034218  14.4322646  38.3429003
   2.7915102  13.5826051  40.7177973   2.9146439  12.9235184  40.0346613
   1.8497008  13.7535620  40.7186985  36.6525197  53.7748337  19.1603744
  37.3832917  53.2041454  19.3981123  35.9206629  53.1765985  19.0095997
  16.8946636   1.6643916  22.5013113  15.9497368   1.6920547  22.3510432
  17.1670341   2.5818425  22.4831438   9.1826653  24.9762702  20.4914331
   9.9112225  25.1687455  19.9011874   8.6569208  25.7761598  20.4917455
  17.9008543  24.3276143  39.8840117  17.7919126  23.3771753  39.9160838
  18.8074434  24.4740248  40.1539993  71.6978637  38.0663738  12.6877392
  70.7890073  37.9774240  12.9746187  72.1676151  38.3607323  13.4680689
  16.0314502  15.3079228  12.8225840  15.8426561  14.3934493  12.6120508
  15.2515068  15.6129222  13.2861555  58.3458678  67.3482225  30.1205338
  58.4407846  66.4042495  29.9934853  57.4006549  67.4885319  30.1763714
  18.2141912  22.3067331  43.1370211  19.1000903  22.0368958  42.8949404
  17.9138589  21.6280341  43.7415075  70.1980706  16.2508969   9.5926416
  69.6680601  15.7437043   8.9777649  70.6991657  15.5937438  10.0756348
  20.3234386  59.3230247  38.7938452  19.5041478  59.0644169  39.2158818
  20.5361581  60.1711559  39.1832757  79.3270960  61.3364077  51.9129801
  79.8280331  60.9155655  52.6116848  79.2578401  62.2513485  52.1855927
  75.7794334  64.8753875  51.2281322  75.6432774  64.8501556  52.1752644
  74.9423005  65.1750963  50.8737135  79.6921064  72.8540277  13.6351550
  80.5986120  72.7353256  13.9186859  79.2962148  73.3946930  14.3186617
   8.4654707  19.2725778  23.0953646   7.7806938  19.3777227  22.4348688
   8.5952783  20.1529241  23.4480309  28.8806534  35.3554678  16.0268772
  28.5388851  35.5559087  15.1555276  29.5273185  34.6656895  15.8776712
  20.5806947  38.8599873  65.5167961  21.3442636  39.3057752  65.1500940
  19.8324502  39.3633389  65.1958609  21.8525195  23.7853217  29.7936606
  20.9713554  24.1523886  29.8646808  22.3367095  24.1830754  30.5172515
  22.8924060  49.7933006  44.8295736  22.2445035  49.0911388  44.8881006
  22.6903415  50.3678131  45.5680418  67.9507057  64.8323939   1.0849798
  68.6165754  64.8391412   1.7725838  67.1192352  64.7885821   1.5571774
  75.3478283  47.1683645  56.8984461  76.0378212  47.4470711  57.5004959
  74.9393135  46.4194250  57.3325396  67.1369916  46.4341450   8.4460199
  66.8386453  46.5338039   7.5419796  68.0184120  46.8073940   8.4498811
  67.8795129  47.8900337  34.8204660  67.6853293  47.2071981  34.1783905
  68.8270003  47.8381300  34.9461818  20.5748463  29.6547580  48.4597445
  20.6170726  30.1709652  49.2647171  21.0112166  30.1981449  47.8035879
  14.3219852  35.4374194  24.2528272  14.5001161  34.6040082  23.8170218
  14.6349835  35.3110242  25.1485348  36.6754150  21.8018842  29.9630022
  36.9909406  21.2242532  30.6579971  35.7331061  21.8693972  30.1170444
  80.0927226  26.0647321  10.1279342  79.8297681  26.9600987  10.3410196
  79.5313035  25.8187723   9.3927169  17.8947675  57.3171425  58.7531424
  17.2817755  57.9515648  58.3816814  18.7338531  57.5262022  58.3427000
  14.1859710  41.3006783  54.5341587  13.6210799  40.7743168  53.9684105
  13.7970698  42.1750832  54.5141792   3.3796546  42.6931715  55.1603460
   3.1898636  43.2439566  55.9198523   3.8545212  43.2681227  54.5602083
  17.9918516  57.2053909  61.7875576  18.9451861  57.1543741  61.8567038
  17.8171408  57.1603346  60.8475161  69.1524261  42.6387596  59.8753500
  68.5801131  43.3258104  60.2168894  68.8702089  41.8445015  60.3289413
  44.6907534  59.2398553  35.5798650  45.4544051  59.0780609  35.0258875
  44.7347178  58.5604804  36.2527323  78.1677735  48.4295988  23.1502795
  78.5292399  48.9557028  23.8635731  77.5363710  49.0078783  22.7223134
  19.6066878  58.0980346   5.3491724  19.8382483  57.1758924   5.4599226
  18.6770109  58.1400988   5.5731428  77.0004770  21.4375019  36.1551523
  77.9411977  21.3529491  35.9998250  76.9336987  22.0291352  36.9046450
  33.1736849   0.3199632  45.9769821  34.1302023   0.2982099  45.9481192
  32.9090009   0.4321487  45.0639725  23.8311911   3.8356873  38.1405735
  24.3311000   4.6347228  38.3074951  23.0346560   3.9383134  38.6613750
   3.6234701  57.1457911  52.0877790   4.2409575  57.8642941  51.9510269
   3.1429675  57.0825577  51.2623358  65.1853420  64.7848552  29.2672944
  64.4104292  65.0568025  28.7755775  64.9980154  65.0409334  30.1703811
   8.3631945  14.7562265  44.2005014   8.6656630  14.2120659  43.4734297
   7.5524515  14.3385506  44.4911480  29.9327779  40.0159311  34.3640494
  30.0738692  39.7917938  35.2838778  30.5885601  39.5048857  33.8896894
  27.0371270  55.9966946  26.7473769  26.1570048  55.9260368  26.3777494
  27.5970531  56.1943245  25.9966063   8.9363062  52.6269817  11.4169502
   9.4781363  52.4357510  12.1825099   8.0563444  52.7533007  11.7718339
  13.9115059   7.8622556  62.0575428  13.7574315   8.7763178  61.8188334
  14.6083987   7.5748557  61.4676523  64.6649140  32.2327399  33.2233763
  65.5424267  32.6118851  33.1738591  64.6951753  31.6579008  33.9881492
  80.0183243  19.0622270   2.6172653  79.7527117  18.3985460   3.2538247
  80.4520613  19.7361171   3.1406939  10.3424335  37.0538306  31.5876937
  10.5804229  37.9789591  31.6487718  11.1383355  36.5847349  31.8381333
  44.5434026  34.8083577   7.2246159  44.8146848  34.6247638   8.1240213
  44.1159383  35.6634287   7.2731913   5.8711946  19.5630932  29.5953274
   5.4447639  19.3197012  30.4170036   6.4406765  18.8210654  29.3920612
   8.9751071  32.0266271  19.4260871   8.0200619  32.0900035  19.4362712
   9.1705441  31.2663031  19.9737597  73.6435485  60.1240540  28.6451268
  74.2426670  59.5868683  29.1635084  73.5908002  59.6768904  27.8004408
  17.8803658  35.4322195  27.3107982  17.5165999  36.2415457  27.6698232
  18.8174438  35.6079078  27.2256470  70.7250015   0.2045495  51.3888025
  69.9393646  -0.2046244  51.0260677  71.0040657   0.8255250  50.7159376
  56.9639937  64.7769711  31.8028820  57.4653403  64.2264817  32.4044121
  56.1346261  64.3129966  31.6883839   4.3760502   8.4224880  53.0292606
   3.9837477   7.5609088  52.8878021   5.0883961   8.2625872  53.6483145
   5.0012636   4.9842656  26.5678573   4.3924588   5.5362839  26.0770774
   5.8415222   5.4381543  26.5031886  31.4993096  57.6817725   8.8600767
  30.9193859  58.0672393   8.2033146  30.9073014  57.2834263   9.4981039
  19.8254061  22.1017814  31.3213515  20.6106949  22.5665760  31.0323572
  19.3873715  21.8442369  30.5101609   4.5547453  23.4156179  56.7246962
   5.3087103  23.0354548  56.2738705   4.9369615  23.9935136  57.3851395
  10.5963302  67.5103045  47.6293898  11.1266267  68.2786322  47.8407955
   9.7790706  67.6438904  48.1094694  14.8837078   4.1766256  33.0350304
  15.4901564   4.7629046  33.4874988  14.0496671   4.6463078  33.0376339
  60.7340999  67.0525955  32.9392290  61.6459354  67.2997659  33.0931616
  60.6858881  66.1352842  33.2083893   6.8254024  51.3941669  38.6994100
   6.6208488  51.9074440  39.4810367   7.3573762  51.9798565  38.1607080
  78.8805589  32.3070669  52.7314758  79.0619469  31.6619396  53.4149504
  77.9382342  32.2360682  52.5791073   8.8713086   6.3944370  43.6326408
   8.0394661   6.4887434  43.1685543   9.5377928   6.5556747  42.9647827
   1.5514696   7.5234169  43.8194847   2.3498540   8.0250961  43.6547661
   1.7465720   7.0142436  44.6061945  25.8884883  42.6804161  10.7317531
  26.1242318  41.9934845  11.3552785  26.4509511  42.5195074   9.9741411
   9.2874569  43.4132195   8.5334039   8.4476393  43.5941172   8.9555603
   9.3442273  42.4579334   8.5126126  69.3836409  41.1879396  34.1489625
  69.6866316  40.4894447  34.7290802  68.8661176  40.7373905  33.4815764
   5.9984237  50.1989937  59.0950489   5.7369757  50.1238823  58.1773186
   5.1892841  50.4173088  59.5575047  64.2092329  19.7837293  45.5086088
  64.4686633  20.1955628  44.6843958  63.2911199  20.0300932  45.6208801
  17.7626514  67.4473238   9.9254102  17.2198486  67.8177214   9.2294204
  17.3131382  67.6904345  10.7347715  20.9993839  56.2411070  46.2909508
  21.1277151  56.1099100  45.3515100  20.2563524  56.8416834  46.3496161
  57.3969382   5.8420712  23.4206533  57.5865120   6.7279285  23.1115413
  58.0755943   5.6653666  24.0721369  41.9064236  15.0514376  44.2583323
  42.8262520  15.1938140  44.0350056  41.7009830  15.7474661  44.8824883
  15.7241046  44.8335648  51.8073606  16.3392746  44.1024590  51.7501020
  14.9309576  44.5134306  51.3776350  16.7486262  57.2800779  64.1284752
  17.2671247  57.3080778  63.3243561  17.3856902  57.0925665  64.8178339
  14.0041316  27.4883127  50.1723337  13.3666348  26.8120050  50.4013252
  14.6540332  27.0333481  49.6367359   7.5385582  44.9135399  19.5011759
   8.4755468  45.0751591  19.3908906   7.1499079  45.7864904  19.5572615
  79.7507125  20.3080606  32.2731900  78.8963231  20.2327561  31.8482423
  80.3125863  20.7114482  31.6115189  66.5961637  51.2380140  20.8608818
  66.1885538  50.4439657  21.2066746  66.2129094  51.3443201  19.9902236
  12.2018301  29.4340134  30.6861567  12.9841900  29.9675918  30.8255816
  12.5066137  28.5319138  30.7839084  71.9201070  19.1647255  51.9971037
  70.9867030  18.9914596  51.8747616  72.0336103  20.0733423  51.7182350
  57.7086655  14.2431495   4.2043579  58.4453026  13.7280653   3.8752831
  57.0828835  13.5914061   4.5203627   6.1188966  43.8898325  38.2838345
   5.2700126  43.5129547  38.5153270   6.7268860  43.5229683  38.9257002
  26.2134004  38.5281277  26.4819479  26.0737300  39.2870069  27.0483637
  26.9038582  38.8032818  25.8787990  51.3044085   1.1354282  60.8401006
  51.5738954   0.7692125  59.9977850  52.1086111   1.1606385  61.3586127
  69.1254719   1.2252574   8.0768621  69.2435320   0.6749206   7.3026407
  68.1948205   1.1470728   8.2866419  12.4120998  25.3659248  50.9272194
  11.4611125  25.4743218  50.9170341  12.5563109  24.4838905  50.5845070
  65.2513760  29.4433999  28.7337565  65.7078427  29.7986150  27.9710698
  64.8761147  30.2101088  29.1668487  76.9594708  23.7695265   9.1745627
  76.0646135  23.4488773   9.0621066  76.9880229  24.0884733  10.0766098
  76.6589445  33.7973714  29.2384577  77.2213802  33.3861923  29.8948336
  76.2668377  33.0634165  28.7653852  17.2534931  38.1774735  65.1710606
  17.3050702  37.2645068  65.4540110  17.4778545  38.1529689  64.2408466
  19.2140663  45.0462818  47.9695129  19.9258363  45.6216478  47.6892138
  19.6555150  44.2903376  48.3566952  49.4318716  57.6301883   1.4437521
  49.4268743  56.8098042   0.9506262  48.9079324  58.2311938   0.9141243
  74.3727207  23.0137038  50.6915426  73.8109976  23.3269358  49.9826097
  75.0273031  22.4683166  50.2552986  69.8511869   3.4642380  41.4761400
  70.3504711   2.8087890  41.9633102  70.0915402   3.3171755  40.5613518
   4.5187712  10.3521502  48.0600119   3.6839834  10.7778466  47.8647089
   4.8745021  10.8491540  48.7966776  14.6406436  10.1555181  21.1920834
  13.8524663   9.6903437  21.4724779  14.3952811  10.5635798  20.3617144
  33.8939071  58.4544849  10.2008963  33.0652738  58.0851460   9.8956263
  33.7240434  58.7059784  11.1087120  44.7343016  16.8187797  34.6205878
  44.9984026  15.9673870  34.9693179  43.7806416  16.8257964  34.7025394
  66.2650826  72.8237598  23.3793783  67.0918085  72.5885703  22.9581404
  65.7020619  73.1086277  22.6595926  15.9402776  41.1415672  35.5839443
  16.3687718  41.0226870  34.7363067  15.1340365  41.6156578  35.3803587
  57.6907174  58.9070604   2.0222796  57.9188363  58.2749841   1.3406122
  58.4970442  59.4012020   2.1702469  15.7157111  31.0218143  41.6582918
  15.0737238  31.3300419  41.0187006  15.7802081  30.0802922  41.4982748
  66.4804989  23.1457305  35.2169895  67.0950407  22.4237275  35.3484488
  66.1440784  23.0154848  34.3303728  66.5056628  25.7615733  32.0545101
  65.6537348  25.4932404  32.3986745  66.5890413  26.6800332  32.3108506
  14.1122758  45.1796579  27.4196649  13.2811248  45.5702400  27.1497297
  14.7057211  45.3500032  26.6882038  57.2671312  23.3267570  12.0434546
  56.9016045  23.2984972  12.9276621  57.8040570  24.1190934  12.0314562
  25.4128075  19.4281268  54.0180540  25.1519442  18.6615288  53.5076523
  26.3248730  19.2594039  54.2544889  66.4400931  24.7488265   1.3403500
  66.3778849  24.5090442   0.4157579  67.1791716  24.2382627   1.6709888
  50.5278200   3.9799207  60.0487852  51.0835093   3.2346782  60.2769375
  50.3008765   4.3759143  60.8901644  58.1557530  19.1611993  36.7672515
  57.4362320  19.7745907  36.6180086  58.9403123  19.6448874  36.5089059
  20.4486918  25.8669114  34.8356628  20.6823945  26.7703581  34.6226001
  20.4003191  25.8510828  35.7915068   4.5441095  38.9489349   5.8071745
   4.5762889  38.2120694   5.1970709   3.8303796  38.7322134   6.4070547
  76.5813643  52.6942110  41.2356281  77.4502969  52.2928333  41.2265921
  75.9920794  51.9961023  40.9499359  29.5044994  44.3052053  26.8984747
  30.2552700  43.9820290  26.4003468  29.2470551  45.1099300  26.4486122
  57.3772997  32.3911953  55.5849457  57.1751517  31.5029168  55.8787680
  57.8361076  32.7895308  56.3245773  58.3474821  31.5396404  44.9754429
  57.6653403  30.9349942  44.6833563  57.8732890  32.2296453  45.4394102
  16.1205721   0.4545436  39.4258046  15.2061975   0.7366324  39.4017553
  16.4564252   0.6560031  38.5523939  20.7227270  73.2547543   3.5921515
  20.7043252  72.3782490   3.2079208  19.8189787  73.4166358   3.8628281
  73.4488684  41.0084963  56.0699701  73.1526303  40.9149456  55.1645851
  74.3659377  41.2725401  55.9958458  17.8398883  46.1462879  56.2234783
  18.6449325  45.8295059  55.8138609  17.1435368  45.6377745  55.8078575
   2.7485701  54.7121954  64.6722174   2.2922951  54.6000338  63.8382721
   2.0481670  54.8144627  65.3165865   6.7254770  39.4459295  53.5619783
   7.2921330  38.6828923  53.6755943   7.2733152  40.0854683  53.1069040
  72.9248911  46.9692183  33.5077453  72.7434736  46.5440369  32.6695681
  72.4828935  46.4202261  34.1554189  36.5389874  74.2451975  41.9914150
  36.4851501  74.2910992  42.9459953  37.2331788  74.8625349  41.7607117
  65.6532603  19.2669153  37.5146985  64.7902125  18.8771665  37.6542592
  66.2549943  18.6920154  37.9876018  67.4134797  36.3357043  23.0714989
  68.1667632  36.7269254  23.5139275  67.0172816  37.0601392  22.5872970
  18.3025098   9.9220014  49.0676785  17.9619086  10.3048503  49.8761654
  17.5752854   9.4036174  48.7232161  16.1073589  47.1269274  19.0684628
  16.2539959  47.9606771  19.5152128  16.8511736  46.5826797  19.3268526
  31.1628175   2.9625803  51.6463089  31.7112136   3.0857906  52.4211073
  31.7478657   3.1357762  50.9087801   9.3354781  65.2322929  60.5295086
   8.9927681  64.5408170  61.0957623   9.7774824  65.8347183  61.1277962
  37.2845101  16.5145218  10.3929949  37.1119475  16.7171752   9.4735473
  36.9380617  17.2666311  10.8731353  72.9240312  65.7485729  33.5498095
  72.7771689  66.3883500  34.2464781  73.5050323  65.0966816  33.9418626
  15.3663552  35.3919578  63.7271929  15.9266067  35.0679636  64.4324446
  15.3091908  36.3350248  63.8807726  59.3949016  65.3061812  50.5667353
  59.1521629  64.4013779  50.7633018  60.3345670  65.2686970  50.3882504
  38.4257706  71.2795519  18.3642781  37.6035269  71.4954453  17.9243457
  39.1012486  71.4556359  17.7093315  21.9362760  36.0452771  39.2900515
  21.1969900  35.5528474  38.9333987  22.1532416  35.5941868  40.1059437
   4.5018792  55.8276272  14.2988074   4.2482534  55.3068686  13.5367608
   5.4448676  55.9569597  14.1974270  57.5822180   9.6424317  19.7826254
  56.9950122  10.3957129  19.8457778  57.8716296   9.6401775  18.8702285
  72.7614677  39.3293333  34.6474147  73.6062258  38.9430070  34.8784304
  72.9675549  40.2349520  34.4158649  18.1279802  22.7211523   1.0543231
  18.0810952  21.8465877   0.6680957  17.2148097  22.9665613   1.2030702
   0.8555754  71.8019750  49.9114132   1.2793620  71.1120664  49.4008636
   1.5805038  72.3056980  50.2815151  12.3791623  25.9920955  33.6581445
  13.2799470  25.8751535  33.9600468  12.4655557  26.2455535  32.7391624
  29.1039658  25.4121399  40.7684946  28.4571195  25.0928378  40.1393175
  28.6395764  26.0819936  41.2703609  19.8551261   8.2321519  60.2331591
  20.6528759   7.7606910  59.9932623  19.4638014   8.4821755  59.3961477
  48.2232634   3.5296605  29.9157513  49.0590445   3.2960365  29.5118607
  48.3778183   3.4384654  30.8559788  25.1297927  20.9570146  47.7627563
  25.5778217  20.9841681  46.9173193  25.7707024  21.3015842  48.3846378
  49.7393743  58.1635759   8.4265507  50.1644055  57.6569007   7.7345503
  49.4050376  58.9426182   7.9820908  80.6859397  49.8314857  37.4900341
  81.0098623  48.9357853  37.3950148  79.7585088  49.7764826  37.2596478
  45.9099497  13.0527024   7.0648277  45.5125113  12.9629951   6.1986721
  46.3626047  12.2215180   7.2078980  76.5249928   6.7336087   6.0002029
  77.2755559   6.4048533   5.5054224  76.9119437   7.2460895   6.7100370
  65.1584047  36.5423203  34.0482950  65.0931817  37.4958777  34.1002989
  64.5711786  36.3007903  33.3320141  27.2232270  10.7479632  26.2961197
  27.9031730  10.2933061  25.7989335  26.4103842  10.3071690  26.0486913
  15.8836901  23.9944410  49.7536612  15.0148559  23.7124491  49.4675827
  16.4432216  23.2316685  49.6076012  68.9625365  27.1777487  39.2746162
  69.5476574  27.2716284  40.0263166  69.3014413  26.4183092  38.8006687
  27.8237867   6.6839457  52.6536751  27.8094697   7.1344769  51.8092537
  26.9020534   6.6084856  52.9005432  24.6725037  56.8653093  19.4142807
  25.0100654  56.5438280  18.5782612  24.4238133  56.0741875  19.8923100
  76.9987401  24.8633885  23.3012557  77.6718673  24.5169115  23.8869905
  77.2321969  24.5203757  22.4386597  16.1317074  39.2725396  40.9409046
  15.8166671  38.6758208  41.6198063  16.4014983  40.0572252  41.4180994
  24.6196468  66.3417218   4.0585125  24.3232445  66.5651891   4.9408043
  25.5334143  66.6257046   4.0337170  62.5093621  37.7822924  44.5793962
  62.8935403  37.1127105  45.1453495  61.5815741  37.7912354  44.8146868
  62.6134628  28.1907463  15.5993354  61.9706184  27.4873495  15.5087018
  62.1043605  28.9430785  15.9010720  79.9674161  41.0994148  22.2815633
  80.5119961  41.7150450  22.7721357  79.8262845  40.3704691  22.8856730
  19.1427410  45.6512403  53.0751133  19.9213612  46.0164547  53.4953499
  19.2887807  45.7890558  52.1392107  21.4921021  51.7547846  23.8989234
  22.4102831  52.0190573  23.9566922  21.3974619  51.4101982  23.0109286
  12.5565422  21.9059753  31.1042285  12.4547052  21.5051103  30.2409983
  13.3665812  22.4117994  31.0393572  47.4336936   6.9104676  10.2106417
  48.0565675   6.2604957   9.8853815  47.8849312   7.7480941  10.1057709
  13.7660301  27.4842477  63.2524157  13.7116396  28.3088398  62.7693892
  13.2697845  26.8619919  62.7206564   2.3621931   4.0898375  12.4742020
   1.5160861   3.9259057  12.0577133   3.0068554   3.7940793  11.8314207
  22.0657563  22.4695301  51.3123560  22.1906328  23.0752206  50.5817556
  22.7114201  21.7786789  51.1637735  47.2454182  46.6684554   4.3715084
  47.5188152  47.1579222   5.1473320  46.7788104  47.3099098   3.8357389
  13.3283567  38.0278254  32.3997617  13.2053864  37.1081781  32.1644783
  13.9338577  38.0065632  33.1408072   6.2518412  48.0310726  51.6309071
   5.8200580  47.3178911  52.1011925   6.2875754  48.7482595  52.2638321
  26.0718751  64.4879675  30.4685974  26.3659692  65.0851583  29.7807717
  26.8524790  63.9836216  30.6977820  48.6066389   7.4438900  21.5706348
  49.0551853   8.1041837  22.0988894  49.1634607   7.3352093  20.7996798
  56.0514202  35.7684522   2.0761288  56.5998532  35.4070954   1.3797987
  55.6558739  36.5492444   1.6886414   0.4768277  43.7538338  28.4345889
   0.5467366  44.2845821  29.2280984   1.2116093  44.0379572  27.8908968
  33.6250162  46.5463924  31.9311333  33.6524773  45.8017731  32.5319839
  32.7052474  46.6134357  31.6746926  21.6541243  52.1750164  46.2081242
  20.9706092  52.8224325  46.3810253  21.6589665  51.6181040  46.9866228
  13.8838446  32.1208429  53.1309938  14.0156054  31.2848353  52.6838255
  13.8157582  31.8889427  54.0571785  78.3481425   0.4921698  53.0259705
  77.4821940   0.5537274  52.6227665  78.6200657  -0.4126582  52.8724289
  19.2935693  65.3535700   1.1588909  18.8609850  65.2861357   0.3076831
  19.6386230  66.2461090   1.1821622   2.8716561  75.5942297  59.6799469
   1.9759142  75.8453321  59.9053907   3.2705256  75.3533792  60.5160856
  78.6515578  45.4399018   6.5737045  78.8529905  45.7373815   5.6864775
  77.6953181  45.4109292   6.6052902  23.4083056  30.4938650   8.0736595
  23.4778786  29.5463991   7.9566020  22.6020837  30.6146598   8.5753000
  25.5503178  33.4257984  16.0159373  24.6099830  33.5338473  16.1585188
  25.7411456  33.9714813  15.2530158  13.7218082  -0.0095291  55.3505182
  13.3579147   0.7880562  54.9662352  13.6091399   0.1061934  56.2939930
  65.8381361  66.9931507  20.5611372  66.4117748  66.3418674  20.9648728
  65.1771992  67.1768522  21.2287068  64.3492264  50.7419729  28.3790445
  64.4787592  49.9801970  28.9439821  64.3762153  51.4899874  28.9756823
  17.2086048  75.1957703  49.1390800  16.8956530  74.3182182  49.3586159
  17.5026381  75.1249695  48.2309151  70.9866389  10.0709968  28.8503826
  71.0854646   9.1524844  29.1009892  71.6948231  10.2262740  28.2254112
  24.9677992  42.1489954  47.4840212  25.6405735  42.8252172  47.5635767
  24.2134523  42.5052452  47.9533577  17.2958314  69.4754696  58.5856152
  17.7683640  68.6819649  58.3340216  17.4226737  70.0734711  57.8490448
  64.3045825  29.9479532  47.6574564  65.1481885  30.3983021  47.6156712
  63.8981312  30.1214767  46.8083858   1.5908560  15.9902370  31.2668633
   1.9887964  16.8028879  30.9546542   0.7789275  16.2685096  31.6906190
  35.5617929  47.3434877  35.3698325  34.9214983  47.0927191  36.0356927
  36.4020658  47.0521784  35.7238245  27.9655766  23.3293653  22.5618052
  27.6084399  23.2235217  21.6800547  27.2386169  23.1059861  23.1430674
  31.3978696  52.5570250  12.9989576  31.6312623  51.7378616  12.5622308
  31.2938714  52.3164463  13.9195776  76.2370515   9.9863082   9.4293791
  76.2120199  10.9268069   9.6056426  77.0375210   9.6835017   9.8580849
  10.7401919  55.9731197  34.6347713  11.6582990  55.7226849  34.7376895
  10.3748369  55.9118748  35.5173779   1.2150776  42.1066332  62.3507643
   1.9570625  41.6354609  61.9717073   0.4485129  41.7417145  61.9086695
  36.7961500   7.4435432  43.6129522  37.6362292   7.3916919  43.1570911
  36.7337881   8.3554275  43.8972187  13.5604870  69.9703789  29.5461559
  12.9954171  69.3883181  29.0380883  13.6523366  69.5352268  30.3937650
  29.2289019  60.7466507  18.1387007  29.9425197  61.3739491  18.0226147
  29.6643329  59.9326658  18.3917975   2.1849580  17.6232350  34.3825889
   3.0327275  17.9662359  34.6651983   1.9040050  18.2204580  33.6893201
   6.7659938  28.6579823  12.8715956   7.1273768  29.2290831  12.1937466
   6.1501318  28.0927563  12.4052656  31.7994523   6.8235570  38.8951063
  31.5606785   6.7043614  37.9758620  32.7368879   7.0161337  38.8760400
  21.3891768  53.1934023   1.5406433  20.8159804  53.6349535   0.9139767
  21.5405393  52.3287964   1.1588344  41.2769679  11.3481052  64.2516088
  41.0210458  10.7254894  64.9321079  40.7753698  12.1389396  64.4496346
  21.1257958  46.8275166  58.9449596  21.2509394  45.9752178  59.3622780
  21.9812918  47.0392132  58.5714006  57.7618186   1.2926109  53.0761337
  57.8570143   2.1701200  53.4464693  58.6489073   1.0452659  52.8151226
  36.9874549  49.8928595  36.6624522  36.0903502  49.7423363  36.3644958
  37.1463871  49.1999340  37.3034120  14.7363496  52.0373440  39.7299361
  14.7654903  52.7492237  40.3691626  15.3089368  51.3632298  40.0959158
  20.4074788  44.3382454  39.8918033  19.7188783  44.2643499  39.2310452
  20.4335713  43.4766245  40.3079319   6.7497027  39.1209674  58.5765266
   6.8479413  40.0660276  58.6924553   7.5146842  38.8618779  58.0628061
  33.3450603  46.5033531  22.8620338  32.7653384  46.3982248  23.6164212
  34.1438556  46.0362244  23.1068826  78.4655744  25.6775641  34.0379620
  77.7135789  26.0552692  34.4941139  78.1584194  24.8223495  33.7371373
  12.1368027  27.1601057  27.2040510  12.9946101  27.1051598  27.6252151
  12.0912230  26.3803124  26.6508079  40.2047443  55.0800276  34.2368054
  40.9965849  55.6166458  34.2012882  40.1686096  54.7659206  35.1402783
  30.2306581  46.7505169   0.5291563  30.4681182  46.0315084  -0.0563995
  29.8982048  47.4337149  -0.0530359  28.8515997  44.4697523  32.9595923
  28.5007858  44.5693445  33.8446021  29.2306066  43.5908365  32.9496861
  19.2990565  30.5705619  30.7181168  19.6159470  31.4503193  30.5135703
  18.6156476  30.7086182  31.3739562  40.7977962  59.6001005  44.0838575
  41.5072823  59.2114687  44.5955420  40.9451342  59.2849112  43.1921291
  28.1105494  49.6243382  38.8648915  27.6578546  50.2204275  38.2682538
  27.5795150  48.8279915  38.8564491  38.2773113  43.0836487  27.0531273
  37.9087996  42.5993776  27.7919888  37.6030135  43.7240219  26.8262506
   1.9447617  29.2769551  45.6968594   1.1729360  29.2178965  45.1338053
   1.9936788  28.4230208  46.1265516  15.1258767  44.1578531  37.4191856
  15.1308143  44.7737789  38.1518769  14.6330118  44.6067095  36.7322779
  34.6830153  57.4705219  16.2282419  34.9976087  57.6573372  15.3437293
  34.1738296  56.6652250  16.1362541  45.1298046  47.1252203   1.0728576
  45.3270626  47.5302076   1.9174322  45.0855589  47.8590488   0.4598565
  17.9658806  45.9233046  16.6595435  17.4344826  46.1369896  17.4264753
  17.8144717  44.9891186  16.5159893  31.7865062  58.1049204  40.5364609
  31.9405580  57.5239897  39.7914624  32.0509219  58.9702320  40.2241278
  39.6727204  44.2688704   5.2886140  40.4578257  44.5176220   5.7764322
  39.4927382  43.3706951   5.5663151  80.0453030  52.1333551  26.9885254
  80.9121751  52.5365877  27.0350790  79.5476796  52.7023840  26.4013219
  26.4019838  71.9465442  60.5472409  26.4344978  71.1155696  61.0212171
  27.2291366  71.9807310  60.0667399  29.4487000  58.4946823  38.3532858
  28.9994073  58.2847166  37.5345778  30.2297211  57.9413366  38.3466148
  15.1518011  31.3106871  26.7663765  14.8523796  31.6870236  27.5939941
  14.3486142  31.1555195  26.2693381  35.4824495  44.6936417  33.9087582
  36.0944033  44.0310097  34.2291689  35.6125474  45.4416466  34.4916797
  25.9529233  69.6080351  51.5073633  26.4939070  69.8714113  52.2518110
  25.9774184  70.3599739  50.9155703  52.7429438  47.8791189  36.3518047
  53.5932398  47.9095316  36.7903280  52.4473286  46.9757557  36.4648461
  30.0120997  58.3507919  30.6241083  29.4914293  58.7686396  31.3100624
  30.5964851  59.0418863  30.3124785  28.9707327  60.8303499  39.5113206
  29.0482044  60.5782032  40.4314566  29.3970776  60.1201534  39.0316463
  12.5562072  35.0468063  32.1040130  12.7112103  34.3300152  32.7191687
  11.9623649  34.6773696  31.4504838  25.9332919  24.1708493  17.4190497
  25.2738929  24.8355627  17.2200942  26.7554283  24.5476460  17.1054447
  14.5092928  41.6379356  17.3145473  14.6176660  40.7065153  17.5067616
  13.7999690  41.6690636  16.6725802  41.5256071  46.6198444  32.1280313
  41.5047312  45.8547735  31.5531731  40.6458044  46.9914675  32.0641994
  42.5085688  46.8332720  37.5691056  43.4364128  46.7959404  37.3368549
  42.1164894  47.3940325  36.8997383  16.0241318  37.6791787   3.8514289
  16.1519480  36.8806219   3.3393729  16.8515348  37.7999711   4.3173113
  42.5299215  70.8576250  38.1714368  41.6010189  70.6724310  38.0333495
  42.5404263  71.5506077  38.8316607  51.7220020  71.8087244  49.7522783
  51.4695406  72.0147753  50.6523037  50.9108877  71.8921804  49.2509222
  19.6196306  71.1607885  40.7769108  19.6077573  71.2356997  39.8227215
  20.4670072  71.5234470  41.0351038  59.0574551  67.2961092  48.6384773
  59.1289473  66.5225697  49.1977262  59.6274853  67.1064138  47.8932810
  74.1200686  61.2901688  60.5434418  73.8066530  61.4292097  61.4371252
  74.8623562  60.6935883  60.6400394  34.3790126  72.8334522  36.2071657
  33.5592031  73.1970072  36.5417862  34.6691370  72.2286081  36.8899727
   4.9049471  46.5739162   4.2596662   5.2846811  46.7920596   3.4085214
   4.6635578  45.6506927   4.1847128  60.2601671  58.7874842  24.9030495
  60.0536394  59.5684195  25.4165840  61.0191917  59.0402508  24.3774819
  70.4664461  10.7414634  53.6886644  71.2040464  10.1411445  53.5800600
  70.8721916  11.5883357  53.8741827  28.6272993  18.7245612   6.1035431
  27.7671232  18.3652549   6.3208712  28.5310354  19.0522199   5.2093351
  61.3130760  53.3694553  47.8124237  60.8203506  53.2282829  48.6208296
  62.1536636  53.7233305  48.1029654  67.3550789  12.1705634  13.4482062
  67.8692381  12.7132327  12.8503895  67.8647081  12.1577174  14.2583573
  68.6319685  53.0424500  42.5634956  68.9726353  53.9062452  42.3310423
  68.4497452  52.6226616  41.7227793  52.2292725   2.1646077  35.1918054
  51.3177172   1.8761880  35.2377796  52.4639432   2.3623378  36.0984826
  11.5111232  59.3749380  15.6081164  10.7971203  59.9646616  15.3659236
  11.6763592  58.8614845  14.8173618   4.9406670   8.0584628  32.3611832
   4.3307493   8.5693366  31.8289828   4.3811176   7.4718387  32.8701091
  62.7063656  75.7586908  55.7504320  62.4190426  74.8834181  56.0103750
  61.9913197  76.3352966  56.0196400   3.4862373  16.6305740  16.1544776
   3.0354450  17.2365100  16.7425799   4.1322754  17.1724899  15.7014966
  61.3933221   0.0596053  16.8369210  61.4727537   0.9694917  17.1233237
  60.5117194   0.0004775  16.4687991  77.5773899  49.7058398   8.2297492
  77.0777551  49.2894180   7.5274730  77.8737156  48.9783580   8.7767410
  71.2018673  12.3022849  41.5226984  70.9803335  12.3049171  40.5914879
  70.7449667  11.5387065  41.8754292  66.4106337   2.3793752  29.9046063
  65.7973472   2.0146234  29.2665887  66.4150516   3.3190782  29.7224736
  10.9528826   1.7850644  60.2774000  11.0082434   0.9652478  59.7864103
  11.6613529   2.3236472  59.9249268  41.9750357  70.0810814  52.6611376
  42.2622585  70.8668375  52.1960306  42.6940203  69.4594288  52.5478315
  59.5600001  16.6131599  51.3939619  60.4084555  16.2021262  51.5595245
  59.1724245  16.7207534  52.2625446   4.2446603  36.2614684   4.4221199
   4.5371451  35.9413342   5.2754629   5.0377884  36.2741761   3.8863791
  65.4690409  71.6866922  48.7683678  65.2215004  72.2953320  49.4644356
  64.7588444  71.0452795  48.7472868  23.2089804  13.6521346  32.8051281
  22.4142788  14.0394599  32.4381661  23.1910370  13.8993556  33.7296772
  49.6190929  60.1288748  43.9951277  48.6884594  60.2902746  44.1503620
  49.6635342  59.8419333  43.0830288   3.8510472  48.9767742  46.4914894
   3.3880669  48.7914419  47.3085165   3.7946278  49.9273777  46.3945484
  47.5721788  65.4404640  34.6868038  47.9721403  65.9560633  35.3871012
  48.2070541  65.4751492  33.9712882  53.6671893   3.1953485  20.3352857
  53.5591261   2.5324065  21.0172367  54.4898621   3.6327464  20.5546689
  66.9559336  73.1859541  44.5341158  66.9561863  72.2430992  44.3690443
  67.5941181  73.3061647  45.2373219  41.4803495  35.6451755   4.0162218
  41.2678899  34.8818307   4.5532501  41.3260259  36.3938050   4.5923889
  58.8268916   3.9790828  40.8318377  59.4976155   3.3562381  40.5517721
  59.0707580   4.2063148  41.7291260  32.0047617  58.2470942  12.6285732
  31.8479562  59.0111351  12.0736992  31.1435366  58.0290842  12.9849303
   5.6548069  16.4705951  32.8208041   6.5173815  16.7184169  32.4879694
   5.0398682  16.8186481  32.1750927  18.6870942  29.7094829  28.0848241
  19.0552328  30.3703887  27.4983788  19.1789154  29.8116405  28.8996267
  42.9444361  67.6315165  55.0037098  43.2386494  67.3893976  54.1256142
  43.7377310  67.6025963  55.5385733   6.2239836  21.6359431  33.9460135
   5.9017847  22.3831279  34.4501281   6.3407515  20.9418113  34.5946908
  25.8642280   1.9439418  24.5133114  25.6542883   1.0671622  24.8348880
  26.1807000   2.4128444  25.2854586  65.6172132  46.9375515  44.0809727
  64.8211813  46.4453459  43.8802433  66.2705374  46.2663317  44.2781115
  11.5549697  29.1959100   0.4489458  11.0809578  28.8426404  -0.3038799
  10.8750763  29.5851569   0.9989107  66.5472221  45.9560728  41.0762453
  67.4917507  45.9353399  41.2301016  66.3993788  46.7755461  40.6041813
  11.0024220  67.4644041  40.0885534  11.3555580  68.3250332  40.3140306
  10.6708866  67.5677443  39.1965652  56.3523388  68.6039543  48.2162380
  56.7358255  69.3637276  47.7781534  57.0658112  67.9673481  48.2600546
  76.5506124  72.4104929   9.3277484  76.6685390  71.9692135   8.4865600
  75.6895638  72.8235579   9.2628884  79.8777199  60.7998943  20.0145721
  80.7868671  61.0450172  19.8425305  79.9214363  60.2529716  20.7989168
  45.7382298  62.7771616  28.5732055  45.7630491  62.1879005  29.3271208
  45.9364605  63.6400509  28.9370203  23.9907167  12.4983604  54.6174288
  24.4519327  12.5596053  55.4539490  23.0754469  12.6748283  54.8350763
  52.5069801   6.1837585   5.2549410  53.1029956   6.8850715   4.9919528
  53.0290810   5.3849990   5.1798952  35.4967117  57.3323107  39.0767074
  35.3075385  57.8724623  38.3094525  35.3185391  56.4369011  38.7890744
  64.3120527  52.9354668  25.1302385  64.8125887  52.1319914  25.2720904
  64.6871424  53.3140945  24.3351388   4.3681580  62.2640419  50.0542068
   4.8592812  62.2847366  49.2328644   3.4511620  62.3251104  49.7865582
  35.0996923  58.3680630  28.4331584  34.8905849  57.6497793  29.0302968
  34.2866850  58.5245752  27.9527926  62.2873402  23.0601668  17.3542273
  61.4697075  23.5035205  17.5803816  62.0794344  22.1278930  17.4164498
   9.2542360  14.0065486   4.2709139   9.3815277  13.7268836   3.3643723
   8.4839724  13.5206325   4.5655522  34.6411610  58.6986160  36.6900921
  34.5152783  59.3473291  35.9975910  33.8436532  58.1696224  36.6705799
  51.0773516  74.7996283  20.7184720  50.4333401  75.2823973  20.2003813
  51.9052553  74.9342394  20.2572942  50.4847519   5.3487117  14.7073960
  50.6923858   6.2745673  14.8334956  49.7167246   5.3511340  14.1361165
  61.6904163  54.2983866  28.2448769  60.9794903  53.6598921  28.3008933
  61.7499828  54.5093822  27.3131227  56.3648653  53.1589603  42.7903843
  57.2875881  53.1232357  43.0424500  56.1112833  52.2426701  42.6792860
  60.8895699  10.7111938  21.5882301  60.2916233  11.4586456  21.5865517
  61.0922090  10.5644996  20.6642962  15.0115679   2.5731284  51.4743805
  15.7496832   3.1750447  51.5698385  14.4243906   3.0101115  50.8575296
  50.3430080  51.2764883  20.8874393  49.6087456  51.6969299  20.4398727
  50.5147266  50.4861307  20.3755045  76.9670868  52.4090672  51.4744425
  77.4667358  52.7266407  52.2265959  76.0521173  52.5487900  51.7184448
  17.5574730  73.1468747   2.2901142  17.4210689  74.0844033   2.1534813
  17.6166008  73.0494426   3.2405031   4.2615126  18.7720878  36.0034513
   5.0721834  18.7120254  35.4980373   4.2989204  19.6357543  36.4144349
  71.0791588  65.7546663  31.2923002  70.1696539  65.8215523  31.5830922
  71.5844536  65.6788969  32.1017241   3.8261507   8.6930282  43.3037519
   4.4511221   8.8807971  44.0040255   3.9812944   9.3786533  42.6540709
  37.3346210  53.4143686  15.2665591  37.1595287  53.8947058  14.4573283
  37.1663070  54.0490723  15.9630215  57.5745773  58.4348011  40.4088497
  57.8095436  59.1928577  39.8737073  57.1062183  57.8541470  39.8090887
  69.0338087  62.3354340  24.8203683  69.5951986  62.7130651  24.1432667
  68.9371252  63.0335045  25.4681230  53.4215736  54.1349363  41.4466000
  53.9520979  54.9050236  41.6509008  53.7069798  53.4734154  42.0768070
  14.5814798  14.0724189  52.1088743  14.6350191  15.0259883  52.1726513
  15.0322721  13.7543685  52.8910923  10.5212353  27.1672637   6.8486106
  10.7440851  28.0078513   7.2485846  10.3707073  27.3734004   5.9260708
  35.6707883  27.1696043  27.6503587  35.5392075  26.7638063  26.7934775
  34.8368907  27.0469999  28.1040287  27.4576042  21.3363368  49.5207214
  28.3407638  21.4956577  49.1877413  27.2901104  22.0678050  50.1149797
   5.1780278  64.6537828  21.0347223   4.8996788  65.1891136  20.2916360
   4.6664006  64.9844027  21.7730761  33.3167885  12.0040042  46.5869999
  34.2726849  12.0539195  46.5902090  33.0897758  11.8170745  45.6760883
  21.3217781   3.1734283  31.2730169  21.6613100   2.2812373  31.2026668
  20.5182550   3.1656129  30.7528949  74.7850084  55.4998016  49.8387766
  74.1893291  55.9533167  50.4352045  74.3229818  54.6947145  49.6051121
  72.0462751  46.0068274  30.9831095  71.5798473  46.3905478  30.2405238
  71.6572523  45.1384974  31.0874963   9.3468569  21.5168292  53.8590479
   9.8050926  21.7849738  53.0625820   8.8718937  22.2999198  54.1372728
  49.9050045  70.9811401  28.2313395  50.1511765  71.8629313  27.9519081
  50.4821348  70.4022169  27.7333474  65.1441050  69.5750475  29.2580080
  64.7685909  70.4521227  29.1807842  64.4083881  69.0217686  29.5203805
  74.8356001   5.6695945  57.3177576  74.2507831   6.1323077  56.7176628
  75.2041713   4.9591071  56.7927790  68.2345963  76.3737583   6.2809426
  68.9757013  76.2614632   6.8762410  67.4651814  76.1845636   6.8180072
  64.9610329  50.4399824  25.8257174  64.6816444  50.5153751  26.7381287
  65.8371639  50.8252096  25.8108997  32.1080913  24.6311574  18.5310352
  32.8190507  25.1249890  18.9395702  32.3545875  24.5758252  17.6077736
  76.8608379  68.7548828  31.7136931  76.0336876  68.4660625  31.3281512
  77.4082661  67.9697227  31.7220616  44.2487335  72.7591038  32.9302454
  45.1574945  72.8770733  32.6537204  43.9272594  73.6478424  33.0820012
  61.2405721   0.8728845  61.4804268  60.8091489   1.7063386  61.6687441
  62.0648018   0.9149034  61.9653130  58.6998312  16.2594516  53.9912224
  59.1511575  15.4610450  54.2652607  58.8290326  16.8690307  54.7178221
   1.9401278  30.9551387  13.9630783   1.1328282  31.3659911  14.2724216
   2.3306002  30.5727010  14.7488869  53.4117071  13.7222678  42.4319267
  53.2216756  13.6890800  41.4943647  53.7811963  12.8622157  42.6320028
  61.3159561  73.4222651  51.0066462  62.1715546  73.7812519  51.2418318
  61.1410856  73.7726355  50.1332092  69.8366833  57.6627541  43.6846256
  70.0279999  58.1045198  44.5119524  69.4851494  58.3518314  43.1208611
  62.9979038  62.7251244   1.1134509  63.5703945  63.0710602   1.7981514
  62.8044271  61.8301868   1.3925408  44.1619253  66.0205603   4.9747640
  44.8163557  65.3473425   4.7884133  44.0464926  66.4792442   4.1425878
  11.9455113  44.7878842   8.2434881  11.1624899  44.2442708   8.3306873
  12.6591577  44.2318158   8.5561026  49.0761328  67.9106379  30.5753684
  49.7645235  68.5462236  30.3794718  49.5140553  67.2352839  31.0933995
  38.6752105  48.7154770  34.6196389  38.3300853  49.1932154  33.8653898
  38.0945945  48.9560080  35.3416228  77.6006118   2.4637086  24.2864370
  78.4174148   2.9232223  24.0917349  77.7590362   1.5631921  24.0032387
  33.7642097  49.1904640  28.1040382  32.8800035  49.5343256  27.9768682
  34.1388011  49.7412062  28.7914944  48.9085865  72.1469355  40.5317640
  49.2522335  71.8278837  39.6972895  48.6681938  73.0572891  40.3594398
  65.9349505  19.7931297  16.9085193  65.3339759  20.3446777  17.4093688
  65.3651492  19.2601592  16.3539910  17.1965814  62.5673771  28.1328487
  16.7260027  61.7584991  28.3341026  18.0077124  62.5043964  28.6371636
  43.8796854  49.0875006  35.1823044  44.2903090  48.4736586  35.7912564
  44.1249609  48.7648201  34.3151569  55.6685686  68.4913397  37.0088744
  55.7117796  68.9733315  37.8347349  56.5834904  68.3593893  36.7604089
  56.8300096  20.7993514  33.0610514  57.4469177  21.5284164  33.1251597
  56.7974440  20.4346759  33.9454627  56.8969504   5.7979114  33.8995695
  56.2911336   6.3719756  34.3682528  56.7189829   5.9662063  32.9742384
  66.0365200  70.7623768  63.4358025  65.5735540  71.4620733  62.9750156
  65.8963394  69.9854851  62.8944874  29.7846746  72.9659462  49.4349480
  30.2893686  72.2571468  49.8338413  29.7594070  73.6486959  50.1053572
  78.9970541  35.7972026  23.8168263  78.1572723  36.0266447  24.2147660
  78.9679337  36.1980867  22.9481053  63.0026913  54.0449619  61.5976858
  63.5946798  53.3748817  61.2559700  62.8697348  53.8023424  62.5140285
  17.6816754   2.8369720  32.0791936  17.1234105   2.3389108  32.6762795
  17.3928986   3.7438018  32.1816611  64.3848610  60.0845098  34.7605038
  64.9342251  59.3248510  34.5672321  64.7853613  60.8011580  34.2683196
  66.2257051  69.7499132  42.2614479  66.0439014  69.5135689  43.1710196
  67.1807623  69.7884941  42.2103167  32.1779678  13.9512164  48.3505869
  31.5707634  14.2372424  47.6681471  32.7278660  13.2951648  47.9222918
  75.5035877  71.7438507  65.7952785  76.3591862  71.3416052  65.6456852
  75.6470537  72.3480797  66.5236759  53.2198087   1.6594274  44.6821642
  53.0411402   2.5881774  44.8295736  52.7303592   1.2091596  45.3705883
  54.2874670  74.1231108  36.1948514  53.5036850  74.2511797  36.7291927
  54.1153765  73.3181620  35.7063031  16.8081081  41.8199301  32.4575973
  17.4541020  41.8199873  31.7512512  16.1060286  41.2520695  32.1400309
  25.6355858  63.6210251   3.7296477  25.0687909  62.9193687   4.0500489
  25.2186680  64.4254827   4.0382788  67.9650354  64.5765924  26.2651443
  67.2068119  65.0925016  25.9909844  67.7482796  64.2840910  27.1504092
  56.4587975  71.6762686  33.2456207  56.3989305  72.5248575  33.6844206
  57.3980141  71.4988422  33.1944132  69.1002266   7.1832664  17.8244328
  69.6470682   7.9436786  18.0218387  68.5925523   7.0395286  18.6230814
  59.1480494  57.9700375  21.1642575  58.7478018  58.8388205  21.1996460
  59.9156046  58.0826044  20.6035280  68.2696724  43.5817814  37.7461863
  68.2468605  43.7433386  36.8029952  68.6202717  44.3905401  38.1193089
  45.8600998  45.1934385  34.1738844  45.4518986  44.3824053  34.4769216
  45.6066370  45.8471632  34.8255181  77.1661663  44.0836143  36.3223839
  77.9435968  44.1015673  36.8805146  77.5090647  44.1560841  35.4316545
  27.6842346  15.1311736   3.4096659  27.4162378  14.8037105   2.5510777
  26.9571724  15.6860690   3.6919916  58.8456726  52.6372862  28.4863997
  59.3195629  51.8076801  28.4280109  58.0451632  52.4226570  28.9653039
  30.3080034  58.6121702  33.8151169  29.6466279  59.1378117  33.3650994
  30.0961828  57.7086592  33.5805297  62.3653555  50.4168940  47.1744490
  62.8751135  50.1417446  47.9364681  62.8794909  51.1241770  46.7850399
  31.4299154  65.1637173  23.7188888  31.2535954  64.4802332  24.3654084
  31.3164330  65.9834480  24.1999269  39.7317076  66.4710712  36.5356874
  40.1171923  67.2624922  36.1598086  40.2296686  66.3204479  37.3391676
  44.9821520  43.1742668  19.3441105  44.4376707  43.8420439  18.9271665
  45.6763172  43.0000734  18.7084818  51.8690729  51.5908623  16.2194264
  51.1019230  51.2164068  15.7864130  52.1877003  50.8910847  16.7895293
  46.5245342  70.5242157  40.1276827  46.6635323  69.8174953  39.4972396
  47.3850536  70.9323072  40.2235842  74.0383140   2.9401786  52.6661158
  74.5756523   2.7860124  51.8891144  73.1480447   3.0333001  52.3270273
  67.8776932  75.6390047  14.2003691  68.6670732  75.1476145  13.9731252
  67.2547245  75.4261494  13.5055089  60.7486725  63.1110001  62.3009109
  59.8451471  63.3874035  62.1477032  61.1636353  63.1606865  61.4397669
  33.6816430  55.6278992  28.1157899  33.0817103  54.8820829  28.1073403
  33.6893868  55.9393167  27.2106981  74.6155024  52.6131725  23.1954694
  74.7642612  52.7447653  24.1318369  74.7473621  53.4784889  22.8080750
  74.7635841  57.3265553  42.4760294  74.6023178  56.5208721  41.9850063
  75.4382992  57.0885277  43.1119013   3.7678430  27.0674808  53.1158733
   3.6406277  26.4056022  52.4361897   3.5831592  26.6081054  53.9350843
  39.6150102   7.3388247   1.0631741  39.4716587   7.7634959   0.2173937
  39.8030223   6.4261918   0.8441341   7.7086868  65.1126008  16.2927521
   7.4148669  64.9540238  17.1898354   8.6641802  65.1111798  16.3498867
  78.6765615   6.8041618  23.1883144  79.0710441   7.1543700  22.3895884
  79.0097038   5.9087379  23.2472682   8.4798143   4.0449245  47.3393631
   9.3145321   4.2640884  47.7534151   8.1955479   4.8606117  46.9269705
   2.0478437   5.7232768  46.1556196   2.9239605   6.1048324  46.2110710
   1.9557951   5.2165229  46.9624376  38.9900613  67.9993296  45.6351185
  38.0981565  68.0029917  45.2876616  39.3466353  67.1512890  45.3706980
  12.9917763   8.7374980   3.4568632  13.8115738   8.9384467   3.9082900
  13.2311294   8.7004859   2.5308117  73.3993578  57.8086329  21.8783164
  73.1880808  58.6154509  22.3480368  72.7504063  57.7633381  21.1761475
  24.8481417  72.5438404  40.0392199  25.0107694  72.6066685  39.0980315
  25.1279306  73.3903265  40.3876591  67.1017782  32.4052245  21.7275858
  67.3591892  32.7709777  22.5738692  66.3731591  32.9555804  21.4404440
   4.7743748  13.9653880  49.2157078   4.1301248  13.5300643  48.6574316
   4.8144815  14.8614127  48.8813972  45.7188797  55.8257198  30.7656717
  46.4461660  55.3970337  30.3145480  46.0042238  56.7332506  30.8714914
  38.4464786   2.5523050  53.3319759  39.3276451   2.7353818  53.0060196
  38.5790394   2.2771318  54.2391348  59.4864504  11.0289008  25.1747608
  60.1284305  10.5881507  25.7313871  59.7713009  11.9425781  25.1578307
  27.8568878  10.8939462  13.4898699  27.6305523  10.3506522  14.2447460
  28.8098516  10.8304410  13.4261883  60.6053209  65.6452370  55.6376123
  59.8083591  65.8520508  55.1494408  60.8120251  66.4510012  56.1111546
  54.9343435  20.7213313  14.1858304  55.3033797  19.8887927  14.4806552
  54.4767491  20.5060680  13.3731174  78.8728897   2.0019395   5.1483703
  79.3506853   1.4008958   4.5768028  78.3617250   2.5464113   4.5496270
  55.1654720  76.3785124  20.8578420  55.7222605  75.8563471  20.2802920
  54.4894075  76.7344475  20.2812362  17.5927685  21.8976123  49.7565508
  18.2398079  21.2084300  49.6062422  16.7846630  21.4270122  49.9608469
  58.8968007   0.2037484  32.6889253  57.9924552   0.5137069  32.7370596
  59.2725674   0.6758411  31.9458508  78.3285991  38.5131366  30.8567834
  78.8176624  38.0562503  31.5411091  78.0638162  39.3388087  31.2622476
  72.9246513  12.2842414  47.6692581  72.5625745  11.4349658  47.4165726
  72.9938690  12.2409255  48.6229706  56.9648772  14.8099816  14.8871983
  57.6884538  14.1834366  14.8764885  56.9093209  15.1271355  13.9857758
  38.2940006  73.7696648  49.2405891  38.2715154  74.7211933  49.3421507
  37.4697852  73.5559225  48.8033056   5.7866301  49.3032079   1.1192120
   5.3458299  50.1184850   0.8799398   5.0939478  48.6427789   1.1031807
  49.8863125  74.1419888  48.3603573  49.8076820  73.3176756  47.8801918
  49.3629742  74.0095949  49.1508102  13.5856618  50.9378152   7.7630032
  12.6389565  50.9025483   7.8998936  13.7163152  50.5582623   6.8940390
  71.8098966  29.9259765  46.4631176  71.4153330  30.2311904  45.6461763
  72.6387636  29.5292098  46.1951971  43.7184195   2.4487407  32.9777026
  44.2809717   1.7227943  32.7079368  44.2926363   3.2144601  32.9644203
  33.4069337  16.9134431   3.2879055  32.6802435  16.6947370   3.8712776
  33.3216228  17.8555779   3.1418503  64.7290945  66.0512733  60.1755142
  64.4699907  66.1617279  61.0903358  63.9234543  66.1958838  59.6792650
  44.3285322  68.9086008  27.3019266  44.3327284  69.8456621  27.4972010
  43.4024334  68.6666775  27.3086905  50.0565672  74.7844887  31.7405868
  49.9270105  73.9156294  31.3604093  50.3182220  74.6134663  32.6453090
  50.1018095  75.6374025  10.4731369  50.3361940  75.9368706   9.5947206
  50.9375000  75.4048920  10.8778501  81.3441030   1.8931586  55.8144093
  80.4010383   1.7397411  55.7567358  81.4997665   2.0828302  56.7396259
  34.1206384  56.5866518  30.4544044  33.2884884  56.4263916  30.8994603
  34.0237904  56.1582327  29.6039271  66.0456936  25.5984122  51.1995077
  66.2774793  24.9604709  51.8744421  66.4170710  26.4234073  51.5120697
  15.2257822  32.7002246  23.9371800  14.8090599  32.2570331  24.6762037
  16.1461161  32.4428088  23.9915538  19.8259725   9.5248418  22.6567734
  19.4238462  10.2571397  23.1239689  19.1334333   8.8663249  22.6021565
  43.3278513  43.4123993  16.4712977  42.9904175  43.7785721  15.6538081
  43.9495325  44.0674543  16.7885470  21.5858545  38.1862693   2.5806892
  22.1792783  38.8752131   2.8797472  20.7495822  38.6321597   2.4462975
  13.9048670  11.2188728  18.7981796  14.4480226  11.3309009  18.0180109
  13.1725691  11.8215472  18.6687565  43.4576559  71.2289572  62.1813679
  42.9471970  70.7795477  61.5078020  43.4169197  70.6474543  62.9405928
  63.5774650  46.4478402  17.2618759  63.3175220  46.5622811  18.1759728
  64.5227756  46.3019090  17.2981537   3.9296720   5.7315070  61.2533522
   3.4824894   6.2102325  60.5554342   4.5838449   6.3467414  61.5846872
  19.8538158  51.0808570  44.4149923  20.5069588  51.4154155  45.0295687
  19.4989107  51.8633659  43.9931536   1.5135858   6.3803107  27.4130630
   0.8166502   5.7245643  27.4354911   1.0601566   7.2060306  27.2432733
  42.8609037  38.2981467  12.1029770  43.5302067  38.4966922  11.4481139
  42.5147915  37.4451256  11.8406987  62.4977509  14.3366534  20.4897022
  62.5866429  14.9742038  19.7812784  62.4870388  14.8652179  21.2876606
  70.9842912  30.0709827   0.8723352  70.5199949  30.8449561   0.5535413
  71.4105074  29.7102267   0.0948868  34.6878900  38.2803397   9.7982061
  34.2489948  38.5728984  10.5969608  34.6224680  37.3257499   9.8248709
  61.3992206  16.3115222  37.5813937  60.9037725  16.2550838  36.7643380
  60.8735148  16.8828017  38.1413054  58.4056377  68.0741930  36.3613915
  58.3358049  69.0133619  36.1901617  58.3775663  67.6698971  35.4942203
  67.4440424   2.7359349  32.7450824  67.4334280   3.5689552  33.2164502
  66.9961301   2.9219634  31.9198585  52.6852312  39.2287068   7.7948177
  52.0756378  39.2815738   7.0587242  53.3782043  38.6427884   7.4903143
  37.3348355  75.8152676  34.7721791  36.5679455  75.8233213  35.3449321
  37.8899217  76.5203857  35.1052165  58.5795800   6.4711387  39.4529939
  59.0410463   6.0036857  38.7567401  58.6167924   5.8792312  40.2043247
  69.3666935  74.6834469  48.7065935  69.0444803  75.3236103  49.3411064
  69.6699905  75.2106047  47.9674387  58.2136623  29.0025432  41.9202757
  58.7477771  29.7881133  42.0378685  58.4498803  28.4397228  42.6576138
  73.4219654  73.9947133  16.2721909  72.6471396  73.8242822  16.8077553
  73.1518241  73.7700658  15.3818024  44.9574375  71.6505718  54.9899864
  45.6378317  71.9703627  54.3975115  45.1232386  70.7104349  55.0599003
  50.3221130  62.4013805  19.8205078  50.8542919  63.0251884  19.3266678
  49.4222164  62.7027798  19.6957099  77.6992313  13.4219463  31.2546015
  77.8725425  13.4643085  30.3141761  77.8439418  12.5038917  31.4836907
  40.5593920  57.3880911  29.5946693  40.1759863  58.2090044  29.9034309
  41.2152052  57.1664667  30.2557445  54.7106139  17.3664577  36.1874437
  54.6634642  16.4113815  36.2303376  54.1974417  17.6655490  36.9380641
  65.7288734  10.8678157  38.2733655  65.1202265  11.5734107  38.0544615
  66.5453593  11.3158042  38.4944868  68.8486242  55.6388092  39.3731833
  69.0370131  55.5935001  40.3105688  69.7012997  55.5302763  38.9519954
  71.2007489  47.3526766  59.8662388  72.0168318  47.8043082  59.6511411
  71.4777400  46.5761950  60.3526371  57.4969522  22.5512225  47.1522331
  57.3516170  21.7828662  46.6002035  58.0443279  23.1285102  46.6199207
  53.4699392  45.0804472  15.0697219  52.8084755  45.4982805  14.5182526
  53.8456678  45.7986259  15.5789173  75.0758505  60.9540939  53.7926769
  74.8013592  60.7954121  54.6958399  76.0323572  60.9461164  53.8281393
  42.4062051  38.8384919   7.4705065  43.0235662  38.2717280   7.9329718
  42.2967949  39.5944934   8.0473316  20.1994369  25.9745509  55.9086370
  20.7230471  25.3802402  55.3711891  19.3151520  25.9068877  55.5485153
  47.5911427  58.1473780  15.6223667  47.8293848  59.0495682  15.8357406
  46.6411161  58.1173944  15.7354164  33.7083902  62.6307778  19.8437679
  33.4404411  61.7172818  19.9435795  33.4972896  63.0355840  20.6850803
  59.1505098  70.0295496  30.8479142  58.8086796  70.2504683  31.7142749
  59.0616894  69.0781879  30.7908392  15.4298494  30.7984931  60.3326321
  14.5870684  30.4371459  60.6071663  15.2172850  31.6646678  59.9850893
   1.5337656  11.8477924  51.8239546   2.4798725  11.7442710  51.9259167
   1.1849211  11.7465121  52.7095509  61.6457097   2.9380424  48.3691120
  61.6780368   2.2454650  47.7091646  62.2622673   3.5986716  48.0534172
  14.2999790   9.4452579  27.6844025  13.9198683   8.9639384  28.4192967
  14.2513941  10.3638847  27.9489756  25.7498596   6.1765678  40.5973482
  25.0578926   6.5571887  40.0564861  26.5508507   6.3104541  40.0906706
  54.9628369  18.5350234   6.0626060  55.2738587  17.6335342   6.1451948
  55.0809328  18.9100368   6.9353318   0.5273777  68.8237810  56.1097145
   0.9495980  68.4323835  56.8744135   0.9100777  68.3632994  55.3629065
  62.6797676  60.3402042  43.2415962  63.4536409  59.9221659  42.8639793
  61.9604445  59.7433186  43.0353498  67.2941685  68.1010008  11.9410527
  66.6537857  68.6502790  12.3931956  68.0561638  68.0951500  12.5203347
  11.2469814   4.8714359  54.5918369  11.5109156   4.5753486  53.7206841
  10.8388279   4.1037757  54.9922562  69.9804155  31.2353046  51.2172031
  69.6531097  32.0856387  50.9238911  70.5672542  30.9500034  50.5168772
  48.5070229  69.9149942  36.0652065  47.6728868  69.5035172  35.8390713
  48.5671711  70.6711054  35.4813313  17.0227232  43.5017591  10.2781570
  17.3008003  42.7224069   9.7970045  17.7539768  44.1127496  10.1876009
  44.9869347  75.1193476  36.1620736  45.9129620  74.9048424  36.2747312
  44.6108341  75.0240946  37.0371199  75.4661894  64.7356558  30.0248742
  76.4154816  64.6342325  30.0940919  75.1978445  64.0597105  29.4025254
  77.0478765  39.5278938  22.3429132  77.7074138  39.8405750  22.9621625
  77.3273412  38.6389835  22.1238875  57.0989752  71.4838219  47.5907564
  57.6496935  72.0856714  48.0914736  56.2741041  71.4544201  48.0754757
  57.8276126  25.3965099  65.5890989  57.9961101  25.3461082  64.6481943
  57.7685968  26.3342292  65.7719564  62.8288929  24.1037948  31.2946868
  63.3083812  24.6066673  31.9530439  62.9014627  24.6252544  30.4952860
   8.8563877  71.8234015  58.1325769   8.3136135  71.8846273  58.9186287
   8.5149437  72.5036716  57.5521612  61.7320410   2.4432666  18.2877374
  61.8183700   2.1405656  19.1917002  62.0908300   3.3306319  18.2969987
  15.7554720  12.3899181  36.6019773  16.5001867  12.5500209  36.0223246
  16.1175869  12.4688346  37.4845171  72.6056767  51.0771370  27.3070288
  72.2479296  51.2960005  28.1674623  72.2649479  51.7571878  26.7259359
  38.3926620  53.2516866   0.5198229  37.9671325  53.9364343   1.0358370
  38.3120479  53.5495858  -0.3862631  36.2540388  55.4962111  23.7498474
  36.9601226  55.1661730  23.1941915  35.6584907  55.9370184  23.1438422
  71.2723970  59.7337866  55.9718180  70.9927464  60.0704718  56.8230915
  71.6842794  58.8928652  56.1704016   5.8016918   4.5185001  29.1442180
   5.2146910   4.4974620  28.3884263   5.9916161   3.5980422  29.3256736
  55.6936693  49.1048384  11.5495801  54.8506927  49.3145609  11.9516182
  55.4706430  48.8037348  10.6687701  58.6936633  16.3618381  33.2905030
  58.4581820  16.6056354  32.3953247  57.9227034  16.5876968  33.8109279
  59.1520794  36.0389521  63.1031161  59.0194805  36.9838764  63.1790438
  58.3378609  35.7128718  62.7197724  64.3690125   7.5956352  24.4866133
  63.5618989   8.0584819  24.2617154  64.4188253   7.6508720  25.4409170
  19.4248007  26.7612178  61.3163185  18.7236069  26.1969192  61.6420841
  18.9795206  27.3982818  60.7576513  41.2062073  61.0698557  32.7373862
  40.9534502  60.1567745  32.8738856  41.2561464  61.4389372  33.6191559
  71.5707302  70.8417892  32.6564908  72.3789835  70.3374100  32.7490115
  71.8113708  71.5790272  32.0954180  19.8881855  14.9893908   4.8246038
  19.4168033  14.9756055   5.6575764  20.7490387  15.3467565   5.0424469
  64.6185017  62.3210764  47.7554321  65.5612135  62.4664211  47.8354454
  64.2221689  63.0618715  48.2141018  54.5196787  14.2796142  32.1856165
  55.3479997  14.5947845  31.8239856  54.0851347  13.8493259  31.4492369
  18.9510153   3.3048589   3.1824964  19.0407703   4.2012889   2.8590870
  19.0696047   3.3788688   4.1294336  72.7322721  69.9653196  24.3938971
  72.3751402  69.0781736  24.4346905  73.5194731  69.9318361  24.9374247
  73.8224506  75.1964188  36.6741610  73.4930086  74.5348883  37.2824979
  74.7523165  75.2756405  36.8870068  10.0821827  13.9423568  51.9310617
  10.8533428  13.3862788  51.8200779  10.3692816  14.8097427  51.6456747
  75.9526920  68.2069683  35.2207065  76.4721251  67.5543833  35.6903458
  76.4942694  68.9961672  35.2301717  58.6066008  68.7943363  26.7918634
  58.4190130  69.6751070  27.1163487  59.2370892  68.4377861  27.4176335
  60.0111643  11.5927989  29.3931651  59.9005167  11.5001590  30.3394246
  60.4813878  12.4197299  29.2868257  18.6505222   8.1587714  11.8036222
  18.5776973   7.6684147  10.9847951  19.4848156   7.8764850  12.1784568
  16.4483118  25.1937032  36.7083263  16.4786756  24.2550611  36.8934250
  16.8813539  25.2845788  35.8595347  63.4538660  11.8890924  34.9343144
  62.8726635  11.8051429  34.1784131  63.4867845  12.8298612  35.1078164
   9.9483164  65.1991349  27.2547412   9.3392261  65.2691572  26.5196657
   9.8983987  64.2809301  27.5205231  75.5853844   4.8204255  26.7061973
  75.6105429   4.5538643  25.7872081  75.1191956   5.6564081  26.7004204
  53.3360516  70.5901026  40.7288170  53.2519310  69.6940713  41.0548258
  52.8849358  71.1257391  41.3813639  72.3483719  73.8570278  38.3130002
  72.0987584  74.4387389  39.0310097  71.5163710  73.5432594  37.9586625
  49.9136972   4.9176130  44.6424437  49.3866491   4.2477167  45.0779819
  50.1010466   5.5584127  45.3283787  53.3641386  26.0490298  42.3394680
  52.6269627  26.1423540  41.7360640  53.6218309  26.9479990  42.5436258
  67.1690339  19.7642648   6.9405645  67.4750799  20.5296731   6.4540255
  67.9427332  19.4547641   7.4115527  46.8893685  76.0288741  18.3497310
  47.3665919  75.8340327  17.5431788  46.4101477  75.2236020  18.5449648
   1.4713200  68.8105642  27.3195124   1.9457968  68.1428974  26.8242097
   1.1258849  68.3439075  28.0805230  11.8897498  26.2461138  54.8924637
  11.3024569  26.2441158  54.1366100  12.4922001  26.9710255  54.7257614
   5.9280890   9.5267028  25.0440645   5.6892031  10.4534459  25.0616980
   6.3747334   9.3785918  25.8776140  23.5064721  14.6396351  35.5223989
  23.4260130  15.5867469  35.4095387  24.0561938  14.5368385  36.2992311
  50.9725517  13.0329108  63.9434576  50.3844064  12.3572779  64.2808533
  50.9113973  13.7439990  64.5812988  40.6542007  40.6825563   3.8047684
  40.9907202  41.4488772   4.2692459  40.0745360  40.2555943   4.4355810
  51.1670589   3.9785951  57.2945929  50.9219170   3.6287186  58.1511736
  51.9340849   3.4669429  57.0374727  73.5211255  65.6992464  10.4587793
  73.2454409  66.6015368  10.6203365  73.3009340  65.2334397  11.2654829
   2.1401795  62.1453898  43.8353825   1.6384633  62.7886837  43.3346987
   1.7220767  61.3077336  43.6359978  24.8694515   5.7437211  45.1063871
  25.4008198   6.2643796  44.5040607  24.3199849   5.2052724  44.5368338
  53.4927326  59.8803025  17.9208899  53.0569385  60.2033656  17.1322548
  53.0453156  60.3248172  18.6409295  63.0859369  17.0397794  56.8019056
  62.9875034  16.2451446  56.2774086  62.2126442  17.4316192  56.8092537
  50.2771594  68.7937527   7.5433552  49.6544363  68.2388352   8.0129451
  51.0230421  68.8730799   8.1379962  43.5540960  51.5513082  66.1817186
  44.1156326  50.7937379  66.3460234  43.7282060  51.7852588  65.2700253
  12.0215416  40.0965023  24.8872900  12.7913475  40.3934860  24.4020772
  11.9148540  39.1807222  24.6300030  36.9702031  76.1825350  47.6413107
  36.1585881  75.6845430  47.7388668  36.9465508  76.5049646  46.7403603
  31.4998295  54.5117419  22.9408312  30.9141304  53.8096707  22.6574874
  32.3635890  54.1012614  22.9815722  54.8507565  36.1688185  12.1528816
  54.8219413  36.6149235  11.3064837  55.2140444  36.8190479  12.7540934
  26.6959095   5.7437629  64.7721815  27.6499939   5.8040041  64.7239542
  26.4779568   6.0844654  65.6397343  74.4255209   4.4534141  48.5169554
  74.9278063   5.1125550  48.0379200  74.1779858   3.8109484  47.8519773
   1.0711845  68.7175607   3.3495176   1.5307911  69.3559157   2.8040844
   1.4918645  67.8820699   3.1464994  44.6117292  67.2263212  64.5948532
  44.1370998  67.8812237  64.0829315  45.4410527  67.6500936  64.8159189
  76.9493773  71.6485195  31.7529368  77.0266344  70.6949781  31.7209673
  76.0069849  71.8112349  31.7935681  33.3160329  24.5588613  36.8834639
  32.8209066  25.3731966  36.9725680  32.8419948  23.9296198  37.4271321
  14.9838877  33.8984203   4.9973854  15.3370070  34.4324183   5.7089931
  14.1764271  34.3441868   4.7413915   2.9047003  14.4120395  60.4228878
   2.1461044  13.8700604  60.6397343   3.2362047  14.0434337  59.6040678
  44.9165773  22.0401502  11.1204541  44.9832869  21.7567229  12.0322931
  45.1086330  21.2532711  10.6103897  16.9909990  38.6668563  10.8656740
  16.6959214  37.7852035  11.0933828  16.6348100  38.8200736   9.9905252
  78.2263365  19.5551419  18.5362661  78.2661360  20.4711652  18.8111305
  77.8641170  19.5862985  17.6507950   2.8953591   2.4765477   9.8936182
   2.9285756   2.7307865   8.9713979   3.4986681   1.7363733   9.9598926
  76.1770773  14.0569735  23.0325913  76.9571400  13.5235679  22.8802204
  75.4677296  13.5688484  22.6145101   1.1284598  53.2704060  41.6120243
   0.2363404  53.0085962  41.3844109   1.5898045  52.4449651  41.7604923
  25.3178525   9.7080433   6.5684223  26.1354542   9.3656671   6.2071228
  24.7408819   8.9459848   6.6194588  69.1015083  40.0912857  24.7483730
  69.0275758  39.4377780  25.4438543  69.4149333  39.5991135  23.9895821
  38.4846210  16.9999421  45.3336191  37.6441598  17.3167455  45.6645203
  38.9936018  16.8047512  46.1204290  22.8976297   7.6756930  24.9195647
  22.1833849   7.7139980  25.5556631  22.6271200   8.2699406  24.2196178
  80.0599258   2.9676643  44.7294188  80.8396497   2.4936999  45.0185919
  80.2193701   3.1485066  43.8030815  -0.1083581  57.6737993  39.1709352
  -0.5022756  57.2048073  39.9065351   0.7896241  57.8493552  39.4520736
  80.8985191   4.6938393   7.6151800  81.3572204   5.1000887   8.3505619
  80.4734791   3.9242327   7.9937017  23.3364034  15.9210694  11.8947959
  22.9960537  15.0850403  12.2133088  23.4358406  16.4550829  12.6829410
  59.8298734   5.2388847   8.8414484  60.2607077   5.5662084   9.6310520
  58.9202756   5.5237389   8.9293218  11.6410303  13.0491161  18.6549771
  11.6791391  13.7894678  18.0494523  11.0238588  13.3253503  19.3324912
  70.4011315   3.8830987  37.6713777  70.7235628   4.5675939  37.0850897
  69.4926280   3.7461358  37.4028754  28.8851905  11.4276934  56.7936850
  29.6654487  11.9611955  56.9446898  29.0593147  10.6109130  57.2614288
  68.3261015  61.0651832  12.5636649  69.2128505  60.9585839  12.2193587
  68.4192612  61.7018323  13.2723475  74.4578745  63.4996598  37.9413462
  75.0590875  63.1463425  38.5970449  74.0562429  62.7271335  37.5436926
  75.6410825  27.1698499  54.3238831  74.9047703  26.8815422  53.7844801
  75.5699635  26.6494799  55.1241255  80.2837652  12.1934032  35.5062294
  80.9866466  11.7093730  35.9397078  79.8617282  11.5471828  34.9400878
  70.9410824  56.2566011  32.8241205  70.4263618  55.5460685  32.4414539
  70.3071978  56.7671662  33.3278537  23.0552797  55.2086411   3.7237967
  22.8731925  54.4653437   3.1488312  23.9967758  55.3560291   3.6338318
  64.0148276   9.4815809   7.9659498  63.5945731   9.3041658   8.8074619
  64.1633981  10.4271793   7.9670668  47.3113932  58.4290593  31.4244246
  48.1853112  58.2827847  31.0623431  47.1289148  59.3513351  31.2445855
  42.3417044  22.4034953  21.7612600  43.0422544  23.0132008  21.5294790
  42.4789286  21.6510296  21.1857629  43.0582380  46.7060137  22.4959636
  43.5073090  46.1067152  23.0921245  43.0536079  47.5444460  22.9577398
  14.8255881  64.3079071  56.2949800  15.3596171  64.4973688  57.0664358
  15.3781947  64.5568841  55.5541229   2.3245843  74.8899726  56.2636137
   2.2371086  75.8103443  56.0156298   2.1808966  74.8821958  57.2099352
  43.4889390  68.4157931  38.8526011  43.2221403  69.3275564  38.7353897
  44.4407268  68.4299158  38.7519431   2.5539792  59.3415403  38.5799241
   3.2190859  58.9130497  38.0411649   1.9970284  59.8016453  37.9519558
  64.5351203   6.9706063  16.3888157  63.9099147   7.6610379  16.6094101
  65.3602751   7.2617869  16.7768467   2.4311583  50.2741480  11.8401396
   2.8620270  49.4702244  11.5498126   3.1247413  50.9337807  11.8325901
  26.7187738  24.9953842  43.5052443  26.9749260  25.6555057  42.8611517
  27.4275875  24.3524480  43.4841442  34.0948772  22.6648235  33.8985515
  34.4891548  22.5899124  34.7675538  34.0352559  23.6074209  33.7430382
  17.9153717  25.9975410   8.8689107  17.4667740  25.4952717   9.5491439
  18.6769545  25.4645443   8.6405700  55.1260465  12.0689905  24.2160726
  55.9591812  11.8086267  23.8232231  55.3043908  12.9216719  24.6127605
  35.5345368  30.3041005  42.9374504  35.3900909  29.3637896  43.0432034
  36.4572382  30.4310060  43.1582355   0.1577600  55.2393525  46.8820190
  -0.2930252  54.5269935  47.3354197   1.0526450  54.9204176  46.7650032
  17.2905409  15.4780400  23.7612844  17.4737167  14.7655129  23.1489253
  16.5384352  15.9325564  23.3818293  37.1962309  13.8393760  32.9834414
  37.1949768  13.7706447  32.0287132  37.9300714  13.2915723  33.2620454
  16.2172127   6.1852139  35.2681065  15.9067857   6.5882558  34.4572878
  15.6713378   6.5725362  35.9523821  47.9872841  24.3806124  45.0271130
  48.8692206  24.7497058  45.0739145  48.1049031  23.4526539  45.2303076
  32.1658278   0.9996547  43.1349087  31.4824796   0.3521730  43.3082151
  31.7614079   1.6175538  42.5259113   6.0040768  73.0185552   0.8051383
   6.5759619  73.0861505   0.0405411   5.8388193  73.9258345   1.0615869
   8.1092318  73.2602244  41.2223577   8.5700019  72.9630043  42.0069456
   7.2763189  73.6010622  41.5484190  12.0446396  36.4370298  45.7361841
  12.1337235  36.9400859  46.5456486  12.1229029  37.0886350  45.0393915
  71.6370287  58.7075668  38.8603354  72.0623591  58.8399534  39.7075677
  70.7925119  59.1502099  38.9445376  76.8631373  37.0806317  10.5075872
  75.9859596  37.3565047  10.7734573  76.8862257  36.1422686  10.6951321
  19.9389323  47.1673482  40.0474453  20.0620802  46.2218135  40.1312780
  20.3840502  47.3954265  39.2313099  72.8224651  49.3656252   3.4513653
  73.4537784  48.6622641   3.2998550  73.3469621  50.0878988   3.7969864
   3.0799195   4.2458504  21.4283538   3.3051273   3.3385053  21.2228346
   3.7178913   4.7672296  20.9411287  34.2182064   2.4442548  41.0910177
  34.3882155   2.3803976  40.1512051  33.2975197   2.6991281  41.1510944
  67.7360449  45.4394819  44.7275340  68.2833157  44.7090555  44.4390857
  68.0758629  45.6661047  45.5932104  34.4036603  26.5599060  22.1383548
  35.1237917  25.9684658  21.9196320  34.7854614  27.4354506  22.0760655
  41.3643885  15.1951611   8.1323266  41.2406635  16.1304665   7.9706883
  40.4777384  14.8518550   8.2428789  56.1098832  29.9217026  11.9332278
  56.5324395  30.7805817  11.9333816  56.0169946  29.7006362  11.0065496
  67.6833544  23.5393710  62.3644092  67.3181496  24.3870516  62.6179695
  68.6312161  23.6711855  62.3847904  44.1546488  20.7496095  14.9296236
  43.2145452  20.9081960  15.0149930  44.2337847  20.1882720  14.1583467
  24.3718266  12.3789048  48.6772442  23.7606597  12.0589447  48.0136681
  24.2279458  13.3249772  48.6990833  11.6306579  11.0562432  49.6990538
  11.8955469  11.5830803  50.4530478  12.4489152  10.8667004  49.2399645
  56.7398321  60.0650006  28.9783120  57.6854609  59.9479502  29.0695095
  56.4190545  59.2095857  28.6926579  59.4913729  60.2138787  31.5980721
  59.4925394  59.8476117  30.7137203  59.9576249  59.5659333  32.1262860
  54.6818076  26.7013903  58.1829541  54.8573575  26.5158422  57.2604650
  55.4344020  27.2181089  58.4707653  48.3653784  16.8572891  47.8353214
  49.2617321  16.6610670  48.1078672  48.1333017  17.6461267  48.3253241
   0.2542049  24.0274715  25.5946827   0.4871435  24.9556303  25.6168318
  -0.5461426  23.9938307  25.0707126  66.8867999  27.4760032   0.7013384
  66.8628782  26.5515590   0.9484505  67.7863997  27.6225758   0.4089891
  47.6209927  16.5902424  35.8744574  47.5741482  17.4041164  36.3761020
  47.7195835  16.8743408  34.9657202  61.0475653   6.7998362  10.9270048
  61.9770271   6.6277111  10.7763243  61.0303205   7.6441091  11.3777137
  33.3690693  62.8771179   8.2111323  32.4580600  63.0949908   8.0140889
  33.4337546  61.9380682   8.0372608  37.3672652   0.8322431  22.1094060
  38.3219433   0.7898477  22.0544243  37.1453667   1.6955432  21.7605448
  63.7307364  26.2408209  33.2590127  63.1033665  26.3079762  33.9788270
  64.0325636  27.1384645  33.1198335  29.4229078  30.7365251   3.5144040
  29.5305777  29.8498034   3.1703618  28.8053536  31.1532664   2.9134193
  41.8161678  23.1647849  18.8612545  42.4447393  22.9076958  18.1866920
  41.6760731  22.3687172  19.3739724  11.0991462  62.5451069  44.1177654
  10.5568441  63.3336478  44.0992975  11.5803655  62.6046436  44.9430656
  34.4722644  75.2601309  38.8061606  34.2164824  74.3537636  38.9773452
  33.7174741  75.7786984  39.0847480   4.2337036  43.1459713   9.6845526
   3.6843157  43.9224243   9.7919011   3.8349497  42.6692057   8.9565951
  33.2913423  35.2508783  24.0852690  33.6541128  34.5744276  23.5133934
  32.5311995  35.5848360  23.6089396   6.0212165  48.6950541  20.5712390
   5.9697431  49.4447327  21.1641645   5.1331544  48.3380890  20.5588198
  21.4919496   6.9631779  48.7644482  22.3078680   6.4829564  48.6233950
  20.9624147   6.3808769  49.3091965  33.6426640  13.2268202  29.9462080
  33.4048104  12.3060381  30.0549173  34.1409779  13.4402227  30.7351136
  48.9917531  68.8196146  11.7528152  48.0903931  68.5423302  11.9168139
  49.0796061  69.6439057  12.2314155  53.0740261  18.2085264  30.7836890
  53.3328295  17.8051555  31.6122699  52.5647545  17.5323343  30.3368807
  26.3752437  12.9431641  17.7304637  26.3869667  12.5715780  18.6125171
  25.6278586  12.5240088  17.3039007  66.2211418  16.7924643   9.7602910
  66.1328030  15.9121323   9.3949920  65.9831476  17.3758006   9.0396595
  21.3614106  18.4521115  30.8615494  21.8536305  19.2726183  30.8347201
  21.1672640  18.2591748  29.9443197  19.2520797  32.5426531  21.4586186
  20.1018977  32.8307700  21.1254048  18.7012076  33.3243775  21.4176464
  14.4061303  17.9361475  50.2752781  15.1911998  17.8376460  49.7365808
  13.7175143  18.1729341  49.6540117   9.6119761  23.4900498   9.3491918
   9.2304808  23.0261660   8.6038709   9.6053910  24.4106674   9.0871739
  20.1044583   1.0816046  54.2416906  20.8247685   0.5308956  53.9349222
  20.2564216   1.9293451  53.8239908  67.6689678  25.7709622  17.0883417
  67.1072692  25.0398254  16.8311143  67.0803016  26.3798428  17.5344014
  54.6655750  15.4026997   9.1315961  54.9270010  14.5866001   9.5580584
  53.9034843  15.6994200   9.6289998  51.8366330   5.4706671  63.9160199
  51.0424565   5.1654675  63.4774211  52.3720421   5.8387663  63.2131171
  21.2385623  61.5702341  16.2610806  20.3434143  61.8155453  16.4950932
  21.1932872  61.3603113  15.3282822  24.2392564  19.9870145  16.5164852
  24.7322297  19.1667008  16.5337157  24.4232917  20.3948641  17.3626661
   4.8141535  74.5170494  65.5279684   5.6324752  74.0405374  65.6676817
   4.2155012  74.1628965  66.1855555  75.7373780  17.2757077  46.4328957
  75.8582866  16.8386459  47.2758579  74.8504072  17.0364261  46.1640835
  20.5399330   6.7604687  66.3886975  21.1194809   6.6094258  65.6420113
  20.9434660   7.4882319  66.8617269   0.4117425  47.3077410  13.3465075
   0.0126513  46.6318767  13.8943827   0.4646619  48.0762666  13.9146614
  35.6397057  11.5473676  20.4086328  34.7020841  11.5634406  20.6005692
  35.9704852  12.3736572  20.7608557   9.2401099   9.3331307  29.1426516
   9.9429262   9.8472303  29.5401216   9.6347636   8.4773642  28.9748883
  18.5537279  18.7971139  44.5291948  17.9589760  19.2847300  45.0990486
  18.4627378  19.2161036  43.6733913  45.4617500  11.9536817  19.3207502
  45.5646133  11.8442380  20.2660942  45.4468679  11.0606647  18.9764678
  69.8389635   7.5993962  64.0543816  70.0087986   6.7290230  64.4147092
  70.4930983   8.1620283  64.4688498   5.8584952  32.8284454  56.8376780
   6.0466570  32.0385122  57.3444700   5.0169933  33.1349802  57.1755314
  75.2969505  53.8874071  32.9472661  74.7890570  53.1945317  32.5251293
  75.2171757  54.6365278  32.3567724  23.6037636  39.4092488  35.6790018
  24.1818380  40.1601076  35.8141899  24.1558623  38.6472654  35.8545089
  29.2437243  40.7671976   5.6864256  29.1911030  40.2790689   4.8647237
  28.3635449  40.7067204   6.0577226   5.6102522  71.6478246  24.5553327
   5.7005699  71.3600563  25.4637718   5.8935006  72.5621109  24.5644236
  35.6031350  62.8073306  59.3258124  34.9933235  63.5224338  59.5074409
  35.9731982  63.0199213  58.4690225  51.1693001  25.7665730  37.4416232
  50.4489470  25.5238128  36.8599129  51.8275452  26.1486697  36.8611503
  27.3002410  18.9291203  51.1467743  28.1717658  19.0357316  50.7655764
  26.8006659  19.6750033  50.8146334  10.2148676  35.4211259  34.2552686
   9.2897570  35.5883551  34.0751672  10.6841838  35.9670997  33.6244869
   8.3940852   9.4548029  45.3639746   8.5377389   9.1242474  46.2507296
   8.5700375  10.3935862  45.4268837  68.5816771   1.1410531  43.1814480
  69.4460779   1.1496353  43.5925055  68.5068125   1.9987980  42.7632332
  60.2495146  12.6186705   2.6242813  60.7487488  13.3232379   2.2112714
  60.4394722  11.8464160   2.0915806  13.7189186   8.9733809   0.7084242
  14.6196711   9.1610354   0.4444875  13.4113181   8.3300507   0.0698796
  59.9445740  52.3324547  10.6024731  59.8973481  53.0320750  11.2540377
  59.3753330  51.6447387  10.9477938  24.2875910  23.5528636  41.3407373
  24.4302797  24.3258452  40.7945013  24.7088599  23.7667799  42.1732044
   7.6606091  72.6216741  38.6060357   7.8981121  72.9704567  39.4652057
   7.0262345  71.9302942  38.7952232   3.3089891  25.0171328  65.6875277
   3.3716640  25.9645081  65.5659342   3.1236875  24.9070954  66.6201496
   9.2296189   2.8594089  21.7690158   8.4206402   2.3477623  21.7706990
   9.2124617   3.3318830  20.9367251   6.2397736  24.3469810  46.6683388
   5.6790978  23.9447069  46.0049725   7.1294618  24.1130471  46.4038372
  80.1541078  48.1680441   7.3950267  79.6559627  48.5092878   6.6523051
  79.4875723  47.8993130   8.0272800  66.8872764  63.1682139   6.0320979
  67.5237228  62.5184136   5.7338923  66.2152936  62.6562898   6.4822155
  69.2108017   0.9965466  38.3171701  69.6016580   0.5809115  39.0857482
  69.8810381   1.6057275  38.0074692  79.3325140  56.5613191  16.9772017
  79.9170591  56.6485207  16.2242508  78.8391449  55.7591789  16.8057656
  45.7581615  32.1409583  16.5004468  44.8083735  32.0852017  16.3954282
  46.0968733  31.3843274  16.0218906  32.3744249  31.4970946  24.4010186
  31.8697453  31.7625594  25.1698232  32.8411007  32.2895384  24.1355371
  44.6563196  13.5371733  22.5046539  44.9852800  13.7458158  23.3790016
  44.3090725  12.6488149  22.5850797  32.8445339   8.5987687  44.4930124
  32.9073906   9.2921484  43.8361216  31.9784212   8.7163162  44.8832178
  41.0264206   6.5898186  38.3169818  40.7770920   7.2137314  38.9987445
  41.2603283   5.7939470  38.7945867  78.7814668  18.5135996  23.4210730
  78.2677880  17.7503705  23.6853600  78.7171787  19.1143370  24.1635108
  60.1311398  20.7343102   8.0342942  59.6475077  21.1785245   8.7307185
  59.9753618  21.2690592   7.2558284  28.7604380  29.3419552  29.6985173
  29.5795155  29.2095327  29.2212248  28.4445214  30.1948142  29.4000912
  20.3826070  24.8539186  17.0281613  21.1198235  24.3977380  17.4339235
  20.0392342  24.2314410  16.3871861  14.2750132  43.4389925   9.7825450
  13.7941396  42.6369667   9.9868566  15.1897132  43.2224560   9.9632859
  18.4354150  27.1523428   2.4253592  17.8700006  26.5990710   2.9642743
  17.8303182  27.6454496   1.8713395  59.2961454  30.6870198  51.6410494
  59.8461199  30.1300097  52.1919632  59.2534685  31.5203500  52.1100616
  64.8484230   0.3985291  24.1219258  64.8084688   0.3948432  23.1655669
  65.7775116   0.2867689  24.3232608  25.0809741  14.4599700  14.6813726
  24.2345023  14.4194102  15.1264226  25.1507926  13.6227131  14.2227244
  33.6143088  14.6618080  12.3444760  34.3714428  15.2230728  12.5116956
  33.9914775  13.8292122  12.0602930   1.0103281  34.9395936   7.1862286
   1.6447910  34.7506659   7.8775984   1.2264737  34.3220799   6.4875221
  36.2051177  12.0354116  16.5982997  36.4037704  11.1044526  16.6987252
  35.2857518  12.0568454  16.3327098  77.5469544  61.8929415  31.1164379
  78.1302883  61.8313771  30.3600240  77.4185850  62.8328734  31.2440300
  54.3870786  75.8813704  33.8501954  53.8974016  75.3065852  33.2619190
  54.0995796  75.6275606  34.7272110  26.7192292  27.3714256  24.1880417
  26.6060662  28.2776880  23.9014864  25.8392024  26.9967413  24.1506457
   9.6077116   1.1686089  46.6358709   9.2638024   2.0478012  46.7939126
   9.0272888   0.8005693  45.9696209  81.1597063  75.0181966   5.3346443
  80.7007243  75.8485435   5.2077860  80.5870297  74.5138227   5.9124696
  15.1427615   9.8160106   4.6159646  14.5474255  10.5283129   4.8492742
  15.7118881  10.1901221   3.9433825  17.4669719  29.4852400  14.3596578
  18.0591714  30.2357602  14.4071090  17.6541603  29.0857768  13.5101748
  52.4306297  20.2931881  17.0316505  53.0285788  20.9094763  17.4545920
  51.6678095  20.2649641  17.6091790  39.9490571  20.5715036  31.2575364
  39.0516019  20.4276061  31.5576982  40.4946184  20.1587772  31.9270539
  51.1145687  17.1808207  36.9591665  51.3610649  16.2562501  36.9338155
  50.8615541  17.3860085  36.0591030  60.9553927   6.6872013  22.3271608
  60.3176564   6.5194762  21.6333365  61.7300051   7.0108968  21.8673468
  46.7422295  44.2338562  14.2457628  46.0347843  44.4793177  14.8420036
  46.7304611  43.2767391  14.2413187   2.9036576  11.7640281  27.2865105
   3.3215290  11.0949230  27.8286457   2.0736271  11.9454813  27.7273655
  31.0311627  15.7925189  46.2454414  30.7373619  15.6618607  45.3438616
  30.2392840  16.0424650  46.7215586  11.2317729  19.4291723  53.2584524
  10.7372868  19.0530479  52.5302744  11.4212215  18.6845231  53.8292789
  46.2553787  11.6015816  35.7517600  46.7182398  10.8012533  35.5038333
  45.3664637  11.4769316  35.4193139   0.3031382  19.5424879  52.9056787
  -0.0423167  19.2520702  52.0615530   0.5911447  20.4419518  52.7499533
  28.1995114  73.8040625  37.1155334  28.8434895  73.4675684  37.7386642
  28.3111771  74.7542601  37.1453285   3.3235606  61.3198369  36.2109423
   3.6369856  61.5960686  37.0721555   2.3888024  61.5257423  36.2188816
  17.7642608  53.2476902  20.9123945  17.9214597  54.1659403  21.1322355
  16.8826878  53.0703926  21.2404609  33.4358144  28.0699635  39.5458341
  33.0999827  28.8551760  39.1135240  33.2424378  28.2059574  40.4733801
   5.5865133  13.6696506  56.5519571   6.1378992  12.9366267  56.8255997
   6.0900265  14.1041696  55.8635521  11.7623504  61.2660127  28.2000160
  12.0051368  60.3713124  28.4383368  12.3029908  61.8191664  28.7638950
  45.6608345  73.6194601  18.5222614  46.4403363  73.1038841  18.7291193
  45.1818742  73.0856433  17.8883302  43.8489294  11.4775884  14.1774809
  44.6762800  11.9586921  14.1936517  44.0768099  10.6213379  13.8153553
   5.1968392  54.8566287  38.9198756   4.9702366  55.1170891  38.0271029
   4.3938764  54.9973886  39.4215441  15.8268797  56.9093132  23.3627176
  15.5554414  57.3908138  22.5812387  16.5441501  56.3508797  23.0628753
  76.1237663   1.0410000   6.2911081  76.5038890   0.5703640   5.5493265
  76.6279939   1.8529426   6.3434142  15.3802621  21.0914040  28.0328465
  14.6539366  20.9906530  27.4175954  15.7249188  20.2053118  28.1436944
  19.4059277  24.2859960  12.2207069  18.7437630  23.7017965  11.8512762
  19.7823513  23.7914276  12.9486752  66.6140689  61.4976161  23.3353043
  66.5739872  60.5419295  23.3712196  67.5464549  61.7011779  23.4091401
  39.0162686  61.0619543   3.1096447  39.0483252  61.3116596   4.0331400
  39.8619405  61.3390610   2.7571095  70.9737784  63.0287075  16.1077559
  70.7574588  63.8349771  16.5761197  71.8387943  63.1942415  15.7328200
  46.9933907  50.9762941   3.7662876  46.7323605  51.6680131   3.1583250
  46.6938726  51.2837897   4.6218384  80.2445088  47.5276859  60.2732515
  80.8432875  47.4769087  61.0183131  79.8000775  48.3687027  60.3800350
  78.0954005  74.6324690  14.9670184  77.7897479  75.5303078  15.0962245
  77.3025777  74.0991013  15.0234389  41.4880991  12.2987998  20.9163022
  41.6716242  11.6782212  20.2110147  40.6607485  11.9971776  21.2914658
  47.8074169  39.5081353  13.1529665  48.3727074  39.9661732  12.5309706
  47.4051094  38.8073468  12.6398623  30.5570889  57.3908043  23.6839032
  30.7980561  56.4867926  23.4815907  31.1920953  57.9213524  23.2027435
   6.4671022  52.6559544  21.3266659   6.3410246  51.8644667  21.8500042
   6.0156846  53.3423376  21.8179178  23.6950922   8.1831551  40.4843330
  23.1846666   7.8939849  39.7279763  23.1042910   8.0709523  41.2290478
  42.9871845   5.7495087  43.1215668  42.0896292   5.4569942  42.9632473
  43.1692457   6.3608831  42.4079084  24.6432495  41.7701530  33.2493401
  25.1156855  42.5703382  33.0196953  24.4830084  41.8481541  34.1898036
   0.2167354  12.6103830  49.5743179   0.6807603  12.2721791  50.3401709
  -0.1800463  13.4274864  49.8762083  68.0385520  65.0153737  50.7718801
  67.5040402  64.2462950  50.9694767  68.0973973  65.4861682  51.6032171
  29.5259857  32.5645280  31.7551112  29.8766088  32.3331714  30.8950138
  28.7124777  33.0315089  31.5644193   5.1353753  17.4541807  11.2906539
   4.1911942  17.5005209  11.4410067   5.2363449  17.6105201  10.3517210
  45.2623796  26.0246253  28.0703139  44.7962427  26.6356874  28.6408830
  46.0331249  25.7657290  28.5754466  80.9130425   6.3839072  10.5519497
  81.4897406   5.6264889  10.4521120  81.0904034   6.7051023  11.4360356
   2.5034824  38.2904720  49.3234348   2.6302356  37.4236512  49.7091627
   2.4935105  38.1333494  48.3792686  65.6789201  20.6808853  54.4999981
  65.9096152  19.7899628  54.7631836  64.8269349  20.8378577  54.9070787
  36.6334534  24.0011334  52.4140787  37.0608306  23.4204698  53.0436897
  36.7515588  24.8782492  52.7787066  55.1318163   0.4684926  27.5386620
  54.5054215  -0.1778162  27.8644633  55.7328099   0.6095081  28.2702065
  75.2499320  70.9205466  37.4713516  75.9702684  71.0229718  38.0933285
  75.6741883  70.9084414  36.6133952   7.3221296  34.5021605  60.0475645
   7.6771230  35.1259565  60.6808853   6.3802338  34.4976330  60.2179861
  34.2219973  14.4080377  53.7432671  34.8177481  14.9946451  54.2093229
  34.4922662  13.5297763  54.0113068  31.8943381  21.0829425  32.8329110
  31.0773683  21.5395331  33.0337048  32.5790024  21.6494608  33.1886172
  73.8512725   2.8802881  14.5835805  73.2032394   3.0033630  13.8899386
  74.2253542   2.0162201  14.4112980  69.5314934  66.3663368  33.3770967
  69.0565183  66.1534016  34.1803956  69.8568024  67.2552018  33.5196638
  60.9916862  71.7434614   9.4551605  60.3732218  71.4810853  10.1369905
  60.8226480  72.6765340   9.3246460  79.8568636  23.5733008  14.3522191
  80.0714661  23.5988092  13.4197342  79.9544357  22.6526499  14.5953512
  76.7213609  72.5039711  26.6161418  77.4197151  71.9971221  26.2018490
  75.9588720  72.3648115  26.0544705   4.2847951  54.0803926  28.5326195
   4.7524174  54.3193667  29.3329048   4.9493416  54.1232746  27.8450346
  22.7667975   5.7183433  51.5612650  22.0213318   5.3168476  51.1148214
  22.4911475   6.6204751  51.7237663  33.9884281  11.6069806  56.9972658
  33.1994796  11.0691810  57.0648289  34.3710685  11.3659585  56.1536264
  24.5634890  25.3691769  21.3810539  24.6611953  26.2936950  21.6089797
  23.8161159  25.0722027  21.9001603  11.3035929  39.9302769  15.8033812
  10.5611968  39.3631959  15.5948174  11.7736840  39.4647241  16.4951229
  81.0862914  17.7041483  15.8834314  80.5707526  18.3984852  16.2937331
  81.8514754  18.1538939  15.5250275  30.5291748  17.0776117  24.2673039
  29.6807718  16.7922556  23.9281631  30.5941772  17.9965758  24.0074730
  69.7160091  60.6515913  35.3328347  69.5882704  61.5582936  35.0538969
  69.0805008  60.1516216  34.8205948  19.5691737  69.4570564  47.9641581
  19.5716437  70.2571302  47.4386978  19.8584660  68.7730234  47.3603058
  31.4784503  32.0181036  27.4536610  31.6933560  32.0340776  28.3862877
  31.7874622  32.8612375  27.1221924  73.2895213  11.7638063  15.1055777
  74.1602051  11.7514086  15.5030549  73.0992520  12.6927102  14.9745524
  38.2653260  14.5048833   8.5656011  37.9784083  15.0024915   9.3313015
  37.6041985  14.6895075   7.8984743  26.7122960   2.5898615  46.7197895
  26.7968702   3.5311133  46.5677214  27.4217916   2.2000241  46.2090302
  34.2222309  71.1464024  56.9355536  35.1574492  70.9528446  56.8712425
  34.1272974  72.0074558  56.5283537  30.9047961   9.6259242  53.6453056
  30.5041718   9.3251741  52.8296566  30.9152985  10.5800533  53.5694122
  40.7894659  21.9780540  24.1011477  40.9455395  22.8324509  23.6988068
  40.5097818  21.4193344  23.3759975  10.8071864   7.2927314  41.7506361
  10.2237892   7.9760695  42.0806789  10.8790135   7.4714154  40.8130074
  47.8838587  44.7722912  30.1153231  48.5392570  45.3113604  29.6725059
  47.5291204  44.2115641  29.4254112  41.2992716   0.0481731  57.0209217
  41.9217539   0.6401172  57.4432421  41.3888979   0.2335447  56.0861301
  76.6378608  50.4779291  37.6690793  77.2090656  51.2452555  37.7031898
  76.9889390  49.8881483  38.3362651  10.0504816  45.5558348  65.2504826
  10.1816583  46.0809612  64.4610071   9.1165107  45.6406927  65.4421377
  45.8718220  51.0783110  24.7567165  45.0689248  51.5884707  24.6502960
  45.6469158  50.4099844  25.4040134   0.7371910   0.9980466  45.6983697
   0.4198893   0.1681950  46.0545957   1.5890773   0.7850435  45.3173840
  27.4766850  42.4065018   8.4834522  27.9401875  42.9685974   7.8626102
  26.7711782  42.0131397   7.9698747  51.2959337  25.4424906  18.0420220
  51.2024117  24.7901845  17.3477733  51.5721655  24.9391937  18.8079333
  13.4172666  16.6896129  26.5603948  13.3110797  17.6392007  26.5034819
  13.1777811  16.4754415  27.4620652   1.0180762  23.9922452  32.6164222
   1.1573770  23.9605021  33.5629010   1.8982956  24.0628457  32.2470164
   3.0580783  16.5128565   8.0276656   3.5096925  17.2912598   7.7015316
   2.2093579  16.8370104   8.3290446  44.7218641  63.4352761  23.6839366
  45.4203012  63.7418967  23.1056643  44.9551596  62.5281351  23.8811707
  30.4006600  27.0621371  17.9578388  30.4657102  27.1673465  18.9070129
  31.0867238  26.4314723  17.7391875  49.9354506   9.5306683  35.9701729
  49.9246216   8.6442906  36.3313508  49.3691111  10.0344312  36.5547371
  17.5525435  34.8704474  23.7169623  18.2025154  35.3768676  24.2041039
  17.4601801  34.0578454  24.2143369  24.8522305  41.5665054  24.9922633
  24.9942350  41.1922932  25.8617640  25.6951547  41.4695406  24.5492005
  52.1778297  11.0606062  12.1284866  52.5620461  11.5210044  12.8745735
  52.5882387  11.4616704  11.3623643  22.8375387   3.9417151  44.0137577
  22.8202391   3.1265515  44.5151949  22.3875189   4.5758688  44.5719385
  41.8573401  59.7663612  57.8864264  41.2482629  59.6296020  58.6120665
  41.9834052  58.8945074  57.5119805  34.0663362  42.3935843  25.5584192
  34.8471832  42.1393299  25.0666213  34.3818951  42.5392866  26.4502883
  10.9674096  42.3206615  21.5156412  10.6171465  43.0239916  20.9689498
  11.7747855  42.0547199  21.0755801  54.4019365  24.3900681  38.0311012
  53.9655304  25.2418709  38.0166054  54.4964457  24.1536403  37.1083879
  26.3233376   5.2295440  23.9112449  26.1853838   5.1370305  22.9685664
  25.9872675   4.4143039  24.2836332  55.7634019  57.8643136  27.5932431
  55.6471038  56.9341724  27.7870083  56.1620102  57.8796928  26.7231226
   5.7043862  35.6293702  10.4733181   5.1584798  34.8691463  10.2726233
   5.1328623  36.3817835  10.3201318  24.0295959   2.9830566  19.4252551
  24.3128324   2.3972496  20.1272798  23.2748079   3.4456903  19.7892535
   9.1836858   9.7465879  40.1334190   8.9594311   9.8316020  41.0600901
   8.4357297  10.1239443  39.6703911  75.2441633  15.7772934  48.6934614
  75.8325708  15.3016341  49.2797709  74.5756191  16.1448371  49.2715549
  35.2724075   3.9982831  62.3170090  35.8290052   3.7013155  61.5971184
  35.4718781   3.3995372  63.0366945  54.7880180  75.3419298  27.1798015
  54.1983620  76.0793680  27.3370361  55.6549670  75.7404788  27.1037102
  28.4412217   5.8754271   4.8622468  29.1042709   6.2162209   4.2618644
  27.6190329   6.2540841   4.5510337  48.1197309  17.7453935  33.2642627
  47.8257990  18.6546791  33.3193755  47.5623798  17.3538578  32.5917363
  32.1561839  50.7916658  10.8116901  32.5417473  50.1302474  11.3862300
  31.2120273  50.6976455  10.9380221  25.0585246  44.2526340  28.0491662
  25.7436633  43.6554003  27.7489519  24.4553399  43.6966133  28.5423684
  26.0531640  11.5314078  19.9340510  25.3381824  10.9045601  19.8240733
  26.4034367  11.3448024  20.8050966  44.1810989  18.0422628  47.3058033
  44.7460032  18.8147950  47.3233652  44.5142031  17.4859118  48.0098963
  29.4221171  72.6215129  17.0010865  29.4228752  72.0477491  17.7672637
  29.0655430  72.0801484  16.2968051   9.5291156  19.4961584  34.1610527
   8.7794584  19.3121386  34.7270751   9.5915169  20.4512477  34.1491699
   5.8701921  56.7638397  43.2053280   5.7991564  56.5633011  42.2720718
   6.8121535  56.7958546  43.3724070  56.6279030  16.2179554  26.4302659
  56.7332745  15.7442582  25.6051970  56.0786009  15.6460142  26.9663501
  53.9223433   5.1790839   3.1595212  54.1472101   4.2710763   2.9565692
  54.4333553   5.6971204   2.5376365  15.9723783  52.0273590  14.5969069
  16.4243662  52.6441479  14.0211368  15.7806516  52.5332785  15.3865385
  36.5759945  56.8884182  31.7833662  36.9602346  56.0225201  31.6462040
  35.7007504  56.8253660  31.4010000  14.1154456   2.6057249  44.7316647
  14.9836123   2.7608097  44.3595552  14.1267824   3.0709666  45.5681181
  27.4621749  26.1590028  62.9265308  28.0476904  25.5223942  63.3365726
  27.1407700  26.6919494  63.6537838  80.1109268  75.7382970  55.2350330
  81.0004499  76.0536026  55.3949118  80.2299692  74.8668223  54.8574209
  49.6574563   9.9707019  22.6452136  48.8943261  10.5421758  22.5598812
  49.6702021   9.7246599  23.5701632  45.7941703  22.3568902   7.6365746
  45.0345401  22.4254880   8.2149208  46.4667873  21.9377134   8.1733311
  33.2775092   0.9969658  15.0218666  32.7609587   0.2920850  14.6312916
  33.3589554   0.7518214  15.9435511  36.1497521  24.6344042  43.9234591
  36.1922622  25.3339458  44.5754290  35.2210069  24.4077611  43.8755512
  36.2640762  19.7383606  41.6621351  37.0130157  19.3474054  42.1121073
  36.5599775  20.6168008  41.4233589  11.2451816  21.6020060  41.2642384
  11.9485593  21.9468927  41.8142748  10.9469950  20.8158398  41.7216873
  16.4813638   2.1512389  41.5847349  16.5129519   1.5780079  40.8188105
  16.3361204   1.5581943  42.3219156  33.0716538  39.7253942  24.6880317
  32.4805069  39.8152375  23.9405656  33.2208467  40.6231594  24.9846649
  39.6054173  38.9684057  18.0100751  40.2937078  39.4211698  17.5227427
  39.9621034  38.8700080  18.8928688  22.4127507  45.8354664   5.7198793
  22.3708963  45.2301025   4.9796015  21.5054798  46.1071777   5.8586794
  32.6593781  44.3126106  33.7196541  32.3689246  43.4640265  33.3853269
  33.6149406  44.2700148  33.6833382   5.7941753  26.2328362  42.3078346
   6.4891362  25.6084394  42.5161409   6.1039227  27.0644474  42.6665974
  10.3211117  47.9781771  24.3243718  10.4989719  48.1066084  23.3926535
   9.9468106  47.0988131  24.3777680  33.6827087  49.5796013  36.0489297
  34.1152644  48.9381647  35.4852915  33.5271788  49.1113758  36.8691754
  32.8048587  38.4083319  12.8279865  32.6402450  37.6532459  12.2632051
  32.3593426  38.1956863  13.6480641   2.7733910  51.7675114  34.9339843
   3.4297428  51.9704151  34.2674518   3.0821913  52.2190285  35.7194805
  41.0653543  19.1589248  28.7663531  40.7896471  19.9877477  29.1578507
  40.8591843  19.2530143  27.8363681  38.9197254  11.5798247  42.3679638
  39.2252898  10.7079470  42.6183462  38.5693002  11.9523227  43.1770897
  25.6020355  18.7392926  24.0774441  25.0903487  18.2554185  24.7257304
  25.0018191  18.8625777  23.3420730   0.9638707  58.7571020  51.0480535
   0.1434199  58.2652993  51.0830426   1.5659587  58.1849797  50.5722451
  62.8533602  61.3774204  14.8416960  62.6764584  61.4202166  15.7814336
  63.8024378  61.4803123  14.7717071  40.4845524   4.8680389   0.3346560
  40.4279804   4.9717209  -0.6152291  40.1684380   3.9794022   0.4978419
  78.7623598  18.9907982  53.7864446  79.7102000  19.1073992  53.7213659
  78.6158230  18.7219717  54.6933591  29.6804762  60.6469107  21.5395379
  30.4266810  60.7009554  20.9424710  29.6052718  59.7150898  21.7451763
  47.1253014  17.6664412  30.5443668  46.7397404  18.1725395  29.8292160
  47.1524858  16.7682350  30.2146411  54.5360130  10.4257715  18.8101792
  54.9149579  11.1942816  19.2368233  55.1922959  10.1618600  18.1652951
  27.3129034  23.7132549  32.3276830  26.8644738  23.8371348  33.1642222
  26.6521406  23.9245009  31.6681361  29.1289401  37.1012139  31.5525746
  29.9031138  37.3502612  31.0477352  28.4680772  36.8950081  30.8915353
  39.3600726  10.6459999  22.0491147  39.9417877   9.9161613  22.2616553
  39.0682793  10.9751320  22.8992677  46.8280411  14.9638593  12.8273165
  47.2694874  15.3144264  13.6009192  45.9984350  15.4397714  12.7887011
  28.6671591  48.4614849  27.4215889  27.9271793  49.0509892  27.2761750
  28.6092687  47.8242922  26.7096424  28.3823395  49.3564272  22.4208355
  28.0516291  49.8950672  23.1396747  29.2854214  49.6490335  22.2981238
  34.7265251   0.6575753  59.4907528  34.8443230  -0.2538011  59.7586160
  33.7773999   0.7732203  59.4457376  36.7219877  67.9289198  10.3361273
  35.8014369  67.8485012  10.5858231  36.6998553  68.3166218   9.4612402
  30.4532051  74.0681696  22.9710221  29.8778677  73.3155584  23.1081152
  31.2014365  73.9054251  23.5453868  31.8482971  46.6480446  34.7461843
  32.5657940  46.9171667  35.3197718  32.0353484  45.7316685  34.5424628
  37.1459484  22.9022765  42.0828915  36.8643451  23.6911106  42.5462246
  38.0433941  22.7562904  42.3820782  32.9849482  12.3040712  34.4456506
  33.6277652  12.7112579  33.8649464  32.6023293  13.0357182  34.9299312
  65.9021872   2.4132031  21.8471527  65.8719426   1.5973330  21.3474798
  66.8189090   2.5001767  22.1084762   9.6670842  31.2430906  45.7549572
   9.4383246  30.8029556  46.5736008   9.5928097  32.1760440  45.9557438
   6.1962569  53.1699324  40.7045841   5.9339732  53.4714460  41.5743685
   5.7123226  53.7325621  40.1000309  55.9717276  17.0379879  59.7804552
  56.5779743  17.1514561  60.5124533  55.1063817  17.1897747  60.1604139
  21.8046403  26.2915683  52.9258919  21.1837053  26.5638542  52.2502184
  21.4783263  25.4420829  53.2227516  15.9856558  36.3550448  36.9586396
  16.7439783  36.8963861  37.1780229  16.2327754  35.4729128  37.2361398
  15.1537144  19.1967702  13.3782434  15.0604725  18.6015201  12.6344597
  14.2621541  19.3098879  13.7077200  27.6952696  38.9490747  16.9018483
  27.5164628  39.5303917  17.6409900  28.2142758  39.4811749  16.2987459
  36.1040578  64.4300766  56.7276746  35.8380381  65.2965851  56.4200580
  37.0428560  64.5131106  56.8949943   0.7929660  15.9529614  41.1356020
  -0.0553958  16.3488770  41.3350153   1.1216412  15.6515765  41.9825792
  28.1062436  50.2126122  14.4964111  27.7286005  49.6205330  13.8459778
  28.0188894  49.7437954  15.3263581  42.8684664  48.8934040   9.4937718
  42.1296215  49.0093088   8.8963550  43.1862831  48.0088186   9.3128514
  31.6045451   9.7685325  33.7544370  31.4549398  10.1239860  34.6305084
  31.2430596  10.4287732  33.1631303  51.2990808  45.7885218  13.3549559
  50.6233835  45.4113579  13.9183474  51.1988640  46.7345190  13.4611309
  31.3502526  26.5033674  14.5636392  31.7832327  25.9075785  15.1750290
  31.3842583  26.0490227  13.7218261  62.2729301  24.9688888  11.7983162
  61.3725042  25.2927470  11.7742074  62.1859503  24.0163779  11.7610443
   4.2171183  14.0477526  27.3827362   3.5174596  13.3996260  27.3012447
   4.8575091  13.6371279  27.9637003  31.1202145  60.6349659  11.3411617
  30.1741862  60.6739569  11.4816737  31.3144135  61.4030075  10.8039200
  27.5697875  51.3543510  36.4290857  28.4865665  51.5459633  36.2315226
  27.1147156  52.1835089  36.2819862  18.8115180  74.5986032   8.3342886
  19.3526638  73.9442205   8.7760806  18.0023372  74.1346550   8.1193173
  30.0273323  22.8101039  33.5773134  30.1474690  23.7565660  33.6548018
  29.0793610  22.6933479  33.5144711   6.4914072  45.3557587  14.7981930
   5.8206683  45.9500122  14.4617414   6.0588115  44.8850298  15.5105877
  36.5061688  41.4180136  33.4799433  35.8275318  41.6332197  32.8401232
  36.2207723  41.8485785  34.2857957  40.9695101  10.3169560   9.5905232
  41.8540812  10.6791496   9.6413356  40.5471277  10.8138478   8.8898647
  25.1974130  38.3665299  33.3682275  25.7037330  39.1556740  33.5609031
  24.2997527  38.6793470  33.2560515  35.6713247  22.8868985  39.3264604
  36.6172791  23.0232906  39.2735815  35.3439593  23.6567831  39.7915840
  46.6770172  14.0477383  56.3957691  45.8917570  13.6068797  56.0713625
  46.9552565  13.5208929  57.1449375  36.8126035  37.1046042  30.3899336
  37.2013831  37.9780769  30.3437924  37.3815322  36.5601611  29.8457527
  51.2556314  18.7340271  10.0585985  51.6962671  18.7849987   9.2103809
  50.3466558  18.5243285   9.8440808  31.8808174  50.9665775  20.6994796
  32.4581575  51.3173628  20.0213480  32.4633431  50.4772329  21.2803721
  21.2668713  12.6603653  64.2696450  20.7727822  11.8890812  63.9917439
  20.8444031  13.3909704  63.8180175   8.2772136  50.4904366   1.4632681
   7.5835997  49.8360920   1.3797970   9.0408832  50.0834990   1.0540687
  28.2483411  45.2887821   7.4671376  28.9248037  45.9432030   7.6413941
  28.5050416  44.8951578   6.6332340  62.1049915  40.4592250  63.8627335
  62.0643530  41.3992817  64.0384422  62.1871911  40.0572549  64.7275428
  29.9786448  22.9312801  28.5213041  29.4770360  22.8225803  27.7133417
  29.4515800  22.4953389  29.1909242   9.9280262  28.9857340  39.5101285
   9.8719090  29.7683907  40.0583315  10.4519463  29.2580700  38.7567520
   9.5372534  57.1943665   9.2139590  10.0252724  56.8554878   8.4634709
  10.0488758  56.9212437   9.9754578  16.7931104  34.5574474  41.4915228
  15.9736693  34.3603039  41.0377789  17.3016155  33.7488437  41.4297724
  44.3338490  19.1950047  12.5722444  44.3301153  18.2421124  12.6628804
  44.0493679  19.3510580  11.6717172  50.7613420  16.6375911  31.9336176
  51.2733698  16.8058145  32.7246666  50.0332451  16.0920501  32.2310948
  32.9820991  35.4927421  29.0081143  33.5252643  36.1003637  29.5101094
  32.0892549  35.8176970  29.1241479  28.4345768   7.2671802   7.3554415
  27.5658653   7.0420272   7.6884174  28.2907150   8.0464561   6.8185389
  22.7379274  41.9883680  20.1818728  23.5225487  41.5205002  19.8960388
  23.0111003  42.4533653  20.9726858  14.1876602  29.8495555  34.1238475
  13.5905564  29.1348433  33.9027500  13.7312841  30.6404376  33.8366961
  10.2039540  42.4590158  17.1371055  10.1605809  41.6395855  16.6442668
   9.7096294  43.0839586  16.6067111  36.2984252  30.1387811  36.3265443
  35.8078599  30.6188798  36.9936919  36.1668587  30.6427646  35.5234742
  44.1430283  39.8010063  34.6733737  45.0072718  39.9179077  35.0679040
  44.2999697  39.2380452  33.9152980  18.3074498   0.7463498  28.4844017
  19.2213011   0.4664801  28.5371256  18.3053017   1.4328443  27.8173542
  41.6403484  32.2100019   9.9377549  41.2142324  31.5772915   9.3595386
  41.0119104  32.3479199  10.6464660  20.2006745   2.9049096  40.0436735
  19.2491639   3.0064175  40.0200891  20.3461576   2.1391487  40.5992603
  68.8650173   8.7223786  40.8259821  68.3014375   8.6668050  41.5976810
  68.6359900   7.9519528  40.3061533  20.1156354  20.6918502  49.1021824
  19.7880483  19.8524642  49.4252110  21.0486674  20.6830311  49.3157434
   8.1789289  51.9304926  58.4412306   7.3963485  51.4542098  58.7186366
   8.8469301  51.6876717  59.0823566  19.8872153   3.3962733   0.3338542
  19.2254804   3.8993079  -0.1407954  19.5054398   3.2558686   1.2003226
  27.9821420   6.8185514  11.9859588  28.1408215   6.2632298  11.2226307
  28.3177829   7.6779199  11.7308843  18.5497773  41.1242437  17.6740837
  19.2774153  41.0613108  18.2928026  17.8213561  40.6877518  18.1157970
  30.8035493  50.3430271  31.6003680  30.6334257  49.6826601  32.2720861
  29.9347544  50.5990410  31.2907171   3.7701112   3.9099017   0.5814019
   3.6237663   3.4769255  -0.2596371   2.9506671   4.3717003   0.7588426
  37.2748280  31.1570716  40.2647924  37.0695639  30.8104157  41.1330843
  38.2259035  31.0760331  40.1932430  38.9473748  52.6667261  21.0203362
  38.8132954  53.5212135  21.4303350  39.0930343  52.0693064  21.7538929
  41.2655497  26.7105603   3.9805794  41.4618349  26.7199945   3.0437690
  42.1233940  26.7196655   4.4051388  27.8511190  35.7867622  25.3909898
  27.4274540  34.9826384  25.0907850  27.9621983  35.6614995  26.3334346
  53.2163243  70.6972217   3.4008652  52.5975182  70.6188982   2.6747963
  52.9057612  70.0654673   4.0494546  60.1559496  47.3164701   7.3225689
  60.4416323  48.0292940   6.7511642  60.3526783  46.5203142   6.8289495
  26.1934209  30.7267189  32.2966695  26.1045480  30.0846791  31.5923142
  25.2933383  30.9661937  32.5174379  53.5111237  36.9888425   4.2033008
  52.9653025  37.1924186   3.4437847  54.4014740  36.9476962   3.8542774
  37.5663614  50.6616306   8.3150911  36.8866491  50.3703880   8.9228731
  37.2504711  51.5040350   7.9882801  33.9719057  11.9477403  11.6054237
  33.4697032  11.3676250  11.0331559  34.3885183  11.3602841  12.2359478
   9.8228073  13.7259459  41.8303347  10.1616395  13.0766785  41.2139940
   8.9250767  13.8865376  41.5396118  32.3646212  37.4763918  16.1719096
  31.7710638  38.0713534  16.6301024  32.1061492  36.6040850  16.4694047
  28.2354736  41.1020517  29.7585225  27.4738836  40.6772041  30.1531339
  28.9072108  41.0702038  30.4396868  29.1330194  69.2557669   3.7147641
  29.0083003  70.1585150   4.0075430  29.6442604  69.3336725   2.9092854
  11.5202483  74.2638155   5.7381922  11.4085515  73.9604299   4.8372412
  10.8252605  74.9104404   5.8610761  49.8949146   7.8161508  29.1616583
  50.7061052   8.2452637  28.8895130  49.5562840   7.4145573  28.3614802
  24.0778828  27.5924158  51.8795252  23.6515594  27.5118518  51.0263014
  23.5388613  27.0633078  52.4675131  27.0634937   8.8527566  41.1613655
  27.4350548   9.6767479  41.4763451  27.7471828   8.4786677  40.6056166
  31.5425301  21.5327835  25.5226612  31.3808084  22.4124193  25.1816106
  31.9093919  21.6777468  26.3948035  18.8424166  73.8196888  41.9009876
  19.5511778  74.3005379  41.4735842  19.2790898  73.2972090  42.5737143
  42.6598215  16.7232990  17.3164916  43.3865261  16.6629863  17.9365671
  42.9136753  16.1496949  16.5934634   2.0746182  27.3177028  20.1947975
   2.0845352  27.2839665  21.1513519   1.6842692  26.4848542  19.9297988
  60.4781199   9.0048873  41.1239910  59.6210623   8.8011205  41.4983702
  60.5022621   9.9610800  41.0873175  38.0048156   4.2422310   5.6011796
  38.6915493   4.3081048   4.9376357  38.2828975   4.8413557   6.2939656
  31.1860800  48.5299063  19.3291736  32.1278906  48.4021044  19.2156267
  31.1158919  49.2579842  19.9465942  39.2717052  43.0648136  24.3432546
  39.3675447  43.1864643  25.2878428  38.4828329  42.5308657  24.2493534
  74.8912299  55.0202084  40.8153963  74.7755742  55.2463198  39.8925042
  75.4320037  54.2305040  40.8025599  34.0553578  63.2998019  26.6818547
  33.9656552  62.3646312  26.4984393  34.5951184  63.3383208  27.4714160
  47.0008087  39.8160386  35.1406884  47.1221828  39.5588636  34.2267084
  47.1999073  39.0244722  35.6406975  73.8519325  32.6926758  41.3611328
  74.6884729  33.1171086  41.1706411  73.7851479  32.7126124  42.3157918
  13.3690699   7.2230532  49.5206487  13.8893660   7.9379847  49.8872447
  12.6518424   7.1049931  50.1434481  36.7438364  38.7188172  33.9564276
  36.6116858  39.6638489  34.0318131  35.8801103  38.3734393  33.7307668
  30.0693393  27.0004010  20.6479287  29.1859794  26.6837025  20.8366370
  30.5461454  26.8840384  21.4697242  21.0880733  35.7806849  21.5587473
  21.2423253  36.6477823  21.1838078  20.2072191  35.5465412  21.2663341
   0.9872776  51.3827705  14.2637551   1.7320114  51.9638252  14.4185817
   1.2587887  50.8368206  13.5258853   4.7492844  74.4330740  11.1405778
   5.6817395  74.2192507  11.1729980   4.3075806  73.6117411  11.3563061
  30.4843616  49.2049599  16.6726315  30.7196021  48.9056635  17.5508773
  30.4944134  48.4108639  16.1382747  38.2553864  36.1381292  14.8109508
  38.6848044  35.4213381  14.3439996  38.4927249  36.9224453  14.3162262
  49.6363020  71.4817476  38.1144023  49.2847347  70.8236980  37.5147367
  49.6571541  72.2883177  37.5993872  22.8192687  55.4018593  15.3317523
  22.6329160  54.7202110  15.9774029  23.0619526  54.9218607  14.5399570
  27.1932292  44.4733095  23.7947130  26.6686916  45.0507021  24.3494248
  27.6383996  45.0641870  23.1873274  75.9296300  23.8528778  59.4829791
  76.8272926  23.8555004  59.8152840  75.9798100  24.3284085  58.6537706
  40.1593685  43.5554934  16.2259698  39.4233084  43.4557724  16.8297088
  40.9223175  43.6623764  16.7940545  13.5598171  65.2169561  13.8125777
  14.0930045  65.9588432  14.0981317  12.7180529  65.3445101  14.2500639
  31.8550420  22.4170208  37.8301334  32.4196196  21.8599510  37.2942638
  31.9557786  22.0758414  38.7187719  28.5267758  56.1092615  15.6511438
  28.2648277  55.5860186  16.4086616  27.9519367  56.8741560  15.6780612
  38.4744239  41.5845490   0.4195911  38.6790824  40.7924318   0.9164819
  39.3017745  41.8267965   0.0036104  40.5573181   4.5913226  41.9349003
  40.8928792   4.4576080  41.0484695  40.0565664   3.7976939  42.1236849
  78.2073116  64.3209028  55.5838251  79.0857315  64.5961952  55.3214836
  78.3422661  63.4877205  56.0352945  34.5502234  18.7126994  37.2374535
  33.8418746  19.1412234  36.7569923  34.5380139  19.1256356  38.1009150
  48.2732868  49.4268990  42.0402193  47.8143549  49.7148323  42.8293371
  47.5806284  49.0998650  41.4661884  54.2134142  72.0634556  57.5009584
  53.9213419  71.6553736  56.6858578  55.0241041  72.5147963  57.2657728
  74.7839975  42.5424814  14.2928755  74.2375326  42.4233961  13.5160708
  75.4503822  41.8587971  14.2240286  40.6095266  42.1645689   6.6488957
  41.4169788  42.4245834   6.2054467  40.7202721  42.4728537   7.5483000
  54.2437172  69.8307276   6.7520225  55.0681114  70.0283337   7.1965003
  53.5851431  69.8566914   7.4461675  59.1509104  48.1573915  12.0511603
  58.7980604  47.5365114  11.4137948  58.4806967  48.2078981  12.7326989
  34.5205688  58.8621044  13.6780083  34.6587944  59.8092413  13.6851978
  33.6427546  58.7509251  13.3128893  41.8543768  59.3595648  39.5185709
  41.7943382  59.0740871  40.4302359  41.1348152  58.9073801  39.0781164
  23.6789107  56.7965031  33.1147003  22.8058290  56.5105581  32.8460121
  24.1296315  56.9936275  32.2935867  37.1595144  52.0835447  26.9573784
  36.8452907  51.5961266  27.7189016  36.4548731  52.0036983  26.3144636
  44.9572857  10.0329401  44.9696052  44.6844061   9.8257830  44.0758168
  45.2432927   9.1948750  45.3330337  21.2231421  33.4500766  28.2025957
  22.1434736  33.1892252  28.1682658  21.2385702  34.3356276  28.5656261
  22.5752497  28.0675387  31.1438823  22.6002765  28.2011366  30.1963830
  23.4411049  28.3405232  31.4472079  52.6135015  50.0011444   9.9300057
  53.0065918  49.1466093   9.7525710  52.9129887  50.5566359   9.2103088
  40.4499817  51.8209934  30.1477695  40.5991077  52.3655605  30.9207106
  40.3476715  52.4463224  29.4303250  34.4815564  35.0413656   7.3548615
  34.5953536  34.0916705   7.3179680  35.2833724  35.3938484   6.9687545
   9.9323493  59.3221426  37.3908424  10.7929707  59.0209770  37.6821589
   9.5471442  58.5616016  36.9556117  40.5047607  53.8772535  28.4433222
  41.0875320  54.4206619  27.9129243  39.6251726  54.1039848  28.1414199
  47.2016525  53.2427979  37.3743153  48.0867386  52.9062319  37.5142407
  46.9785690  52.9676199  36.4850783  21.0005234   5.8529575   4.1952708
  20.5773256   6.3811691   3.5184258  20.4149054   5.1056392   4.3169394
  22.7603110   5.4664852  61.3278287  23.6788996   5.2341368  61.4636167
  22.5501545   5.1163914  60.4620915  46.4995337  36.6533685  35.0935650
  46.9911671  35.9327722  35.4876089  45.7705498  36.2275100  34.6424961
  22.9567432  33.8675165  20.9165192  22.4363303  34.5781422  21.2912369
  23.7980652  34.2723179  20.7054591  27.4145031  53.0662346   9.4212091
  27.0958161  52.5719404   8.6659974  28.3312535  53.2509327   9.2170393
  78.1229621  43.3430910  23.6999297  78.4140968  44.2541838  23.6627102
  78.1075200  43.0590534  22.7859735  53.0856601  17.3344524  33.4994078
  52.9892794  17.7175433  34.3712974  53.8964383  16.8280418  33.5485911
  47.9638386  38.2112241  33.0132222  48.8410807  37.8879333  32.8078794
  47.5271749  37.4694920  33.4320188  44.9258947  48.5147524  39.1416311
  45.4871559  49.2901182  39.1470432  45.1867056  48.0357695  38.3550024
  45.2277803   9.7026688  42.3811674  45.5377960  10.1602411  41.5996599
  44.3005562   9.9325937  42.4413252  31.1565042  31.1849213  10.7346857
  31.9133639  31.6654873  10.3993499  30.4235315  31.7923307  10.6344962
  38.3126140  54.7737789  27.0120072  37.7314901  54.0188360  26.9193196
  37.7457142  55.5315018  26.8681073  31.7370820  64.6857262  27.5026536
  32.1973801  63.8942051  27.2236300  32.1930361  64.9600410  28.2983232
  15.0461161  63.3700180  34.5656419  15.4336917  62.7127075  35.1435351
  15.0459659  64.1745996  35.0841761  30.3421712  44.2375135  17.2295129
  30.2025938  44.0143585  16.3092124  31.2209082  43.9117908  17.4243367
  42.9479027  50.0303459  32.4401021  43.6106920  49.3779278  32.6665854
  42.1774244  49.5156431  32.1999383  18.0623209  21.5471220  39.8414421
  18.1005168  21.5761495  40.7974386  18.6990380  20.8756590  39.5965767
  14.1583022  24.6143152  61.5950855  13.5112341  25.1799681  61.1736881
  14.9111756  24.6300461  61.0041862  66.7640930  76.0693407  22.0711470
  67.6499361  75.8546734  21.7788601  66.2450427  75.2959776  21.8504095
  61.9522039  22.1948917  11.2970006  61.1033718  21.7549426  11.2505066
  62.5830380  21.5273769  11.0273647  10.6292725  61.8061352  18.2243276
  10.0410414  61.6464233  17.4862838  11.4831114  61.4973688  17.9212570
  71.5038500  36.6720883  66.0281887  71.3471756  37.3230110  66.7122834
  71.7520295  37.1867268  65.2602136  31.9470882  69.7446060  20.1380563
  32.3222351  69.0442276  20.6718826  32.2373796  69.5484781  19.2472720
  60.7427311  71.7755699  23.5182405  60.9312105  71.5554953  24.4305325
  61.3830376  71.2739468  23.0136442  49.7480536  72.7637577  25.1057076
  49.6151972  73.7019539  24.9701715  50.4124069  72.7127504  25.7929254
  45.6407356  58.5311508  40.5338335  45.0118494  59.2525482  40.5517435
  45.4741716  58.0888128  39.7014737   5.9465273   1.7541363  62.4868005
   5.5910047   2.1265938  61.6798850   5.3163203   1.0783913  62.7366766
  17.0530486  67.9633141  33.3016276  16.8711424  68.0364895  32.3647237
  16.2014937  67.7771187  33.6971211  38.5610533  41.0459661  21.7789412
  39.2527485  40.6663227  21.2370396  38.5443497  40.4987049  22.5640869
  39.7405601  38.5810471  34.1454268  39.8692870  39.3632507  33.6089373
  38.8134027  38.3679509  34.0396023  20.1420554  20.0866272  38.8312208
  21.0853871  20.1000836  38.6694395  19.7768219  19.6194651  38.0798232
  39.7168557  16.1430557  32.3561835  39.9501089  15.2236373  32.4846148
  40.3110317  16.4473254  31.6701746  22.5150514  21.2011194  34.2416739
  22.2578883  22.0627642  33.9135504  22.6765728  21.3386965  35.1750612
   9.2554581  46.6440964   7.4944949   9.0055561  46.8914127   6.6042054
   9.6932328  45.7987833   7.3943043  15.9943402  40.8924437   8.2139730
  15.0558114  40.7126665   8.1585139  16.4108276  40.0512409   8.0265015
  32.7553868  64.6206760  30.0907850  33.6491466  64.4532061  29.7918200
  32.7168775  64.2275906  30.9626985  21.5365982  73.4126186  36.4744043
  21.4501905  73.9030457  37.2918677  22.2315168  73.8648701  35.9960842
  33.4000826  56.2086105  35.2065992  33.5651135  56.4822960  34.3043280
  32.5651526  55.7422209  35.1665068  44.7827005  52.0015287  32.7158546
  44.8275471  52.5725222  31.9489193  44.0701818  51.3930655  32.5201130
  34.0533328  36.9903851  31.1330628  34.1941261  37.3270988  32.0179558
  34.9074531  37.0689869  30.7081747  63.7274122  64.0275526  10.8070517
  64.1974545  64.2953968  11.5967023  63.5190153  63.1048965  10.9537256
  53.4438197  11.1592109  14.4928086  54.1124217  11.8133266  14.6961331
  52.8136031  11.2300403  15.2097774   8.5231684   7.9962642  37.7564883
   8.4056995   7.0817668  38.0136633   8.7780903   8.4414680  38.5645962
  72.0517159  63.9846373  41.9399309  71.8093014  64.0174723  41.0145140
  71.6222668  64.7474003  42.3272276   2.1790407  11.9932468  47.7502155
   1.5475557  12.1319396  48.4560680   1.8354557  12.5045116  47.0175648
  11.8896516  31.7027094  63.2775861  12.2127875  32.4846461  62.8299367
  11.1274632  31.4315750  62.7659362  37.1867704  37.6304126  27.0608258
  37.3269701  36.8147230  27.5416827  37.1584487  37.3647547  26.1416650
  12.6188324  14.2789752  31.0295105  11.9906662  13.6016853  30.7786608
  12.5208614  14.3568618  31.9784927  66.3376522  51.1732531  43.4305859
  66.7959976  50.4313517  43.8252163  67.0354891  51.7278337  43.0817366
  13.0205772   5.9787757  29.0035748  13.4813307   5.4092128  29.6196389
  13.1044290   6.8552596  29.3790507  38.9863729  57.6748562  20.9473562
  39.6538615  58.2618618  21.3024807  38.1882739  58.2029963  20.9288812
  64.8560047  48.7487984  45.9220028  65.3055573  48.4182978  45.1442480
  64.6598244  47.9656267  46.4361811  58.7315893  70.1735210  50.0462008
  58.8328505  69.3599606  49.5521355  58.2634020  70.7586861  49.4507122
   3.2272957   3.1667382  15.3887737   2.9840753   4.0208537  15.7459259
   2.5420044   2.9702766  14.7500157  42.4552774  45.0315523  19.7715735
  41.5630722  44.9855518  19.4279373  42.4473095  45.7879066  20.3581691
  14.4274137   2.3422963  21.8754601  14.7881220   2.1862180  21.0026717
  13.4788225   2.3061092  21.7525721  35.4208507  67.8320413   0.4598177
  35.6236877  68.7637715   0.5432594  36.2733163  67.3977189   0.4898298
  73.8933573  74.7436018  52.4397897  73.1517229  74.5356174  51.8715035
  73.6313067  74.4226570  53.3026659  58.1715210   7.5307085  63.0242714
  58.3214863   7.3615124  62.0941555  58.8860710   8.1140997  63.2798367
  29.7349215  64.5755100  10.0143945  29.5947671  65.3388023  10.5747271
  29.0626192  63.9512587  10.2874422  39.9707341  64.9276161  11.0028851
  40.6884146  65.4153776  10.5988359  39.4816518  65.5860138  11.4963853
  11.3558815   8.8772304  26.3337398  11.1897419   9.8085220  26.4797497
  10.9568499   8.4417732  27.0869923   0.6882272  12.9915464  19.3422031
   1.3027149  12.9327834  18.6106408   0.4825497  12.0814633  19.5559287
  55.5295801  64.1839600  28.0887032  55.0026369  64.9395752  28.3487082
  55.4658556  64.1646814  27.1338224  51.3968563  71.2737703   0.8734513
  50.6643534  70.7850695   0.4981632  52.1562099  70.7061863   0.7413012
  34.4012570  43.1977892  28.0118799  35.2290678  43.5882616  27.7317166
  34.1279244  43.7274981  28.7608314  79.0636015  69.5443773   9.6469700
  78.1881094  69.3218422   9.9635452  79.1222954  69.1235256   8.7892586
   3.0852554   6.7951400  18.3029842   2.7712105   5.9049232  18.1444860
   4.0377567   6.7094714  18.3433545  65.9236781  11.3627822  11.0092640
  66.4574138  11.4600188  11.7978728  66.5061227  11.6160304  10.2931225
  45.8670235  68.9424419  32.5856757  45.5695152  69.4901800  31.8592429
  45.9928083  68.0767775  32.1970415  15.9193569  46.7980194  43.1218290
  16.8409210  46.5565634  43.2149124  15.6872708  47.1868229  43.9651537
  76.4531374  56.0386992  47.6320839  75.9551620  56.1590767  48.4406376
  76.4428997  55.0932360  47.4829960  76.4245311   4.1717918  11.7537522
  75.5055467   4.4362647  11.7118418  76.9081585   4.9954135  11.8168342
  50.5546284  69.4393015  34.0473199  51.2927532  69.8979235  34.4486570
  50.2815866  68.8016415  34.7069192  77.4158565  17.7992732  28.7384868
  78.1548444  17.4116523  29.2073965  76.9815103  18.3503158  29.3895864
  55.0679207  25.9805512   2.4496627  55.6975031  25.8401728   1.7424461
  54.2704248  25.5437565   2.1505885  49.7066879  65.7732677  32.5014305
  50.6607914  65.8399630  32.4631453  49.5247841  64.8469925  32.3428321
  20.4166897   6.4554264  62.3874828  21.2192591   6.0723927  62.0333659
  20.0692519   6.9876625  61.6717696  48.9935589  56.6913891  34.5433521
  49.6305180  57.3319912  34.2268991  49.4418716  56.2414980  35.2594829
  74.3327808  51.7921019  31.7212772  73.4760904  51.4154148  31.9223261
  74.8864079  51.0365057  31.5243006  71.4646045  14.0249831  20.5031085
  72.0472995  14.0857131  19.7461367  71.5554945  14.8698623  20.9437227
  44.5702410  43.0383635  35.1691246  44.1486311  42.2189569  34.9101758
  43.9405012  43.4566259  35.7562494  78.4158850  74.2577314  20.7606173
  78.5405445  75.1864004  20.5650115  77.6192188  74.2294025  21.2904739
  21.5731428   1.7238195  45.9058666  21.3306854   0.7978446  45.9022236
  22.5229023   1.7231948  45.7867670  50.6699753  58.7354088  12.8889263
  50.0584602  59.4642210  12.7835393  50.9819174  58.5543680  12.0022762
  62.1554605  32.3268993  15.4951251  62.6951496  31.5363891  15.4881644
  62.7157370  32.9959590  15.8884346   4.8089749  68.1919098  15.7342768
   5.5112225  68.3572960  16.3633502   5.2629525  67.9649305  14.9227262
   1.5333039  45.3639793  30.5625772   1.9816738  46.1323357  30.2092671
   2.1859223  44.9415827  31.1210680  33.0060148  61.0122442  26.4486933
  32.8012466  60.8610392  25.5259585  32.8322315  60.1721954  26.8733692
  69.6519423  74.1452837  37.8503156  69.2387533  74.8656559  37.3743248
  68.9420176  73.7584257  38.3627415  50.9306288  56.6058969   6.3342518
  50.8376312  55.6961441   6.0515237  51.2304020  57.0701504   5.5526906
  28.7608910  54.6806049  20.3432703  29.2364264  53.9476395  20.7342482
  27.8885865  54.6363449  20.7348824  11.2080532  46.7210388   2.5686395
  11.1738640  47.3763037   3.2655543  11.9571263  46.9807148   2.0322686
  50.0151889   2.9510267  27.6735711  50.5846683   2.2950895  27.2714829
  49.5197956   3.3189924  26.9418478  58.1430912  67.6360798  40.7690763
  58.2103586  66.9362736  41.4186764  57.6715326  67.2387600  40.0369549
  41.0080385  65.6402349  14.4032872  40.0836849  65.7380438  14.6318316
  41.4777136  65.8469677  15.2113092  49.3653011  53.9831448  19.0600395
  48.8443565  54.7850847  19.1017604  48.8329315  53.3279610  19.5112002
  46.8200207  61.8742466   1.3245986  46.5223122  61.3247252   2.0496023
  46.1320591  62.5322294   1.2246092  67.0067112  22.4304301  16.4300752
  66.0976593  22.7279956  16.4663184  66.9585601  21.4911754  16.6081309
  41.9662571  51.1001635  34.9787641  42.7837181  50.6163645  35.0968027
  41.9898129  51.3914490  34.0672660  43.2732630  52.9835176  37.1318340
  42.4745035  53.2126808  36.6567516  42.9913616  52.3323202  37.7742529
  56.6412306  67.2056913  26.3491535  57.4120903  67.7596998  26.4719629
  56.3178682  67.0452833  27.2356844  43.5924768  73.7887335  23.2799554
  44.5223618  73.6577702  23.4654140  43.5106707  73.6273813  22.3400068
  47.5637341  43.4764051  21.6029072  47.6035452  42.5896311  21.2447572
  46.6472435  43.5925961  21.8534684  67.5046730  54.8398399   6.4884979
  68.1855726  55.5124998   6.5002680  67.5473928  54.4405699   7.3573983
  10.6727910  46.5152836  45.1839972  10.0314760  46.8020248  45.8341742
  10.6001770  47.1564531  44.4769907   2.1856497   5.8454997  14.5689440
   2.5370119   5.1161105  14.0582907   1.2455461   5.8327205  14.3893003
  23.4615992   5.1312835  16.0649753  24.1889809   4.5328433  16.2353265
  23.0242966   4.7641666  15.2967167   6.5852688   8.3573348  16.5001428
   6.4721821   7.4128253  16.3935995   6.4451073   8.5114581  17.4343967
  49.1340645  27.2475769  65.0220292  48.2209690  27.4771645  64.8494648
  49.6398409  27.9363062  64.5906679  40.9965134  48.1511879  35.7516575
  40.2005672  48.2005978  35.2222610  41.6555166  48.6175680  35.2374268
  63.2076597  70.0529003   2.6451865  63.1531429  69.1564465   2.3140875
  63.1128645  69.9641418   3.5935360  36.6906975  20.2926643  27.7004790
  36.8659161  20.9591205  28.3648252  37.2485779  19.5552737  27.9479885
  43.2937908  37.6542926  32.3960400  42.6902103  38.3629155  32.1729326
  42.8703737  37.1993065  33.1240082  74.1910601  66.2719297  38.3648062
  74.2923117  65.3331137  38.2079434  73.3547497  66.3492155  38.8239813
  76.3148451  33.8231230  40.7518148  77.0972013  34.3354869  40.9558725
  76.4229298  33.5764527  39.8332834  57.6281023  51.1166573  11.5919065
  57.0247078  51.8405819  11.4243281  57.0600557  50.3736782  11.7957139
  11.4636856  75.2291107  40.8283567  11.3076454  76.1458826  40.6016207
  12.2233540  75.2522516  41.4102459  45.9174347  75.6711864   6.7997259
  46.2563038  76.2091541   7.5152612  45.8482599  76.2736511   6.0591274
  73.8645315  58.8610220  37.2672486  73.0668974  58.8332701  37.7956820
  73.6801863  58.2855177  36.5249228  26.6498017  64.6589184  26.0173082
  25.9232569  64.0782213  25.7911325  26.6487741  65.3233671  25.3282976
  81.0067155  10.4316904  56.4253568  81.7365052  10.9571030  56.0973608
  80.3873303  10.4004957  55.6962335  79.1907454  57.3343611  57.1238852
  79.5658350  56.6048145  56.6306305  78.8624048  56.9351101  57.9295063
   3.4429795  75.9421968   5.8824784   3.7130791  75.1095057   5.4953015
   3.1554371  75.7132959   6.7663068  70.3735638  76.3042021  11.2174869
  70.7381296  75.4513693  11.4541197  71.0811234  76.9243479  11.3935769
  35.7370687  74.8891830  14.4486070  35.7257104  74.9057817  15.4055953
  35.3266025  75.7142878  14.1898620  78.9016096  14.5208270  44.6335363
  79.4495622  14.1341979  43.9505339  78.7882082  13.8196285  45.2751637
  46.8364952   9.9099452  15.5826998  46.9163273  10.8602340  15.6652570
  47.3213814   9.6972282  14.7852850  63.2216501  30.2404809   3.9760920
  63.5791397  29.9442053   3.1390408  62.7134895  29.4953513   4.2966986
  35.6821704  56.4462519  19.8022890  36.2109041  55.6525183  19.8838890
  35.9024239  56.9615841  20.5782747  11.4455001  66.4854879  51.4402842
  12.2688119  66.3342257  50.9760487  10.7904784  66.0132093  50.9263491
  42.2368858   1.4147956  37.4057889  41.9565151   2.0368535  36.7344737
  41.6070507   1.5301997  38.1172824  46.3018370  53.9276791  13.9740634
  46.8288660  53.2473040  13.5550618  46.7954493  54.7351885  13.8308704
  51.2456465  59.9028778  30.1681542  50.8076715  60.5333567  29.5963979
  51.7058611  60.4421663  30.8112741   1.9480854  58.3396959  29.6516490
   2.5019509  57.9343939  28.9844155   1.7922264  57.6428843  30.2891374
  48.5010052  48.0872250  21.4804769  48.4298754  48.7428522  22.1742535
  47.8557968  47.4199867  21.7144179  70.3843403  55.7752323  23.5725164
  69.7911978  56.3721848  24.0286469  69.9209738  54.9377108  23.5634351
   9.4883861  33.7292056  10.2806843   9.9531903  34.0538745  11.0519064
   9.1301074  34.5152764   9.8684252  42.8128004  44.0364075  37.2214413
  42.6949739  44.9782228  37.3452926  42.4782753  43.6450195  38.0283761
  24.8531586  66.0307741   1.0678022  24.8467404  66.2997484   1.9864115
  25.7412487  66.2244081   0.7677403   5.1373132  44.8336603  64.9940556
   4.5366891  45.5605509  65.1587367   5.8231648  44.9354746  65.6539610
  77.5539915  10.4245860  20.1218343  77.2311203   9.5337875  20.2577305
  77.0220701  10.9640033  20.7069182   9.9764115  71.0323048  36.9966650
  10.0323445  71.8529940  37.4861288  10.1124245  71.2878323  36.0842848
  50.1495687  20.2972038  21.8447542  50.1099984  20.5599220  22.7643418
  49.2379395  20.3080375  21.5531230  32.3829794  74.1183233  32.9189372
  32.4365139  75.0735903  32.9477429  31.6326070  73.9036703  33.4731007
  57.5416183  63.6729908  38.6896443  56.8980885  63.8810778  38.0122948
  58.1350374  64.4240284  38.6950517   4.0268856  74.0629673  30.2231956
   3.2970005  74.5579338  29.8510337   3.8629395  74.0670824  31.1662412
  24.8921726   6.6780765  35.1098514  24.2436502   7.1775062  34.6136451
  25.7121990   7.1543033  34.9794602  78.2519770  53.3573389  62.0619774
  78.5523272  53.2137108  62.9594135  78.6588764  54.1840267  61.8026400
  34.8496318  48.7740564  33.0500746  35.2672601  48.3099604  33.7756324
  34.4164085  48.0868101  32.5438690   9.3605516   0.1368959  42.2088432
   8.7968109  -0.2965634  42.8495836   9.8715637   0.7617194  42.7233267
  79.4415760  30.7051110  40.7465029  78.5699368  30.7394123  41.1405849
  79.8889637  30.0008178  41.2155914  66.7495966  54.3833113  18.3539689
  66.3998938  54.3548012  17.4633920  66.3729239  53.6155081  18.7838864
  41.1282063  60.1180410  21.7231989  41.0678911  61.0071850  21.3738894
  40.7772493  60.1852465  22.6111984  40.5970287  70.7293320  44.1678858
  41.5507698  70.6801081  44.2325497  40.2881098  69.9104071  44.5553923
  60.9063816  56.4719296   6.4917320  60.8968353  56.2963629   7.4326456
  60.0049448  56.7187071   6.2849760  22.0901299  39.5576048  48.8835001
  23.0412126  39.6506715  48.9383888  21.7518878  40.4288340  49.0903378
  67.0903579  35.8274944  28.7316728  67.0411770  35.1809509  29.4357991
  67.9826585  35.7471759  28.3946538  27.7170038  75.7262754  21.4243603
  28.4818101  75.9128428  21.9688725  28.0391669  75.7989073  20.5259347
  62.4291897  58.4936428  -0.3314321  63.2468414  58.5941792   0.1559731
  61.7835236  58.2495022   0.3317015  72.6857042  76.3052702  21.9700599
  73.1162453  76.0841703  22.7958822  71.9866180  76.9099474  22.2188067
  67.3595905  69.1409254  30.6573725  67.8046703  68.4521484  30.1636887
  66.5691090  69.3263292  30.1504254  32.6348233  37.3628998  26.1356640
  32.2828269  38.1932688  25.8150101  33.0267835  36.9548225  25.3636074
  24.3892050  63.3852482  25.0448251  23.7256265  62.7036238  25.1510572
  23.9668655  64.0474892  24.4977427  41.6177177  54.3221998  14.9332309
  41.2004614  53.8041592  14.2449224  42.1319580  53.6875439  15.4322314
  73.2792004  23.9815142  57.6435846  73.4630688  24.1564753  58.5665231
  73.3816632  23.0340054  57.5543832  46.9034100  62.2095251  26.1811495
  46.3869238  62.2755718  26.9843388  46.3141203  61.7951727  25.5508471
  73.6069727  66.0009003  46.8329525  73.5932398  65.1879358  46.3278437
  74.4516420  66.3991737  46.6228580  72.0453119  49.9528074  32.3129225
  71.2483740  49.6973276  31.8483257  72.3187399  49.1595459  32.7735829
   4.0408943  15.0654704  45.8627176   4.0293119  15.6089694  45.0748682
   4.2056177  15.6817062  46.5764046   7.9287908   6.0287482   3.9111182
   8.8084219   6.1414344   3.5508716   7.9435251   5.1594646   4.3115768
  37.4353433  63.6671877  17.8759885  37.2096229  63.2929993  18.7276137
  37.8582001  62.9499722  17.4037313  56.0330296  66.2494898  24.0164042
  56.3363457  66.5350389  24.8781991  55.0832033  66.3641310  24.0466881
  14.0688751   0.1464946  50.4989624  14.5828770   0.9372909  50.6623030
  13.3083914   0.2321298  51.0739040  43.8648367  59.5443296  22.7353406
  43.9483070  58.9021540  23.4402347  43.2723284  60.2092838  23.0860543
  62.3544312  47.3716879  30.9957719  62.8184795  47.0907354  30.2071309
  62.9006577  48.0684233  31.3596749  34.0502310  61.0768700  31.6103244
  33.6746788  60.3407288  32.0933223  34.9742842  60.8493567  31.5073991
   5.6612450  61.4347744  44.8683500   5.3714711  62.3105907  44.6129847
   5.3964478  60.8730173  44.1399670  35.3503776  65.6771421  13.8486469
  35.5129385  65.4397249  14.7615755  35.9346604  65.1096249  13.3458889
  38.8959146  34.8237348  25.6702971  38.3955836  35.4038429  25.0963879
  39.7646856  35.2229667  25.7159257  48.1723452  59.4420910  40.0963402
  47.4410391  59.0619326  40.5830669  48.1727314  58.9748240  39.2609406
  20.5751703   4.8279865  37.8951788  20.9152792   4.2853362  38.6065769
  19.6326158   4.6611984  37.8963017  29.2715786  26.4203937  25.3647137
  29.3305920  25.5385501  24.9971676  28.4221218  26.7471130  25.0682092
   2.1133000  68.3533859  58.3114815   2.3983151  67.6180840  58.8540077
   2.7353054  69.0531778  58.5105896  46.7367554  73.9626837  27.0632815
  46.6025496  73.0345345  26.8715525  46.8459558  74.3712807  26.2045884
  50.1736736  63.6883736  38.0661726  50.3572083  64.2528343  38.8171244
  50.7119083  64.0463877  37.3602271  21.0031889   8.1901557  28.9089918
  21.3163326   8.7937553  29.5826745  21.6964052   7.5343711  28.8340235
  50.5460310  59.7639179  18.6450958  50.4504967  60.4977131  19.2522633
  50.1073742  60.0556564  17.8459060  55.7699537  75.1908922  60.4845810
  55.8675671  76.0905743  60.7964706  55.1482773  74.7923803  61.0936356
  31.1652541  50.2227402  23.6263537  31.3693595  50.9152937  24.2547965
  32.0036101  49.7890949  23.4671474  33.6636186  43.0485487   7.4377459
  33.6335993  42.7528238   8.3476228  34.3235016  42.4905205   7.0261770
  38.5317087  75.9320021  21.0160136  39.4534349  75.6991243  20.9045696
  38.2470226  76.2067986  20.1444221  57.7139187  48.4270668  32.6349425
  58.2439709  48.1162310  31.9010115  56.9456291  48.8238382  32.2244072
  23.7252520  16.6896636  25.7173705  22.8505228  16.3052184  25.6600618
  24.2772720  16.1078651  25.1948595  61.2654177  26.4582069  -0.1349322
  61.1794297  25.8919246   0.6319835  60.3689400  26.5715224  -0.4507189
  59.2700235  16.9913394   4.9648508  58.6983935  16.2347610   4.8342150
  59.6413438  16.8630988   5.8377242  17.7745541  51.7268660  61.4768946
  17.1594580  50.9954455  61.5308302  17.3507317  52.3534777  60.8904063
  38.1018170  55.8176043  65.3062740  38.1663521  54.8740294  65.4536995
  38.5133227  56.2090971  66.0767453  56.0132170  74.5541763  12.9518175
  55.4509020  73.7817669  13.0103326  56.5546608  74.3981981  12.1780348
  31.1906862  20.4124713  21.3265824  30.5189872  20.2397728  21.9863033
  31.5089822  21.2912393  21.5331864  46.0181522  50.9967661  38.5118437
  46.3577604  51.8140125  38.1471348  45.2689695  51.2649727  39.0438390
  56.7728996  51.6340971  29.8247266  55.9512997  52.1012688  29.9762368
  56.6099215  50.7500696  30.1536059  59.4642830  61.0770941  44.5022392
  59.7684479  61.9701862  44.3406582  59.5475817  60.6388044  43.6553669
   3.5927922  65.8353472  53.7346840   3.0942971  66.2354708  54.4471741
   3.2307869  66.2268734  52.9397678   4.1939503  48.0179548  34.0284538
   4.1330200  47.0812941  34.2160416   3.4714848  48.4082270  34.5203543
  53.9004425  24.3670180  62.4722158  54.2119183  24.6200993  63.3412182
  54.2822131  23.5019400  62.3234960  34.2019725  68.2607937  27.3458719
  34.8769236  68.7875032  26.9177938  33.4261656  68.8214636  27.3480654
  19.1169737  31.7113788  38.4231019  18.9836452  31.5826328  37.4840164
  19.4718883  30.8774955  38.7311649  54.6695423  54.6991205  15.8736873
  55.5833435  54.5432758  16.1122441  54.6125746  54.4318962  14.9563122
  31.8130112  41.7105293  19.3703663  32.3086476  42.2837353  18.7855458
  31.3426471  42.3091984  19.9505270   6.6184423   1.9178588  21.6933846
   6.4576290   1.1208207  22.1984577   6.1606644   2.6048619  22.1778440
  43.7944655   9.6033485   3.0139041  42.8906004   9.3436153   2.8355783
  44.0790097  10.0451286   2.2138414   7.0324093  54.4764614  35.2605557
   7.5562340  53.9819813  35.8908939   7.0887047  53.9682436  34.4513750
  70.6260681  75.7562733  57.3509550  70.3444147  75.0350332  56.7881823
  70.0361109  75.7171583  58.1037188  78.0178825  11.5717799  17.7173698
  77.9260008  11.2493522  18.6139345  78.2697050  12.4898059  17.8176129
  44.9396086  53.7390184  17.6901734  44.8193455  52.8256035  17.4304688
  44.8198462  53.7357664  18.6398458  47.9870796  54.3834591  16.4511061
  48.1831741  53.4971857  16.7549109  47.1477175  54.3012428  15.9984004
  67.1108150  58.8164806  20.4527497  66.5240574  59.4075441  19.9809551
  66.8504906  57.9411745  20.1658654  80.2541439   7.0238693  42.4614811
  81.0789482   6.8926437  42.9291391  79.5987217   7.1157939  43.1530046
  72.9748384   0.7168824  23.2581115  72.0340864   0.6533200  23.0932784
  73.1993333  -0.1092475  23.6862993  64.4710493  76.4996576   9.2110091
  64.1533852  77.1522522   9.8350626  64.2726088  75.6584263   9.6223277
  36.1104178  52.5511074  37.0578909  35.8737731  52.8504467  36.1800385
  36.5275550  51.7012119  36.9167948   6.7540985  38.6539268   8.7480336
   7.1466595  38.1792808   8.0153376   6.2143475  39.3279958   8.3350837
  33.3555553   0.2531249  24.9919224  32.9379604   1.0750825  24.7345638
  34.2902229   0.4577310  25.0196099  70.4880476  70.4642105  39.3263435
  71.4269304  70.6290293  39.2393541  70.1450109  70.5582952  38.4376907
  10.7152174  45.3298576  34.7438192  10.9219120  45.1939971  33.8191271
  10.3940819  44.4798667  35.0448513   9.2424200   6.2943656   9.8369479
  10.0438974   5.8100040   9.6388257   8.7340115   6.2578208   9.0267527
  10.9387755  31.7537403  35.2880096  11.3125587  31.1582541  35.9375596
   9.9945849  31.6065621  35.3434634  41.1052227  53.1048727  32.4669170
  40.6939268  53.3656931  33.2909536  41.9876766  53.4728575  32.5126767
  14.7370432  23.6135871  46.5074921  15.5525682  24.1030700  46.6150188
  14.7617910  23.3027847  45.6024933  34.1627930   3.9915950   9.1876203
  34.4958351   4.8854549   9.1080129  34.7629497   3.4645278   8.6601341
   1.0587833   8.1056792  40.6868792   1.5715931   7.3153598  40.5175829
   0.2628897   7.7879817  41.1133289  74.8542539   9.1573531  44.4119263
  75.5175630   9.3992431  45.0582552  74.3701498   9.9672706  44.2509270
  36.0490704  73.1867933  21.6479874  35.3563452  73.0330706  21.0055447
  36.3808918  74.0597773  21.4381671  48.5884619  63.5222673  30.9306526
  49.5009947  63.3951378  30.6711245  48.5175323  63.0846453  31.7789960
  21.6532133  31.8628795  41.3433075  22.4497841  31.8378265  41.8734741
  21.6099976  30.9982402  40.9349489  -0.2296871   3.5969716  42.3308849
  -0.3803962   4.3076056  41.7075729   0.7067066   3.6424136  42.5240946
   7.6992176   6.5279300  12.0087278   8.3728979   6.7261226  12.6591957
   8.1812475   6.4261729  11.1880445  27.2048519   2.3307950   7.4386281
  27.8984974   2.9886443   7.4867433  27.3503731   1.8900830   6.6014719
   2.8632599  44.8975182  27.1787834   3.0868584  43.9970684  26.9433475
   3.7044865  45.3094578  27.3759580  42.3090591  33.8334661   0.9950340
  43.1315937  33.3439498   1.0014284  41.6422262  33.1842618   1.2188709
  52.8115845  61.4461374  28.0866480  53.0138111  60.5875683  27.7148938
  52.9656315  61.3428402  29.0257072   7.0191286   2.4721200  25.5259418
   7.7849386   2.2620780  26.0604000   6.2908552   2.4883754  26.1468983
  63.1063509  48.9496279   5.7381785  63.8019896  49.5583820   5.4897153
  62.3148298  49.4873428   5.7622701  39.4153047  72.5660610  28.9908457
  39.7912526  72.4615097  29.8648953  39.2249298  73.5016298  28.9223361
  13.6103294   8.2963855  24.5041752  14.3665216   8.8589866  24.6711826
  13.0742786   8.3751495  25.2932763  65.0935793  44.1286993  20.7756495
  64.9790764  43.4817362  20.0795460  64.6621323  43.7404585  21.5368009
  47.4327660  75.2356195  10.1454854  47.3176622  75.8861160   9.4527799
  48.3310747  75.3657341  10.4493642   4.2287213  65.6805992  29.5598960
   4.6641308  65.9653568  28.7564278   4.5615822  66.2717724  30.2351356
  77.3463194  26.6096790  42.6949406  77.9678098  25.8950336  42.8337240
  77.7073852  27.1012122  41.9571972  54.5468513  24.6169193  11.9098067
  55.0733844  24.6640498  11.1118245  55.1848499  24.4790275  12.6099312
  55.3799216   5.9976871  38.7595677  54.6903865   6.6099841  38.5029149
  55.5792872   6.2281329  39.6669698  76.9222252  11.9407184   0.3279101
  77.1131508  12.6987846  -0.2244578  76.0189096  11.7087562   0.1123847
  43.0600691  63.3820820  30.0453019  43.2131052  63.8076448  30.8889294
  43.8412285  63.5836792  29.5301485  39.5300627  50.1217461  28.2058477
  38.5937905  50.1423740  28.4038424  39.9551320  50.3400326  29.0352440
  24.7770347  15.0705962  23.5017765  25.6236877  15.4375606  23.2472981
  24.8229827  14.1531758  23.2325924  76.2453222  60.7798529  21.7522955
  75.8738470  59.9767828  22.1174312  75.4920769  61.3572645  21.6280365
  29.6765000  70.6757021  18.8224697  30.4925209  70.3951788  19.2367554
  29.4092518  69.9273872  18.2887673  67.4232531  67.6805830  37.3718786
  67.3364449  67.5476217  38.3158159  66.7231178  68.2948399  37.1511340
   5.2088410  50.4750633  26.8846321   5.0891739  50.7767010  27.7851462
   4.3295056  50.2326822  26.5943789  68.9912836  13.3620746  11.5496564
  69.5456783  14.1271121  11.3960600  69.5969001  12.6209266  11.5366912
  68.7495947  73.1335926  18.1733501  68.3753538  73.8335943  17.6383984
  67.9907417  72.6897430  18.5519981  68.4780741  30.4043555  28.8322020
  68.5149288  29.8397541  28.0601263  68.9391518  31.2007475  28.5687685
  80.9540407   5.7549484  36.5152502  81.8765203   6.0072906  36.5550327
  80.7531301   5.7283694  35.5797482   4.0742443   1.7698819  20.3684497
   3.9348600   1.5347297  19.4511151   5.0250147   1.7537315  20.4780459
  70.0733519  74.2117929   1.5056825  69.6528816  74.8688793   2.0603600
  69.6013403  73.4009027   1.6951524  62.1198845  64.4513416  20.9248447
  62.5822926  64.7792435  20.1535511  61.5747404  63.7383509  20.5921388
  15.0042206  50.3117847  19.9924052  14.7051102  49.7412634  20.7004070
  15.9248787  50.4800844  20.1931691  79.4549028   2.3697669   7.6905531
  78.8077966   3.0414445   7.9058254  79.3310968   2.2089727   6.7551130
  11.4515112  23.9939601   2.4746500  10.7500456  23.3569820   2.6104367
  12.0529650  23.5622031   1.8679628  40.4629223   2.1301181  25.2625751
  39.5213572   2.1192796  25.4345345  40.5621211   1.6472299  24.4420815
  53.3389441  42.4835689  16.0094070  53.3010737  42.5496013  16.9635749
  53.3287326  43.3913238  15.7059085  71.7232895  71.8093109  19.8682964
  71.9652414  72.1769857  20.7183003  70.8155870  71.5264797  19.9792933
  55.5758524  66.4110613  19.6002817  55.7401466  65.4719448  19.6857333
  54.6954823  66.4673615  19.2287838  76.5490905   1.8739135  56.6026354
  77.3450796   1.3663537  56.4444685  76.1571495   1.4697082  57.3767376
   7.2852323  14.5756538  41.0274744   6.5312145  14.6043975  41.6164207
   6.9339559  14.2342288  40.2051210  37.1171806  15.3462798  47.7782726
  38.0348633  15.5357654  47.9736519  36.6753433  15.4025848  48.6255312
  57.7693129  72.9859877  29.9029779  57.6399136  73.7824774  29.3881106
  58.6365747  73.0918074  30.2939963  69.6629431  33.4234907  54.3694734
  68.7283601  33.5594465  54.5253670  70.0913741  34.1326334  54.8488426
  42.3545456  75.9014511  35.4802561  43.1717682  75.4301548  35.6422925
  42.5712252  76.8195200  35.6428409  48.6325922  72.5627904  11.5045918
  48.1019058  73.2284074  11.0669220  48.1218280  72.3186593  12.2764385
  70.4738275  19.5361335  17.4461281  70.6698791  18.8249881  18.0561030
  69.8139230  19.1710002  16.8566859  58.1254959  53.2178593  40.2503777
  57.2089100  53.3243084  40.5048752  58.0913782  52.9938221  39.3203902
  70.2498055  46.9198036  26.1115766  70.5938959  46.1083794  26.4849710
  69.3414736  46.7150402  25.8896661  67.8505564  69.8900652  24.1270208
  67.8682947  70.6446552  24.7156739  68.0405998  70.2557373  23.2630777
  74.2860556  49.0758944  26.9733906  74.8451614  49.2593718  26.2184262
  73.7337875  49.8532295  27.0569801   9.5283935   3.8028915  33.2504320
   9.9028156   4.0146739  34.1055274   9.3233297   2.8694160  33.3033061
  37.7157829  16.6111572  27.0721531  36.9650696  17.0459945  26.6676974
  37.9794357  17.1982009  27.7807474  19.3251083  14.3116958  25.0971150
  19.2980669  14.5306689  26.0285401  18.4715507  14.5859058  24.7617292
  31.4677419  43.1441026  12.3941601  31.6677227  42.3311810  11.9300497
  30.7514705  43.5354047  11.8940962  60.6262255  68.3336544  39.1291404
  60.9020805  67.8413868  39.9023199  60.3791285  69.1939020  39.4684815
  69.2898027  18.7505824  42.1897888  70.0153677  18.1565578  42.3819351
  69.7053568  19.6038444  42.0653343  68.9039755  45.8405161  33.1250787
  69.1995192  45.7601976  34.0319586  69.4412136  45.2129269  32.6416111
  65.2622787  18.1494052   7.6238233  65.2323596  17.5072391   6.9146264
  65.6771819  18.9184959   7.2331929  77.0546007  70.7615137  17.8989553
  77.7266455  71.2679911  17.4428117  76.2974024  71.3459682  17.9349256
   6.5822504   4.9370296  21.4194226   6.2717483   4.5571716  22.2413254
   7.2268293   5.5922038  21.6868019  72.9866401   6.3838393  15.9933114
  73.2149307   6.0410125  16.8573594  72.5463001   5.6554897  15.5553246
  71.3996689  10.1088721   8.5238522  72.2544042   9.6832092   8.5907042
  71.1400406  10.2686412   9.4312114  73.9914370  72.7884531  25.8526349
  74.0029335  71.8313503  25.8597422  73.6958551  73.0309534  26.7301655
  16.4693123  35.1712227   6.9649088  16.6250664  34.4901037   7.6191640
  17.1520764  35.0333047   6.3083732  24.0495871  16.9231899  30.5607271
  23.7136839  16.0459621  30.3766870  23.2693241  17.4426276  30.7546401
  15.0922535   7.4676234  33.0731511  14.9071024   8.3979137  33.2016420
  15.7600019   7.4487693  32.3875928  80.9724418  14.0038116  33.4254670
  80.9036152  13.0557925  33.3125973  81.0792677  14.1255672  34.3688631
  67.5688314  59.1446638  34.4249177  67.3038340  59.1613674  33.5052824
  66.9871807  58.5014582  34.8301339  67.5900888  73.7075615  52.6383400
  67.8996897  72.9860020  52.0908594  68.3647346  74.2524767  52.7769804
  25.6540916   8.2385165  22.0983434  24.8144243   7.9820258  21.7170262
  25.4388140   8.5110099  22.9903293  18.8631199  11.5831287   6.6777492
  18.5349701  10.7271011   6.4024931  19.7171734  11.6603095   6.2524682
  70.9890938  52.2219515  47.8844500  70.9010029  51.3166332  47.5863314
  71.0729885  52.7322578  47.0789814  47.0454262   2.0085151  61.5901899
  47.6835583   1.7434938  62.2525978  47.5729034   2.3909242  60.8889341
  52.3719692  55.0307846  38.8313484  52.7356243  54.4831514  39.5271063
  52.3440218  55.9100866  39.2085457  62.2348404  70.5060244  42.5641918
  62.3228455  69.7271967  42.0147324  62.9141426  70.4065847  43.2311964
  32.9518658  63.0550432  13.9262998  32.5727707  63.8498211  13.5510075
  32.2405773  62.6684999  14.4370711   1.2876509  11.5683658  43.4179306
   1.0365150  10.8154876  43.9530325   1.1871813  12.3208053  44.0010023
  54.6672718  13.4278304  15.4956293  54.3029038  13.4944160  16.3782585
  55.2986161  14.1453178  15.4423821  42.5584364  69.1463757  64.2279482
  41.8549061  69.3568993  64.8419094  42.2524977  68.3617306  63.7730074
  75.8733598  37.3790176  39.5111346  76.5610401  36.7180068  39.5910406
  75.8360664  37.5738532  38.5747147  71.6804028  50.7778358  38.9544249
  71.9425774  51.5725517  39.4191027  72.4646759  50.5110073  38.4748960
  60.3149356  29.6429114   2.6091278  60.7555713  28.9494472   3.1002176
  60.2117958  30.3550200   3.2403887   0.6426770  64.7534418  15.0759435
   0.9317929  63.8706255  14.8451221   1.2695748  65.3319693  14.6417260
  73.8904381  48.1351137   9.6200937  74.4561100  48.6838198  10.1633894
  73.7378788  48.6555386   8.8313490   6.6284615  57.4527454  22.6208043
   6.6570812  57.4481630  21.6640449   6.5999085  58.3803797  22.8551292
   7.1099613  22.8010757  20.0492406   7.9407833  23.2543571  20.1924443
   6.5351484  23.4677036  19.6731675  35.6519659  20.5424359  60.2030134
  34.7566279  20.6624224  60.5195683  36.0415085  19.9195673  60.8166301
  61.2186058   8.9059307  56.2471556  60.9850319   8.6153652  55.3655374
  62.0111950   9.4285300  56.1249792   0.6662136  66.0439730  64.5080137
  -0.2734512  66.1382627  64.3519020   0.9986836  66.9415283  64.5174980
  74.4190351  23.1955726  22.5059986  74.8384182  23.8974673  23.0036950
  75.0726263  22.9399879  21.8550539  47.3646021  69.5552826  28.9477301
  48.0707216  69.9079990  28.4062386  47.8104639  69.0181255  29.6026397
  16.4174555   3.9969165  28.3945274  15.9290073   4.7731216  28.1203794
  16.7882679   3.6485488  27.5837469  57.7951527  75.9548950  38.8420582
  57.5414515  75.0525665  39.0361357  57.0640612  76.4833736  39.1621327
  47.0205543   0.3417880  36.2831783  47.7896450   0.5779369  35.7645583
  46.3204143   0.8968026  35.9396791  81.1469746  54.8183393  20.0651121
  81.6689110  55.3203869  19.4392085  80.8353233  55.4694176  20.6937623
  52.7187586  63.0290270  41.1385250  52.9680014  63.1963253  40.2296114
  53.3105564  62.3333693  41.4249992  22.2328766  39.8686650  56.4857304
  21.8411072  40.2949955  55.7235038  21.8319805  38.9997103  56.5065288
  25.9541843  14.2167957  32.6435995  25.0139044  14.0397651  32.6713777
  26.0472343  15.0806148  33.0453253  66.7958879  55.0072241  64.4855833
  67.5317717  55.5949211  64.3143559  66.0802078  55.5883169  64.7431946
  60.1698772   3.4574229  22.7461386  60.6230609   4.2721278  22.5290918
  59.5589010   3.7011344  23.4415126  30.4768608   6.7459399  19.5006645
  29.8885677   5.9941489  19.4303858  30.1577614   7.3622234  18.8414252
   4.4994789  33.2911420  24.6514511   5.0654751  32.7915096  24.0630174
   4.4951302  32.7868819  25.4650450  32.4661301   1.3736636  56.6412973
  31.6471622   1.8665988  56.6916990  33.1490181   2.0443065  56.6298008
  24.0025020   9.5592344  31.7824531  24.4631529  10.3915596  31.6763139
  24.1455507   9.3214387  32.6985431  21.8062735   7.3610532  38.6746979
  21.3364410   7.8172445  39.3728232  21.2559223   6.6051501  38.4698677
  26.3601375  27.5442171  50.4057312  26.6157651  26.6323709  50.2663612
  25.5805087  27.4925661  50.9586763  75.5379655  68.0669086   7.7212214
  75.8598759  67.1666925   7.7683073  74.5906546  67.9773902   7.6172024
  73.5521517  21.3558633  58.0389517  73.0481825  20.5488689  58.1438648
  74.3341647  21.2211783  58.5742533  37.0455503  21.3421869  34.6948338
  36.6110182  21.7872930  35.4223585  36.5724111  20.5151701  34.6030903
   0.6781777  75.9349032   8.1811619   0.7685431  75.9634124   7.2286636
   0.3121551  76.7885176   8.4126806  64.3385826  51.4128633  45.3735363
  65.0773893  51.4659936  44.7672545  64.5024381  50.6184323  45.8817303
  49.7434955  71.4868199   7.6690221  49.9537109  70.5537199   7.6320559
  50.5278235  71.8946757   8.0360579   9.6406706  39.7938674  36.7743254
  10.2825030  40.4121654  37.1235991   9.8217209  38.9747398  37.2352839
  12.0157719  27.6018977  42.9396439  12.0967793  27.9747796  43.8174963
  11.0854638  27.6835322  42.7296543  43.7247944  61.3680410  12.4138832
  43.9010286  61.1880922  11.4904165  43.0693007  62.0654631  12.4011481
  49.8439360  22.7002883  33.8457799  49.2112827  23.0498719  34.4732928
  49.6565914  23.1671858  33.0314469  18.3292874  72.4601542  12.3395026
  19.0755089  73.0536204  12.4242461  17.5653323  73.0092733  12.5157690
  58.1136990  28.4740853  50.8880568  58.6255455  28.1892300  50.1310205
  58.6266804  29.1864347  51.2696886   2.6093872  49.8970573  25.8181190
   2.1055706  49.9791758  26.6278458   2.4748858  50.7303875  25.3667855
  18.8291204  19.6060121  16.5320659  19.0550423  18.8042295  17.0035911
  17.9156530  19.4827652  16.2739575  66.8831205  12.7861071  35.2238035
  66.9430304  13.5344958  34.6300387  66.1820221  12.2462618  34.8587489
   7.3799825   8.8197899  27.1895242   7.9255819   8.9638299  27.9627013
   7.4935991   7.8914523  26.9857764  10.3497016   8.9148051  50.8296919
  10.0680864   8.2471097  50.2043056  10.7943654   9.5720220  50.2943659
  29.6351695  12.9733908  25.9426785  29.8044825  12.6447046  26.8255877
  28.8347602  13.4911585  26.0292602  68.2241297  26.7016220  45.2545547
  68.9298916  26.9605613  45.8470774  67.7407360  27.5111651  45.0896263
  21.0526196  57.3087866  61.9121435  21.3686864  58.0464466  61.3904237
  21.8204085  56.7482729  62.0242041  14.7914076  23.9871693  30.6914473
  15.2789843  24.2246270  29.9027061  15.4651725  23.8505721  31.3574910
  39.7483921  17.6748478   3.5953394  39.1838074  17.4721575   2.8494215
  39.8184299  16.8489492   4.0741062  27.6483130  12.5817502  10.2280676
  27.5936818  13.0482781  11.0620928  26.8525314  12.0506513  10.1981354
  64.0212440  28.6399317  13.3632576  63.4617710  28.5862160  14.1380692
  64.7365189  28.0293274  13.5415161   0.8498176  74.9975403  49.1813040
   1.4980229  74.5258739  49.7043610   1.3497814  75.3592177  48.4495544
  39.0180016  16.1375165  22.6525831  39.5205879  15.9505403  21.8596888
  38.1114483  16.2013388  22.3520470  74.9870205   5.8230001  18.0085790
  75.7667542   5.8881831  17.4572194  75.2315283   6.2638170  18.8222909
   6.8492444  55.9584873   9.6087694   6.6831311  55.3731268   8.8698566
   7.6662215  56.4032595   9.3830299  37.7597094   3.5883489  21.8332267
  38.6731362   3.7963530  22.0297408  37.2801685   3.8491347  22.6195240
  28.0945325  22.2077894  26.7283440  28.0081224  21.8174624  25.8586264
  27.4579000  22.9225588  26.7344117  71.1246926  21.8225789  16.1930776
  72.0050085  21.4855099  16.0267580  70.7208496  21.1672783  16.7620468
  75.8336506  54.4891102  54.4924938  75.8101235  55.2834768  53.9589583
  75.2576886  53.8763614  54.0352880   0.9698445  24.5423579   8.1017977
   1.2553841  23.6479568   7.9153967   0.1845318  24.4360828   8.6386615
  31.6992927   8.9772928  15.5734861  32.5214887   8.4878081  15.5986333
  31.6197443   9.3570030  16.4485431  63.0791006  40.9987251  48.0191528
  63.3785186  40.8264304  47.1264636  62.4617587  40.2913235  48.2054424
  30.5366945  14.1195631  59.7251129  30.4295802  14.9678564  60.1554155
  31.4364672  14.1285038  59.3986750  68.0486679   9.6169364  20.2204871
  68.0504894  10.4631090  19.7730255  68.9736748   9.4264495  20.3763962
  28.8228631   0.8312733  55.7338190  28.5902238   1.5154877  56.3614845
  29.0953326   1.3080549  54.9498081  68.3700571  24.3307014  52.8142404
  68.5347042  23.5663910  52.2620141  68.3254395  23.9787192  53.7032568
  36.2274504  18.6742818  22.9817080  35.5921817  19.1814375  22.4762774
  36.3849521  17.8922725  22.4526644  28.6096501  14.6516299  17.2526240
  27.7417421  14.3377709  17.5065136  28.8450575  14.1174603  16.4940214
  53.7098408  45.8085728   4.6224225  53.9348888  45.0230217   4.1239268
  53.4235573  45.4780674   5.4739136  47.2515931  65.5548756  12.2551298
  47.5300123  66.1447184  11.5545595  46.4863642  65.1038068  11.8984878
  65.6485128  29.6908975  38.1529331  65.7764292  30.1489496  38.9836287
  65.2150297  28.8725162  38.3949590  17.5929391  17.0749867  35.1195693
  18.0861330  17.5244403  35.8058524  17.7066970  17.6243210  34.3439913
  61.8025051  53.9851553  64.5163458  61.2101612  53.2533891  64.6892037
  62.2506080  54.1324742  65.3492510  24.7996783  28.1265926  22.0396519
  25.2487397  28.6746526  21.3960624  24.2674303  28.7397218  22.5466204
  10.4042204  65.5521553  32.6620841  11.0661348  66.2225442  32.8314424
  10.5675920  65.2767508  31.7600346   9.5928105  68.6322330  34.5261812
   8.8335570  69.2122900  34.5836067   9.2275651  67.7510398  34.6057153
  40.4383651  40.7160124  14.5083511  40.3084890  41.0783035  13.6319340
  39.7931389  41.1677311  15.0522888  59.0544415   3.2166952  11.3544774
  59.6216822   3.8348702  11.8152702  59.4500875   2.3606327  11.5183461
  20.2925181   5.0340855  25.6030989  20.1502347   4.2461270  26.1276054
  21.2411404   5.0725889  25.4811740   9.9766213   2.0447928  18.2368588
   9.6106088   2.8661862  18.5648525   9.2201960   1.5611283  17.9050136
  36.3925409  31.5801883  34.0018654  35.5715322  32.0721745  34.0131116
  37.0194864  32.1699953  33.5831785  49.5165700  44.3430471   5.2265579
  50.0325388  44.1932440   6.0187501  49.0314549  43.5278082   5.0989604
  21.2487388  22.1897006   3.9793983  20.8458924  21.3758826   4.2821297
  20.5518436  22.6382113   3.5004330  66.1339770  52.6476045  63.1913220
  65.6007157  52.8464742  62.4217018  66.2993942  53.4997137  63.5947802
  28.5511351  45.7863426  29.1882682  28.8663363  45.1075649  28.5914922
  27.8768301  45.3518248  29.7105122  12.6884151  20.9192419  38.1952262
  12.8154373  20.7685137  37.2585416  12.3368120  20.0924277  38.5253525
  77.6562510  73.1574745  54.8438036  78.5633526  73.3422179  54.6003580
  77.3455820  72.5533218  54.1694760  23.1658983   5.0880444  25.6171870
  23.9535165   5.0474602  26.1596298  23.1708956   5.9734607  25.2535319
  67.6292467  11.9421101  42.2116709  67.7300167  12.1611381  41.2853289
  68.0104876  11.0679734  42.2939491  27.7534890   4.5752716   9.8768556
  27.9282379   4.3624666   8.9601171  28.5736012   4.3776017  10.3291535
  27.4607476  51.5160411  18.0944312  27.6183804  50.6005423  17.8636837
  27.2106465  51.4906113  19.0180302  42.4844406  72.4289866  53.8793230
  42.0245157  71.5976377  53.7628924  43.3815346  72.1776814  54.0990948
  35.5320787   5.4455882  53.9200354  36.1490417   4.8078316  53.5610723
  34.9404573   5.6416398  53.1935501  60.2772045   0.9584089  29.0816855
  60.6741667   1.7037466  28.6309958  60.0512075   0.3472134  28.3805466
  74.7431900  72.5479757  48.5382652  75.3234388  72.8649505  49.2304182
  75.1307394  71.7172982  48.2625628  17.9848993  32.1688724  24.3929100
  18.5589719  32.0424318  23.6374712  18.5087478  31.8848586  25.1420093
  41.4501810  26.9769192  19.2687190  42.2379398  26.7617822  18.7693322
  41.4448977  26.3480926  19.9903691  47.5067029  10.8397503  54.8567783
  48.3128248  11.2362499  55.1872122  47.7855430  10.3267188  54.0983057
   2.4540154  34.1161655  64.3829093   2.8573147  34.1194410  63.5148236
   3.0889336  34.5618914  64.9436609  65.2074275  20.5181391  60.5909550
  64.2726956  20.3189356  60.5378055  65.3636918  21.1281295  59.8700350
  59.1996956   6.2692016  20.5741501  58.6311007   6.9284368  20.1762271
  58.6482143   5.4903197  20.6479383  37.0732315  15.8212473  61.8618375
  37.1639737  15.3143408  62.6687121  37.0371397  15.1627447  61.1680734
  37.3817587  11.1675966  28.3580208  37.1068454  11.4978373  29.2133546
  36.6294932  11.3249624  27.7874398  39.6537948  16.0877502  11.4869833
  38.7410212  16.0527050  11.2008953  39.8100400  15.2357042  11.8942142
  39.1209006  10.6374466  51.1892176  38.9466095   9.9911761  51.8734598
  38.3207226  11.1608660  51.1447096  76.9556143  75.4810626  27.1984506
  77.8316953  75.5261117  27.5814462  76.7946460  74.5451962  27.0781374
  29.9472427  43.3881235   5.7917494  29.6004200  42.4979115   5.7328373
  30.3594398  43.5413313   4.9415421  20.4990983  26.7063427  12.6814139
  20.1027322  25.8910990  12.3740029  20.3578353  26.6992640  13.6281061
  25.6686664  17.2483122  45.3865147  25.6316948  17.4554145  46.3203096
  24.9192619  16.6712916  45.2393007  28.6474617  76.1919629   0.6651478
  28.1646593  77.0174277   0.6234247  29.5172127  76.4388226   0.9795114
  24.0497883  58.6879854  25.2125931  23.5025271  58.8991981  24.4562030
  24.1468390  57.7362852  25.1797223  11.3743222  28.4867549  34.3829966
  10.6525445  28.5670662  33.7594438  11.6362464  27.5676680  34.3291092
  34.0747881   1.3520554   3.6651748  34.9185300   1.7586349   3.4676224
  34.1670609   0.4490617   3.3613327  50.8913996  72.4936651  30.6902885
  51.7974510  72.4559038  30.3838944  50.7210298  71.6200404  31.0424042
  39.0887690  19.4799471  20.1787996  38.3995104  19.0714908  19.6550488
  39.6613836  18.7547112  20.4285526  15.5554163  22.8235126  12.7955079
  14.6069229  22.7054071  12.8469157  15.7362938  23.5640407  13.3744144
  46.7363644  29.6652842  38.3535910  46.2851954  30.0952482  37.6270866
  47.3276806  29.0412807  37.9326415  13.4415615  33.3795381  28.8770199
  12.8880715  33.5020804  28.1057453  12.8704298  33.5859108  29.6169186
  42.6609039  12.9245448  25.5363297  43.5281467  13.3273959  25.5791020
  42.0576382  13.6630058  25.4527831  20.1896914  39.9861090  28.3204913
  19.5629414  39.3413251  27.9923630  20.8948191  39.9856870  27.6731682
  19.1441238  17.1645939  26.2251472  19.4495142  17.3498070  25.3370786
  18.5245287  17.8685176  26.4170456  30.2788401  30.9596872  13.5496247
  30.6064248  31.1260462  12.6657438  31.0272264  31.1364293  14.1196358
  14.8266943  56.3899343   7.7492231  15.5404194  56.8366735   7.2939676
  14.6642264  55.6042736   7.2271383  55.4624939  14.2297184  52.8669167
  54.5758438  14.5658600  52.7361870  55.9455204  14.9669671  53.2402563
  21.1284979  49.8262184  27.6742125  20.5543621  50.0428837  26.9396019
  20.5449208  49.7914689  28.4321451  30.2219915   9.5725483  20.6401157
  30.3667927   8.8346416  21.2323666  29.2848372   9.5445627  20.4472733
  22.6335669  12.4631786  21.2118125  22.2226763  11.5992653  21.1793566
  23.2499552  12.4079549  21.9420528  39.2360830  20.9251857   4.2793760
  39.7131181  21.7534328   4.3311030  39.4056058  20.4982948   5.1191723
  76.4502313  65.1631062  13.2403255  76.9060494  65.9056204  12.8439271
  76.6038324  65.2616840  14.1799641  37.3421192  25.5233717  22.3978519
  38.0909348  25.9754014  22.0090365  37.5514174  25.4716611  23.3304572
   2.7360996  76.0115588  42.9613447   1.8936928  76.2896739  42.6018524
   3.1660136  75.5548154  42.2383022  13.0844820  45.8575964  23.3674502
  13.4669995  45.6321859  22.5194526  12.6726866  45.0472546  23.6674523
  43.4862240  76.3330570  26.0577917  44.1973933  76.2902788  26.6970444
  43.0636986  77.1754039  26.2255812  28.7003716  75.4299618  18.8083661
  29.4683274  75.4658243  18.2381105  28.8637265  74.6823524  19.3833685
   9.0781315  61.3221627  15.8075202   8.4313472  61.9032567  15.4072309
   8.6904176  60.4496055  15.7400477  12.8399742  48.7013197  52.3752785
  12.8893149  48.4343624  51.4573812  11.9043887  48.6923981  52.5773478
  72.7031050  47.1185715  46.6654157  72.2523842  46.8349631  45.8700239
  72.8157673  46.3166381  47.1757507  45.5859423  15.6281352   5.1295477
  44.7016096  15.9480107   5.3080630  46.1397362  16.0919726   5.7575566
  65.5626148  30.5615139  12.1124923  64.9951094  29.8404121  12.3848546
  66.4421266  30.1838779  12.1035063  13.8944960  39.8778176  13.6403978
  13.7445700  40.5848885  14.2679369  13.6228144  39.0852118  14.1032124
  -0.1399891  76.3045989  17.8937054  -0.1532475  75.3576843  17.7543902
   0.6401308  76.6044412  17.4270785  76.5705349  66.9176119  23.8955712
  76.4451911  66.2263279  23.2454586  76.2292411  66.5461128  24.7090459
  51.3253174  66.8640895  59.5843321  50.4961691  67.2537012  59.8617213
  51.6333232  66.3839049  60.3529578  26.0334420  38.2411003  14.6686769
  26.3102102  38.6084557  15.5081296  25.8830667  39.0044618  14.1110933
  44.2812477  75.0897236  46.7074811  45.0772665  74.5597358  46.7486929
  44.5527885  75.9541459  47.0161414  57.8633900  61.7696100  35.5293894
  58.1320115  62.6522856  35.7842565  56.9181045  61.7543035  35.6791663
  18.0906618  20.0723958   0.3010041  17.3075211  20.2955461  -0.2021135
  17.7588844  19.5947170   1.0612531  14.1071280  74.7343459  25.4257298
  14.6469363  74.1927432  26.0014963  13.2700261  74.8101861  25.8837080
  51.0096979  22.7097201  15.7492232  51.1899471  23.1142569  14.9006414
  51.4382267  21.8550515  15.7029796  27.8149238  20.3640468  20.4606915
  27.5869295  21.2886913  20.5570340  27.8392834  20.2206809  19.5146012
  71.1661937  68.2009273  16.7820752  71.8277087  67.8898065  16.1641479
  70.9118285  69.0610134  16.4477372  56.2267780   3.5873869  17.0504653
  55.8713865   2.7986658  17.4601579  57.1759033   3.4908974  17.1284425
  28.1451607  27.0518541  16.4458191  27.8498554  26.9678521  17.3524451
  29.0402412  27.3838758  16.5152550  33.7458038  21.3753343   5.9937966
  33.5993266  20.5986595   5.4538411  33.4232163  22.1019626   5.4607117
   7.4042900  73.1585132  21.3090372   6.6893466  73.6390098  20.8916521
   7.9855212  73.8398080  21.6470265  33.8907862  16.9203353   6.8726414
  32.9557657  17.1117282   6.9456941  33.9265966  16.0420310   6.4937860
  22.0477986  16.1010337  52.1787739  21.6759467  15.2223849  52.1017504
  21.4789581  16.6500092  51.6390753  30.7702065  37.1483779  27.9292679
  30.4309726  38.0411649  27.8653622  31.5811968  37.1633601  27.4210334
   5.3708108  69.4728880   8.9982688   5.7477148  68.7101882   8.5595602
   6.1238154  70.0261538   9.2059100  36.9981408   4.2229000  44.3435097
  36.6208673   3.7932238  43.5758686  36.8141031   5.1529914  44.2120123
  74.7426367  47.7709532  -0.0844700  73.8025856  47.9268074   0.0063169
  75.0380898  47.5653458   0.8024717  42.0566750  24.0299106  26.8201232
  42.9205561  23.9510441  27.2247481  41.9718695  23.2433486  26.2812710
  74.7390042  56.3670344  58.7821626  75.4837475  56.8714221  59.1095459
  75.1215086  55.5424840  58.4820979  20.5546474  24.7949266  23.0796003
  20.3038764  25.7058644  22.9261756  21.1595368  24.8345375  23.8203907
   9.1455871  55.7307243  12.9700315   9.5790380  56.1867905  13.6913872
   9.7550857  55.0340033  12.7264655  72.1419340  20.5018711  35.3330421
  71.7182344  19.6871471  35.0629759  72.9281616  20.2194953  35.8003139
  43.8348768  29.9704398  56.8241935  44.4196032  30.6167312  57.2199648
  43.0390857  30.0108959  57.3545825  48.8705301  24.8472214  36.5780115
  48.3245087  24.3190980  35.9956193  48.3181524  25.5926156  36.8136048
  55.4341602  37.8317714   0.6977694  54.8521805  38.2832050   0.0864278
  55.7484341  38.5212040   1.2827015  19.0589964  44.9651003  27.6398540
  19.8201215  45.2785110  27.1512914  18.9318788  44.0667629  27.3347950
  22.5087810  29.6965051  13.0359352  21.9490361  29.5437407  12.2746336
  23.3326578  30.0152659  12.6673603   0.3793701  63.5505669  31.1859488
   0.2357968  62.7055865  30.7597756   0.8009871  64.0883189  30.5156541
  45.7919645  36.2752199  13.9831960  46.3002586  36.8349314  13.3961737
  45.3395033  36.8863201  14.5646310  64.1527762  73.8367124   9.5126331
  63.5750373  73.4485575  10.1697373  64.5709922  73.0872809   9.0887475
  45.0981188  24.4404125  38.2834363  45.4899454  23.6278558  37.9633427
  44.9118471  24.9447179  37.4914718  13.7401780  71.4587282  22.8465033
  13.1389435  71.5505510  22.1073723  13.1860360  71.5614681  23.6202002
  78.7153071  21.2378669   1.3684976  79.1312081  20.7032967   2.0448804
  79.2653251  21.1155844   0.5947023  73.0112743   1.5446325   5.1531470
  73.1318712   2.0753950   5.9405351  72.9500055   2.1820551   4.4416907
  36.0242699  58.6528296  65.3849769  35.3617267  57.9848654  65.5613023
  36.5233461  58.3058388  64.6455503  27.0444107   4.3132308  37.6718640
  27.0097327   5.2499020  37.4777627  27.2929263   4.2690063  38.5951829
  17.3638590  75.1363037  20.4106045  16.9888314  75.9846630  20.1742244
  17.3217543  74.6226954  19.6039653  32.6136072  70.8167683  27.3262572
  32.5641688  71.4342140  26.5964985  31.7457064  70.4143756  27.3587561
  20.5309065  73.1540995  31.7056847  20.1644524  73.2542711  32.5842690
  21.4119252  73.5227056  31.7701817  41.8075132  22.8967786  31.3239384
  41.6044950  21.9807816  31.1343002  40.9830999  23.2636738  31.6432643
  72.6664782  15.0640297  39.2966008  72.6972866  14.9998653  40.2511501
  71.8403959  15.5114281  39.1131592  60.9792757  10.9626949   8.4036785
  61.6748476  11.3413858   7.8660846  60.2769279  10.7669342   7.7835017
  37.4809980  20.3504062  32.0280051  37.4691820  20.8918929  32.8172350
  36.9932103  19.5632577  32.2702742  45.8658028   5.4189163   4.0496174
  45.3306913   5.7179099   4.7847962  45.8385897   6.1425662   3.4236607
  33.1029558   3.8201100  35.8034825  32.7508688   3.0890810  36.3112831
  32.3294234   4.2732379  35.4679894  76.3510825  64.8236232  36.2504959
  76.2105872  64.8568433  35.3042459  75.6242683  64.2964130  36.5821886
  17.0000732  25.5084991  42.4667835  17.4856329  25.0451636  41.7843008
  16.1322618  25.6507087  42.0887470  15.9294891  24.3965673  27.7050924
  16.5570629  24.5643544  27.0020771  15.6462348  23.4933805  27.5627828
  52.3331642   8.9539510  28.8663316  53.1804371   8.6459178  28.5446620
  52.2646284   9.8510098  28.5394979  81.3564769  50.4248176   2.5581253
  81.7198030  50.8060107   1.7588032  80.8140508  51.1202870   2.9300535
  19.9045312  35.3043151   9.5229608  19.4505274  34.5015788   9.2665851
  19.6071529  35.9596658   8.8918424   2.7354541  25.9347939  23.6561751
   3.0045128  25.0708938  23.9684534   3.4143543  26.5279222  23.9779282
  48.3946786  70.9081264  55.6823468  48.6349450  70.5028005  54.8491513
  47.5754009  70.4794259  55.9298002  19.9387050  43.7191629  32.3976827
  19.5406044  43.0806446  31.8060422  20.8720613  43.5071754  32.3859334
   7.8998822  50.1341867  28.9074564   7.5246835  49.8264647  28.0823708
   8.7559152  49.7085142  28.9548039   4.3411954  73.1304615  19.7979093
   4.5248111  73.6911290  20.5516791   4.8012622  73.5490443  19.0703380
  43.0429745  18.2898855  21.4507246  43.1500912  17.5762331  22.0795798
  42.1954298  18.1211960  21.0390878  45.4307699  13.3176816  27.5801420
  45.5136061  12.5033593  28.0763769  45.2787304  13.9890587  28.2452488
  44.3533434  58.1574970  25.2003670  43.8420751  58.4231608  25.9647369
  45.2270361  58.5140364  25.3609061  48.0230951  25.3963757  10.5070031
  47.4659967  25.9095192  11.0922873  47.7390862  25.6446695   9.6272743
  80.2057325  45.5629015  24.7692537  79.9872287  45.6019163  25.7003641
  80.3712911  46.4731455  24.5237374  65.5497203  43.1068055  41.0312592
  65.4100857  42.9419876  40.0987541  65.7957158  44.0307255  41.0769784
  24.3682528   3.3071643   0.5264278  23.9554262   2.5524178   0.9461477
  23.6842346   3.9765823   0.5111822  78.6225520  65.2521796  37.9746949
  78.8881407  65.9943242  37.4316322  77.7837143  64.9742503  37.6068031
  55.7733959  39.3645215   6.6940111  55.8568019  40.1222324   7.2729307
  55.7656926  39.7365975   5.8121192   5.8077276  35.2582598   6.4965886
   5.7844174  35.6353045   7.3760915   6.3251954  34.4587088   6.5924007
  48.5142756  35.2385712  18.7091231  47.7133179  34.7210312  18.6263084
  48.2106638  36.1456203  18.7453890  21.2181664  55.5735064  21.6169262
  21.9017935  54.9434042  21.3892102  21.5193462  56.4002848  21.2401509
  70.1051428   6.3875057  57.1442782  69.4906046   7.1125366  57.2578859
  69.5599558   5.6020596  57.1898168  11.5175978  59.6811385  56.7116683
  12.0623080  60.1893230  57.3127287  10.6273047  59.7881813  57.0465618
  46.6222143  49.7833586   0.7427016  46.0705423  50.3619909   0.2163212
  46.9401836  49.1266632   0.1231195  73.8605261  19.2347479   6.7006558
  73.4291172  18.6891949   7.3582959  73.1424332  19.6766734   6.2475824
  13.5051020   0.0590112  42.1452081  12.9403790   0.7129409  42.5571501
  12.9178723  -0.6677459  41.9373238  50.2427014   4.4716408  66.0286154
  50.9731825   4.5528366  65.4153983  49.9531802   5.3718951  66.1767965
  24.1829944  23.9106536  28.0494452  23.5891533  24.5762014  28.3967686
  24.4330955  23.3907461  28.8132358  20.7693839  70.8021164   7.7027524
  19.8523164  71.0046053   7.5177729  21.2643886  71.4100552   7.1535599
  55.7314994   2.9268362  58.6786735  56.3442541   3.4721567  58.1853252
  56.2892290   2.3826029  59.2345309  46.1449909  26.6929269  39.4712543
  45.3430080  27.0892215  39.8118520  45.8444118  25.9284449  38.9798808
  34.7813034  19.1365719   8.3705038  35.1550245  18.3367908   8.0004841
  35.1419544  19.1820776   9.2559940  55.9313283  55.6387992  63.9843118
  56.8825446  55.6328423  63.8776245  55.7731018  56.2688870  64.6872949
  24.0033340  31.1104321  17.8512526  24.9440336  31.2584090  17.7542114
  23.7765026  30.5278015  17.1264625  51.8717051  60.1711750  15.8202732
  51.8113708  60.9019613  15.2050149  51.8589926  59.3903685  15.2667284
  23.1760693  39.0609431  29.5691180  23.1105661  38.6620474  30.4367733
  22.6752591  38.4776139  28.9988995  56.2906456  26.8754983  36.3743353
  55.6993580  26.7622709  37.1185064  55.7372522  26.7376304  35.6055808
  40.8105278  31.9968343  32.4596596  41.2230110  32.4360561  33.2034159
  41.1926794  31.1192322  32.4577379   3.3232075  40.4465771  15.5978703
   2.6493698  40.9400749  16.0654581   3.1046349  39.5290494  15.7609653
  58.1531096  30.6121516   9.5594949  58.6708927  30.1744723  10.2351940
  58.1572199  30.0021005   8.8218957  73.1722222  71.2624617  39.0425288
  73.0760680  72.1799202  38.7870728  73.9439927  70.9601564  38.5637700
  80.7388602  59.1878791  53.5619640  81.0451136  58.4453030  54.0825617
  81.2495194  59.1406007  52.7537417  42.7550459  40.0624037  16.2181687
  43.3747530  39.5690918  15.6807303  41.9853878  40.1692486  15.6592047
  55.2470112  16.2604189  13.1415427  55.6822634  15.9002697  12.3688328
  54.3776274  15.8599734  13.1351721  47.2699499  23.4856462  34.8511529
  46.9694042  23.9905214  34.0955043  46.4652729  23.1957698  35.2809167
   1.7147319  54.7877903  61.8599411   1.0623042  55.0812001  62.4959290
   1.7833392  55.5107183  61.2363231  45.4277086  48.4497786  19.8952496
  46.3315630  48.5527134  19.5974422  45.3698921  47.5357962  20.1736927
  58.8594884  17.1534789  20.5763578  59.2878240  16.4350247  21.0417438
  58.8640255  16.8809223  19.6587932   3.6246449  23.6977601  31.6635156
   4.3935829  23.2353592  31.9969201   3.7213761  24.5914960  31.9923162
  41.1138590   5.1405194  62.8111210  40.4792364   5.8180430  63.0444604
  41.9082650   5.6241896  62.5848066  32.6831532  20.4630089  35.9065390
  32.8054166  20.5647421  34.9626470  31.7474437  20.6105018  36.0441208
  67.1819315  48.1144257  48.4818947  67.5567971  48.8394458  47.9818427
  66.6734872  47.6185114  47.8401887  53.3727312  49.8988104  12.7683342
  53.4238625  50.6477022  13.3622837  52.9902029  50.2548361  11.9663680
  64.2238474  15.5086255   6.6661072  64.8899078  14.8298502   6.5572083
  63.5048056  15.2319396   6.0980785  11.2790561  27.1679735  20.9904790
  10.9140086  27.9464817  21.4110708  10.9754038  27.2206926  20.0842524
  62.9949127  42.9735024  59.2840695  62.8507433  42.2658892  58.6557936
  63.7444387  42.6832582  59.8038768  44.0346527  35.2468944  33.4509349
  44.0749359  36.0172772  32.8842616  43.1838226  35.3127122  33.8845062
   8.9946580  14.2803133  18.0738020   9.3093216  15.1341438  18.3707750
   8.7932748  13.8055468  18.8801968  57.9527569  29.3347907  31.5994740
  58.7988377  29.2467117  32.0383549  57.4269247  28.6139941  31.9461513
   7.6668994  28.6392154  57.1804833   7.6784627  27.6950998  57.3377853
   6.7531983  28.8365318  56.9744658  31.4240289  12.8043079  38.3276582
  31.7894840  13.2974422  37.5931549  31.9227839  13.1026292  39.0882349
   3.7905137  57.1001942  28.1414568   3.7055175  56.3649483  28.7484323
   4.0826909  56.7015262  27.3217451  48.1527138  24.5852590  15.5061567
  48.4337997  23.7736368  15.9286392  47.6763010  24.2973852  14.7274470
  62.3813172  71.4832013  55.1103783  63.1345894  71.8185430  55.5965424
  62.7627840  70.9249746  54.4328070  36.3105226  18.6940765  34.5729756
  37.1498108  18.3875406  34.9162841  36.0445094  18.0169535  33.9509034
  50.9018517  44.6128225  17.9886305  50.7241106  45.0967693  17.1821344
  50.1907873  44.8618650  18.5790491  72.8651406  67.2721445  23.2770324
  73.6386432  67.8306597  23.1996560  73.2127716  66.4137285  23.5189128
  16.1624495  56.1570103  52.4232757  15.5267541  56.7472405  52.8279435
  16.3457123  56.5507813  51.5702867  26.1050797  76.8549061   1.9264023
  26.6588211  76.0790873   1.8386512  25.2144265  76.5085268   1.9810989
  61.2162638  26.6395020   6.4041167  60.3213692  26.2998033   6.4049417
  61.6702271  26.1200905   7.0677137  62.8529739  39.8144317  19.7810066
  62.2194958  39.2974067  20.2786279  62.3393011  40.5338717  19.4138837
  60.3595148  66.1010046  64.3673370  60.9735952  65.5707951  63.8593870
  60.0967966  66.8013353  63.7700521  34.9510288  46.0451269   0.8505460
  35.3035212  45.2622318   0.4273979  34.8174572  45.7851744   1.7620361
  12.7888274  11.5568686   1.5587242  13.1495631  10.7029200   1.3202426
  11.8600273  11.4952862   1.3356316  43.6203488  10.1817229  53.7981259
  43.2268723  10.7355597  53.1238305  43.8901003   9.3908932  53.3311641
  46.9346571   1.1586492  24.9680519  46.8544865   0.7748359  25.8412600
  47.2110319   0.4309413  24.4110155  38.0610728  35.2877736  28.4293294
  37.9091120  34.4896865  28.9354873  38.2657099  34.9767947  27.5474858
  36.1076260  38.3295751   1.8787594  36.3931656  38.8260746   1.1118264
  36.4198923  37.4392176   1.7175521  31.2244702  75.2882690  30.1918184
  31.9546742  75.4425592  30.7911741  31.6408182  75.0934644  29.3522131
  25.7214952  22.7472353  24.1639185  25.1412654  23.5084343  24.1519833
  25.2193952  22.0704389  24.6178722  67.6639662  41.9613529  52.7492797
  67.2872553  41.4809711  52.0120167  67.1479950  42.7660133  52.7995812
  77.7562937  26.7547154  18.7504005  77.2565716  27.4534249  19.1726756
  77.0936707  26.1271930  18.4616494  47.0493364  13.9502990  16.6051674
  46.1078835  13.9261019  16.7763948  47.4402332  14.1804957  17.4480426
  54.5668030  18.3396876  47.9144192  54.6501303  17.5195765  47.4278975
  53.9713144  18.8717949  47.3867035  30.4128861   2.8186044   5.0191385
  29.5918441   2.3594029   4.8423484  30.1855588   3.4682006   5.6844044
  55.5970860  15.9741545   6.3354170  56.0763597  15.1465392   6.2956363
  54.9089909  15.8215606   6.9830835  77.5316431  75.2920645   3.7565890
  76.7330172  74.7656213   3.7924442  78.0545809  74.8871179   3.0646455
  10.8102185  44.8478985  18.2748675  11.7653996  44.8236418  18.2176101
  10.5383354  43.9421082  18.1270039  45.8961248   4.7735405  33.0908847
  45.8683538   5.2645552  33.9120817  45.4726791   5.3486145  32.4535346
  60.9086357  39.9709443  61.2959104  60.1010619  39.5006794  61.5030521
  61.3198195  40.1268460  62.1461200  46.4848900  35.6756949   5.2634335
  46.8626690  34.8357010   5.0028068  45.9394884  35.4679370   6.0221195
  62.3336134  43.5212905  49.2787158  62.7534638  44.1864891  48.7333095
  62.8309665  42.7217288  49.1067481  61.4236031  71.6799731  35.9904754
  60.7463346  72.3470492  36.1024940  61.6540704  71.7261000  35.0625789
   0.9409388  72.5534042  14.8914027   1.5076907  72.3029896  15.6210029
   0.9699067  73.5101294  14.8830414   7.7661818  18.9219725   8.0805641
   8.2279623  19.4477403   8.7336791   8.3764625  18.2164598   7.8659916
  21.4784431   6.3012320  35.9468675  21.0957932   5.7250893  36.6085839
  21.5388751   5.7571679  35.1616454  19.3172805  65.0965090  55.6414473
  20.0481574  64.4786949  55.6604528  19.1789786  65.3322001  56.5588098
  58.0881453  37.8448248   6.7981541  57.7312326  36.9588375   6.8603516
  57.3265028  38.3982897   6.6254944  75.1682482  61.5935249  50.3636872
  74.6164809  61.1072750  50.9763455  75.4789267  62.3462887  50.8667302
  60.2745962   2.5841269   8.0751330  61.0069084   2.6070738   8.6911076
  59.8575544   3.4408060   8.1668347  40.8182526  24.8364377  22.8971839
  40.6243277  24.4843483  22.0284724  41.7031050  25.1930380  22.8190351
  56.8486023  24.4729567   0.7294597  56.5512562  24.7231770  -0.1453031
  56.8883801  23.5169077   0.7045507  71.6006623  26.1836441  65.4080358
  70.7732258  26.0008450  64.9628725  71.6453705  25.5318339  66.1075901
  21.1102921   0.7772785  28.6125612  21.4455467   0.8118395  29.5084643
  21.5772110   0.0449421  28.2101893  37.4138594  30.9008670   7.1296328
  37.1277785  30.7011724   8.0209869  37.2700381  30.0884819   6.6442668
  34.3520331  28.7112212   4.9621516  35.2529359  28.5958505   5.2643037
  34.3942404  29.4554949   4.3617311  20.6735188  14.6770334  14.7408557
  21.1158425  14.7228932  13.8932240  19.9761158  15.3300953  14.6827352
  72.9717684  56.0650730  24.8471999  72.9372406  55.9076357  23.9036679
  72.1164083  56.4388132  25.0591230  57.9641922  66.7978202  33.3236241
  58.8996800  66.9878124  33.2530355  57.7329644  66.4151912  32.4772406
  78.7109671  45.9996725  57.4929410  79.4335185  46.4311738  57.9489654
  79.1109524  45.2336700  57.0812559  15.0557292  35.0931406  26.6910791
  16.0072899  34.9894118  26.6892385  14.7903967  34.8535442  27.5790119
  61.0205517  64.3047256  66.5802342  60.6275616  64.8438306  65.8938245
  60.8996997  63.4049840  66.2767700  28.8525629  37.5568795  10.8183932
  29.7606516  37.3933172  10.5637300  28.4329200  37.8739285  10.0186360
  31.8697025  71.3846009   9.8161054  31.6006805  70.4699724   9.7305840
  32.2230174  71.4483725  10.7034242  36.7474699  33.0262518  29.5264721
  36.3166642  32.6874423  28.7417150  36.1077261  32.8953242  30.2263403
  21.3266857  62.6361220   8.2029217  21.5013321  62.1694451   7.3856431
  21.6162260  63.5325961   8.0334133  42.1453428  28.6052346   9.3663210
  41.3876009  28.0734348   9.6097320  42.8982973  28.0356526   9.5239967
  59.9506235  59.1008806  15.6141937  60.0101519  59.3742275  14.6987867
  60.8299351  58.7894917  15.8288395  77.6561747  16.9601436  52.2667658
  78.6018858  16.9908257  52.4114000  77.4191008  17.8596182  52.0409965
  70.2016830  27.2091603  16.4848840  70.4648781  26.4949179  17.0652437
  69.2610693  27.0825362  16.3605869  34.7185000   2.4922039  65.5958686
  34.8691185   2.5636627  66.5384398  34.2188080   1.6821768  65.4938957
  40.9400225  68.6632681  16.9058430  40.2004194  68.0837965  16.7230141
  40.8396769  68.8957357  17.8289485  71.3408732   8.9492399  17.9505086
  72.1457952   8.7557650  17.4699879  71.1770898   9.8767477  17.7798164
  12.5172377  27.8823042   9.3570781  13.0843401  28.5960007   9.0650761
  12.8078485  27.1232796   8.8514477  20.3473902   7.6895922   1.9081925
  20.8758092   7.4608999   1.1435311  20.6144929   8.5827184   2.1254791
   6.6955010  34.4304947  45.9978520   7.4590699  34.9891589  46.1430633
   5.9974066  34.8417981  46.5074813  57.8419958  28.4439273  56.3825798
  58.6468254  28.9605112  56.4228475  57.5415049  28.3975334  57.2902059
   2.5687186  45.9883328  50.2948713   2.8115956  45.1235296  49.9641776
   1.6422526  45.9066893  50.5212140  45.5106401  18.6638153  28.4755301
  44.5816898  18.5316432  28.6647701  45.6676960  19.5858622  28.6789870
  15.9134253  69.1369044  -0.0498196  16.5951498  69.4042825  -0.6662533
  16.2850483  69.3209093   0.8128917  34.5469165  30.2911687  17.7826118
  34.8473501  31.0664773  18.2568169  33.5983968  30.2844572  17.9110610
  25.7388330  31.1076331  23.3204365  26.5648532  30.6239939  23.3167934
  25.6934500  31.5106893  22.4534202  71.0342465  42.5867478  65.9221984
  70.9816513  41.6418551  66.0658740  70.6285963  42.9701964  66.6997887
  24.1420754  72.5319128  53.4780216  23.9962157  73.4298508  53.7757874
  25.0901373  72.4121951  53.5335207  57.4124193   3.2203722  33.5541987
  57.1066952   4.1262725  33.5082769  58.3281660   3.2900211  33.8239861
   8.0652005  16.4819443   4.7527552   7.8083760  16.9432938   3.9543611
   8.3605725  15.6236458   4.4489303  37.3846674  33.3813977  16.6771317
  36.5649486  33.6832309  16.2857401  37.9665446  33.2350087  15.9313297
  43.9485502  61.2296152   7.2525454  43.0951691  60.8446121   7.0531869
  43.8707972  62.1419334   6.9735140  17.0081353  57.2976637   0.8299420
  17.5738764  56.6442347   1.2412765  16.3538826  56.7839479   0.3563588
   2.9317424  40.0151587  36.1280465   2.1423876  40.2861214  35.6592941
   3.0304867  40.6632662  36.8254972  52.5595713  16.8864930   2.1673614
  52.8212214  16.8109608   3.0850035  52.4564505  17.8273165   2.0243675
   6.3061482  36.5285993  13.0377340   6.9456059  35.8596921  13.2824528
   6.0755438  36.3197160  12.1325159  42.9701614  31.9220924  16.5761828
  42.7489567  32.1494317  15.6730676  42.6554728  32.6632977  17.0936966
  48.4000540  62.4699306  33.4049463  48.8086700  61.6948414  33.7903070
  47.5600719  62.5477791  33.8572764  20.3152378  14.7736027  62.7598607
  19.5043047  15.0746681  63.1697165  20.5238446  15.4504969  62.1160185
  66.6806841  19.3260503   2.8514332  67.3381042  20.0199199   2.9021919
  66.8286991  18.7980092   3.6359686  57.9653454  42.1679544  15.8232367
  57.9649448  42.4656153  16.7329800  57.6614666  42.9255104  15.3232336
   0.2187316  50.6506832  59.1338986  -0.5844339  50.4162891  59.5988863
   0.7616631  51.0800083  59.7950643  18.7143668  52.8947275  17.2206128
  19.0385302  53.3583825  16.4484918  18.9946087  53.4348290  17.9595220
  63.5906458  17.0888913   3.1743246  63.6736488  16.1911190   2.8528482
  64.3246603  17.5553107   2.7744430  73.1868362   9.5785683  11.5815139
  73.9860868   9.0542537  11.5312290  72.9704094   9.5965058  12.5137520
  16.4289355  11.4731133   2.6864892  17.1083331  12.0562625   3.0249962
  15.8952951  12.0304728   2.1200880   5.8740765  32.2213650  30.4665112
   5.9770924  32.2844577  31.4160585   6.4325863  32.9163861  30.1183009
  13.5929545   7.7355387  36.2332046  13.7684830   8.2943060  35.4761040
  12.6379999   7.6980450  36.2869489  23.1684073  66.2747448  17.4083173
  23.9266833  66.5750282  16.9072402  23.4843024  66.2183993  18.3101308
   0.1864036  11.4027645  65.6922057   0.2344116  12.0959999  65.0339157
  -0.0093357  11.8614437  66.5092310  37.0848823  44.0792704   7.1706927
  36.4927387  43.4040117   6.8396002  37.7503276  44.1696835   6.4886075
   3.6475331  49.3533039  14.6678412   4.0093571  50.2102518  14.8935926
   3.8885552  48.7902308  15.4034281  34.8372436  19.5730186  13.2489169
  35.2137303  20.3009844  13.7434459  34.6127057  18.9223468  13.9140785
  49.7001791  32.3526096  18.1831622  48.9536476  32.7654696  17.7490330
  49.3901825  32.1693325  19.0700352  39.1886044  17.7449226  34.4551563
  39.5031762  17.4103761  33.6153007  39.3295097  17.0234978  35.0682807
   4.1242560  73.7011196   4.4863725   4.9384745  73.9559804   4.0524065
   4.0239366  72.7716952   4.2806089  16.7617702  28.1859899  29.1758299
  16.2471414  28.8631082  29.6150374  17.4304914  28.6699677  28.6912608
   6.5917460  36.3926817  51.7804098   7.3443429  36.8771220  52.1197426
   6.4069335  35.7361297  52.4519860  57.3906994  23.9019847  17.1956074
  57.0805168  24.6561527  17.6968515  57.4314928  23.1902409  17.8343487
  66.2748824  55.9683855  61.2835896  66.7589317  55.1425965  61.2839072
  66.3958440  56.3165755  60.4002076  69.9064026  57.8862317  64.8546303
  68.9702616  58.0181022  65.0045645  70.3308688  58.5663481  65.3776051
  62.8449726  27.9033947  11.0297704  62.8941917  28.4180045  11.8353677
  62.9178524  26.9945812  11.3212776  67.7509318  18.1422730  18.8442862
  67.6596079  19.0312464  19.1872417  67.9222832  18.2623262  17.9102337
  26.5213180  30.9173846  27.1182346  26.5425944  31.3486171  26.2639403
  27.0373917  31.4881492  27.6875591  34.6752834  50.1329899  12.8862786
  34.4546461  51.0369730  12.6618648  35.0919747  50.1944637  13.7458253
  35.0645924  12.5068581  27.6700950  35.2435970  13.1653130  26.9988084
  35.2381802  12.9552770  28.4977555  71.3267279  14.2426753  34.0603518
  70.9423399  14.7641611  33.3557034  72.2665596  14.4137251  33.9996147
  25.2289915   4.0743005  35.2244115  25.5555367   3.8310707  36.0906911
  25.1151752   5.0236535  35.2692199  58.2875156  16.3238502   8.1309938
  58.9274120  16.9865513   8.3909756  57.4641991  16.8051279   8.0488080
  38.0717492  29.4297433  29.8416114  38.1694698  28.5427332  29.4953513
  37.3092484  29.3791866  30.4180408  33.3581161  27.2137284  19.6699977
  33.8139439  28.0186582  19.4239497  33.5910845  27.0777106  20.5883956
  52.6058722  30.3908324   0.7839399  53.0979681  30.3720140  -0.0368664
  53.2774830  30.4251385   1.4651111  71.2772703  35.4933023  35.6976771
  71.8458271  35.5994248  34.9349761  71.0266590  34.5696092  35.6829262
  11.6997417   1.7574789  43.1995427  12.3792847   2.2957661  43.6053693
  10.8778318   2.1196749  43.5304653  23.3768368  40.7853222   0.4182535
  23.8853979  40.4288244   1.1466131  23.1467843  41.6714096   0.6978183
  63.6044465  56.8012877  61.7147690  64.5502744  56.6542573  61.7196810
  63.2508097  56.0688157  61.2101328  14.1783577  45.2448130  35.1669407
  14.6244484  45.5556870  34.3791604  13.6669499  45.9969759  35.4651833
  45.1400280  17.6348341   8.0508536  45.7793617  17.7836633   7.3541933
  45.4874134  16.8885279   8.5393035  33.7037563   1.3806997  30.0057912
  33.2732892   0.7601668  29.4176841  33.0280876   2.0281675  30.2070093
  28.1488681  62.7123928  31.1408830  28.8704228  62.9647112  30.5647564
  28.2900524  63.2219315  31.9387984  57.3088203  76.4369435  42.4105083
  58.0237446  76.8158503  41.8990933  57.3239217  75.5056329  42.1899020
   4.9523218  55.3171675  30.8382916   5.0039419  54.5112078  31.3520980
   5.2049001  56.0081690  31.4506245  55.4590402  66.5426917  58.2577490
  54.7869358  66.7557855  58.9051294  55.3148089  67.1684308  57.5479042
  37.4977922  23.4018636   9.2631823  37.6660919  22.5509429   9.6679592
  36.6350889  23.3084607   8.8591403  35.3689241  35.9388208   3.6673310
  35.9651542  35.9169340   2.9188243  34.5410132  36.2541866   3.3049205
  19.6606785  56.8340063   8.3206517  18.9967972  56.1675549   8.4976697
  19.1656643  57.6490450   8.2375503  46.6051292  29.6936893  19.2632759
  45.8250570  29.5394945  18.7304163  46.6228247  30.6418586  19.3932450
  73.0567026  34.6859813   2.7789637  72.1252823  34.7353959   2.5639087
  73.4049225  35.5432367   2.5338316  60.9425545  41.6705656  18.8782525
  60.2133274  41.4068174  19.4394076  60.6309891  41.5072107  17.9880416
   3.0302483  68.9453983  40.3457451   3.7532574  68.4122276  40.6762218
   3.2310921  69.0730906  39.4186068  77.3463011  31.3371396  11.5459049
  78.0422735  31.1843681  12.1850550  77.8083086  31.5164757  10.7269907
  60.3267622  51.8312168   7.8672528  60.9512997  52.4145079   7.4360245
  60.5289316  51.9108868   8.7994611  11.9176467   3.1756546  52.3448824
  11.6574224   2.2635081  52.2164070  12.7323397   3.1241705  52.8447365
  23.3925112  16.9326784  59.9296158  22.8204640  16.9061663  59.1626143
  23.7340506  16.0416319  60.0045877  28.6552151  22.7445080  52.3833167
  29.2178257  23.4786322  52.1368062  29.0049036  22.4461605  53.2229220
  71.4502247  13.1831887  53.9875578  70.8191880  13.8225701  54.3180322
  72.1898564  13.7105610  53.6858069  55.4404783  33.6118054  12.3121786
  55.2638912  34.5486379  12.3981655  55.9467697  33.5367608  11.5033114
  61.6212044  71.5825624  33.1827223  61.9722305  71.3022680  32.3374712
  61.9306980  72.4826665  33.2840049   9.5061358  26.4941551  40.4135167
   9.3641504  26.8035223  41.3081443   9.8960479  27.2418453  39.9605762
  67.8839646  67.1021242  52.6104140  68.7702046  67.2778864  52.2943091
  67.8829108  67.4241872  53.5118055  14.5637375  29.5473623  14.3278730
  14.1891056  28.8314581  13.8146842  15.4975754  29.3431687  14.3777502
  54.3637896  14.3394184  35.0419402  54.0518475  14.4344115  34.1419959
  55.1908255  13.8645375  34.9598956  63.7369871  46.6149282   0.7390954
  63.5433483  47.5099468   1.0178045  64.6882010  46.5974140   0.6336415
  28.5798526  43.1762314  18.8598120  29.0642715  43.7449408  18.2613611
  29.1769195  43.0383348  19.5951533  59.9486146  66.8033381  45.4740679
  59.9830423  67.6686568  45.0663053  60.7086001  66.7822046  46.0556256
  15.7601118  42.8904915  14.4219398  16.1549747  42.1415091  13.9754677
  16.2753439  42.9910946  15.2223432  38.0003166  26.0650277   8.5955435
  37.8114080  25.1451492   8.7809283  38.4072804  26.0560894   7.7292109
  19.6757180  44.6224594   9.5881534  19.2255837  45.1704216   8.9452350
  20.5367619  45.0285101   9.6879673  67.3349905   8.2883722  16.0474122
  66.9144344   7.5183588  15.6647301  67.8065205   7.9502308  16.8086946
  32.0585203  34.5146370  13.6395586  32.8591943  34.3338203  13.1471586
  31.5280581  35.0472856  13.0469990  34.3035706  15.4130080  38.7079584
  34.4979199  14.8791172  39.4782936  33.3644017  15.5877735  38.7684190
  30.2534056  74.0330124   0.0606552  31.0168386  74.6104050   0.0561150
  29.5044088  74.6266890   0.1133860  26.1163757   3.5774619   3.7412801
  26.5046261   4.4086845   4.0143514  25.1728485   3.7381084   3.7542158
  69.3577957  33.2499909  19.8542011  68.6665392  33.4533572  19.2240953
  68.9116716  32.7717376  20.5531120  16.0932597  11.9472983  57.3254418
  16.4067229  12.5690224  57.9822772  15.2877148  11.5899327  57.6990956
  34.5523222   6.5815403  44.5364153  33.8667830   7.2447588  44.4563472
  35.3706129   7.0734598  44.4682395  38.5316904  17.2906687  55.9199607
  38.2708605  17.4874546  56.8196690  39.0120276  18.0678274  55.6344163
  56.2665510  57.0299435   3.3680233  56.5609741  57.7396345   2.7971575
  55.7312250  56.4737463   2.8020737  46.2181234  37.4296117   0.7842355
  46.2310362  36.4917469   0.9752174  46.2237930  37.4794888  -0.1716473
  25.3457459   7.5480749  43.0301487  25.7813366   7.1185734  42.2939288
  25.8638152   8.3374121  43.1875741  44.0575409  27.2965336   5.0191665
  44.0830421  28.2375765   5.1924270  44.5252132  27.1928144   4.1904604
  51.1045122  57.9218340  33.2235312  50.7001305  57.6502085  32.3995638
  52.0270967  58.0540657  33.0053973  72.4647141  38.0537224  17.7847016
  73.2002258  38.1675863  18.3866012  71.7771053  38.6186886  18.1371796
  12.6965386  59.1700459   6.3273394  12.6662022  58.6663151   7.1407092
  12.8744561  60.0677013   6.6080356  70.2056503  64.6540642   9.4404685
  70.7969618  64.3414783   8.7557214  70.5485010  65.5155945   9.6780598
   0.6176811  41.7936182  10.5689085   0.4478508  41.7242527  11.5083635
   0.0500637  42.5060701  10.2748668  54.9463415  58.8343906  14.6608984
  54.4804049  59.4986296  14.1530395  54.2816353  58.1749153  14.8596203
  72.8833352  74.0514393  47.8830647  73.6884127  73.6316628  48.1861615
  72.5088082  73.4291382  47.2596037   9.6652826   3.2863047  49.8262417
   9.2246946   2.4365427  49.8222422  10.5305942   3.1091883  49.4573271
   4.8392350  28.6869597  49.1114902   3.8960701  28.5393906  49.0415859
   5.0238091  28.6172009  50.0481319  76.4399443  43.4655948  62.0070928
  75.5155716  43.4452362  62.2547847  76.7312537  42.5579561  62.0940566
  13.4330336  62.3781366  54.8133969  12.9738442  62.6571841  54.0212416
  13.7348954  63.1929584  55.2148628   4.3707546  12.1521046  63.4026497
   4.8059924  12.6897576  62.7410390   4.9371060  11.3865473  63.4996187
  50.4491138  66.3101530  21.5305901  51.3360977  66.6311216  21.6932845
  50.3739548  65.5271196  22.0759749  60.4618645  37.6461124  20.0592160
  60.0194597  36.8211317  19.8594224  59.8490381  38.1155896  20.6251407
  54.6857500  71.7544651   9.3039334  55.1278448  72.0538664   8.5094893
  53.7819386  71.5976810   9.0304726  48.5346556  12.9770422  27.9497552
  47.7370024  12.4593210  28.0590439  48.9144897  12.6615500  27.1297407
  36.7799449  34.3564057  10.3956020  37.3111820  34.9839854  10.8856630
  37.4161410  33.7559867  10.0070345  45.5515679  10.5366661  47.7183747
  45.5267294  10.6944277  46.7745912  45.1448449  11.3136723  48.1018793
  35.9366846  76.3511133   1.6288932  35.3961825  76.2814808   2.4158123
  36.5675664  77.0417452   1.8319939  35.5637280  73.5432930  48.5291445
  35.1870457  72.6844783  48.3373498  34.8981206  73.9842696  49.0571057
  23.8198137  16.0163009   7.5578183  24.6800303  16.3791108   7.3465627
  23.5263681  16.5216029   8.3159685  56.9337817  27.2072794  62.9794201
  57.7660521  26.9106676  62.6112076  56.5223568  27.7038862  62.2720709
  22.2613637  66.6258283  55.6111216  22.8799025  67.3361344  55.7817232
  22.7144400  65.8369942  55.9089374   1.1864535  73.3302445  63.9017567
   0.9008614  72.7743669  63.1767246   1.2084595  74.2130585  63.5324490
  51.3085270  47.0085192  16.4963186  51.2364817  47.7981377  15.9600830
  50.7372427  47.1751976  17.2460401  14.0685032  12.4403198  23.7970805
  14.6606157  12.0941455  24.4647646  13.7981937  13.2937629  24.1359091
  61.7412043  54.5516539  25.5099130  61.9160414  53.6787796  25.1581311
  61.6955423  55.1161575  24.7382355  11.4566771  73.3757014  58.5925817
  10.5825965  72.9855557  58.5906809  11.9200627  72.9286094  57.8843367
  54.4195946  31.5413620  60.4674959  53.8497647  30.9489205  59.9770367
  53.8887318  32.3261215  60.6037682  43.3304071  62.3870611  19.3129218
  42.8802013  61.8342829  18.6741900  43.2970905  63.2658005  18.9348459
  41.4320850  28.9166260  24.0342259  41.0044861  28.7765169  23.1893826
  42.2717047  28.4637332  23.9557433  12.4740426  74.6766920  23.1971657
  13.0738274  74.5951314  23.9386761  13.0461756  74.7701998  22.4354898
  50.4346752  33.2332611   3.8165683  50.1198149  33.6683130   3.0242157
  51.1849165  33.7579966   4.0958953  28.8777407   3.8824274  64.7876219
  29.2957552   3.0228617  64.8389936  28.8766344   4.0927984  63.8538262
  71.0551929  35.5144429   5.5089533  70.6879950  34.6348810   5.5971032
  70.6658840  36.0098410   6.2295431  33.1722641  17.9807067  20.8069468
  33.1422830  17.1961498  21.3544893  32.5123453  18.5619545  21.1849546
  40.3846407  33.2111955  12.0318544  40.6063223  34.0574670  12.4203300
  39.5937276  32.9349327  12.4948525  20.2960030  48.6476166  61.1427736
  21.0001294  48.7180479  61.7873480  20.6343667  48.0415131  60.4836982
   9.2641884  54.5846510  30.7162404   9.5165879  54.9116230  29.8527503
   8.4431702  54.1165352  30.5645013   0.1428276  28.2646918  34.9104691
  -0.2281040  28.4619069  34.0503812   0.6085736  29.0630817  35.1592278
  67.9665661  44.5655918  27.5356197  67.9185057  44.6192837  28.4901047
  67.1443844  44.9506760  27.2323680  58.7096024  75.8304596   7.7920371
  57.8276205  75.9477901   7.4390912  59.0557861  76.7192793   7.8719932
  57.0236492  74.5996571  10.2010310  56.2120342  74.9276257   9.8137933
  57.6252842  74.5160103   9.4612551  48.5774469  69.4236994   2.2432061
  48.6221170  70.3141880   2.5914398  47.7467728  69.0795374   2.5714800
  74.7449160  30.7867789  22.0358014  75.2763605  30.6585670  22.8215265
  75.3615618  30.6865597  21.3105845  32.1879586  17.5270703  59.0262073
  31.2828120  17.2717526  59.2044174  32.6662167  17.2825053  59.8184764
  51.5382099  63.7926388  30.2498007  52.0522738  63.0081081  30.4408264
  51.9772005  64.1893005  29.4973540  75.7401037  36.8104720  16.9968653
  75.4663801  36.8999147  16.0840082  76.6673899  37.0478702  16.9932210
  72.4863301  71.2786312  43.6455953  72.7525769  71.6768284  42.8168714
  72.8388558  70.3894920  43.6082661  67.7075911  46.4614820  24.7577548
  66.8073606  46.7792320  24.8273778  68.1415319  47.0946789  24.1859245
  66.9421254  73.9723368  57.9500263  66.6502724  74.1177340  57.0500737
  66.9355259  73.0207343  58.0531740  76.6100313  40.7107737  62.9096707
  76.0766627  40.6996252  63.7044194  77.4873783  40.9438517  63.2132709
  64.6793413  34.6988320  36.1659455  64.7962856  35.3610635  35.4847646
  63.8452482  34.2804933  35.9526038  46.6316557  20.8076096  13.1372714
  46.0575294  20.0724792  12.9223502  47.4651718  20.3998256  13.3721995
  64.7739579  11.4941170  43.1750118  64.8415520  10.5424597  43.2525455
  65.6672611  11.7833187  42.9889881   9.7197278  21.1339905  63.9906629
  10.1009806  20.4204371  63.4790766   8.8598355  21.2788632  63.5959124
  61.4229012  30.8505177  38.7535620  61.4272308  30.3350902  37.9469943
  61.5717077  30.2092195  39.4484162  25.0619562  18.0029537  47.8251147
  25.6079110  18.7590792  48.0406057  25.4486330  17.2798350  48.3188915
  68.6573686  24.1110804  46.9374215  68.4131267  24.8287775  46.3530504
  67.8638055  23.9323952  47.4419641  79.1712761  56.1831951   2.9651698
  78.5485697  55.4570770   3.0001551  78.6277533  56.9682693   3.0320397
  68.5139465  34.2032385   7.9769862  68.3377314  35.0711417   8.3402002
  67.6825190  33.9335608   7.5868124  70.7406044  34.1205335  17.4476242
  69.9711990  34.2851186  17.9927468  70.8676338  34.9346852  16.9605410
  64.0910244  41.7684889  36.1132526  64.2226028  41.1498642  35.3947687
  64.4112158  42.6035166  35.7720137  14.5338456  24.3201001  57.6947730
  14.5793072  25.2751322  57.7403658  15.1560799  24.0832551  57.0070511
  68.4982634  58.1964254   8.0947834  67.9037571  58.6183023   7.4744493
  67.9379797  57.6086855   8.6016119  18.6538331  30.1454229  63.5872468
  17.7733819  29.8529763  63.3516430  18.5625903  31.0871459  63.7323820
  62.8542719  62.8644462  45.0707876  63.4556446  62.4746223  45.7053124
  62.6073513  62.1386786  44.4976174  13.3192881  18.4767964  65.4418288
  12.5468977  18.9857533  65.6880209  13.9855536  19.1342690  65.2416974
  41.9299714  75.0919337  63.9227893  42.4319188  74.8463817  63.1456255
  42.2753445  75.9497995  64.1698043  74.8258877  51.1361647   4.1817927
  74.9617004  52.0551586   3.9510715  75.3691959  51.0013390   4.9582398
  57.0216417  45.0902224  14.2835128  56.9187737  45.1708555  13.3352780
  57.4753666  45.8917189  14.5442188  20.2248549  20.0517416   5.2144569
  19.3322861  20.2918077   5.4632914  20.6499314  19.8209989   6.0404724
  60.0885630  14.0263355  54.4113111  59.8792934  13.2860553  54.9808931
  60.3460455  13.6247408  53.5814571  61.4841795  28.3669233  39.6824718
  60.8464050  27.7217817  39.3770766  61.0830927  28.7493420  40.4629326
  18.3885634  31.1527276   1.2686950  18.9483929  30.8948112   2.0010221
  17.9154789  30.3538275   1.0359255  23.9969834  23.1402113  62.8338256
  24.0577420  23.8496258  63.4735703  23.2960375  22.5786307  63.1647732
   5.2600018  63.4800882  52.8681957   5.0826232  63.2152672  51.9656240
   4.7346799  64.2703743  52.9935681  18.7264458  69.1258473  60.9110045
  18.2691972  69.3811126  60.1097589  19.2079369  69.9107428  61.1724150
  70.4563151  67.6208587  52.2056603  70.9651671  68.2230635  51.6628396
  71.1139450  67.1055241  52.6727676  14.2294804  64.4280000  64.0300846
  13.4608571  64.2467160  63.4891724  14.3460576  65.3762026  63.9704893
  40.8223581  31.8712687   6.7919159  40.0711727  32.0688653   6.2325311
  41.5822029  32.1445322   6.2779140   9.6573559  53.3738489  33.8917767
  10.1286856  52.5895913  34.1728794  10.1511685  54.0996916  34.2732679
   6.4077717  52.1311331  24.9391651   6.2814671  53.0428743  25.2018595
   5.8616406  51.6296101  25.5445051   3.7308461   3.7319025  36.8946075
   3.3098656   3.0286369  36.4002109   4.5212323   3.9361298  36.3948035
  49.8665539  15.0590236  10.6870973  49.6086375  15.6046111  11.4300907
  49.5094697  14.1943080  10.8895564  77.3110437  48.9541197   4.3163893
  77.3656559  49.8336172   4.6901959  77.6993608  49.0394115   3.4456620
  61.3333654  39.4616961  22.6115227  60.4973125  39.0473747  22.3980165
  61.0924482  40.3134394  22.9758453  44.2765236  66.6777849  29.0559673
  44.4673157  67.5582933  28.7326407  44.5972490  66.0951328  28.3675718
  45.3936243  40.3211975   6.5468657  45.4464054  41.0942554   5.9848821
  44.6689510  39.8111033   6.1850798  37.2136641  24.0336895  18.2653117
  37.7302575  23.3178806  18.6354232  36.4782166  24.1355705  18.8694370
   8.4891564  53.9579535   2.6500601   8.0336624  53.4078789   3.2873744
   7.7929646  54.3050623   2.0923376  73.5281746   1.0266597  28.7733078
  73.5862199   1.3431318  27.8718066  72.8273384   0.3749902  28.7537217
  69.9436800   1.7577131   4.5055151  70.3680126   2.1181924   5.2841234
  69.8245422   0.8293206   4.7058189   2.1900231  74.4226503  26.9103956
   2.2828251  73.4779072  27.0331764   2.0627838  74.7676754  27.7941370
   4.8050076  65.9020042  18.7028122   5.7047325  65.6019306  18.5736620
   4.3774849  65.7466221  17.8606069  67.7288961  65.7964945  15.2551723
  66.8518639  66.1697054  15.1670790  68.0095100  65.6292629  14.3554389
  75.3175680   3.6667640  24.2918825  75.1204149   3.4563453  23.3791471
  76.0830490   3.1315143  24.5011139  55.5449390  68.0331278  30.3040433
  55.1023245  68.3820295  31.0777307  54.9234104  68.1721258  29.5894718
  68.0098820  54.8427582  33.8032079  68.3367157  54.6861553  34.6891451
  67.3816538  55.5580759  33.9026380  80.3877163  59.9256659  10.6602192
  80.6689072  60.0347042  11.5686643  80.7016468  59.0552521  10.4151547
  64.1047049  34.8234868  56.9960165  63.5826492  34.8728013  57.7968025
  64.1689682  35.7301092  56.6957855  46.4927673  23.1787992  18.6451316
  46.7942381  24.0800452  18.5306799  46.2848902  22.8814650  17.7593482
  68.1299029  66.2143178  61.3183408  68.7396584  65.8172269  60.6964492
  68.6214171  66.9380112  61.7068192  17.3456732  64.7764010  62.8218349
  16.9384543  64.0265985  63.2556557  18.2815234  64.5753951  62.8244197
  12.3414475  37.3765397  24.1400838  12.2970158  37.4484134  23.1866217
  13.1941086  36.9763970  24.3106318  66.0397959  58.7071705  22.8961039
  65.3304863  58.0644941  22.8872037  66.4841652  58.5850716  22.0571423
  66.9431686  71.0657310  18.4006596  66.0421324  70.9717131  18.7097251
  67.1156597  70.2584219  17.9161692  60.3295565  30.8346796  32.9561090
  61.0197115  30.8351326  32.2928429  59.9669743  31.7200041  32.9250813
  63.8765907  49.3257570  20.4920387  63.4886360  50.0134134  21.0332012
  64.6265888  49.0159512  20.9997320  26.6005095  15.6719782  62.4705725
  26.4099224  16.4853909  62.9377645  26.5015467  15.8981230  61.5457496
  54.2942381  67.8690577  34.3725300  54.7978544  68.3447218  33.7119675
  54.7427654  68.0570936  35.1969671  70.8390037  10.8544357   1.4478762
  70.3754846  11.6528518   1.1950442  71.0651247  10.4355819   0.6174165
  74.3071087  28.9784958  56.5820729  73.8301285  28.2068732  56.8875670
  73.9659603  29.1380932  55.7020866  74.6724224  69.2429638  48.7803030
  74.3080473  68.6908436  48.0884743  73.9248133  69.4480228  49.3417883
  78.0576897  67.2868872  12.3699367  78.9187431  67.7035189  12.4050939
  77.5791121  67.7818108  11.7049253  63.4617472  69.4983482   5.1773369
  62.9864168  69.2498255   5.9701353  63.8239431  68.6759901   4.8475257
  45.7521486  54.0264511  10.4759049  45.0796127  53.9557791  11.1533535
  46.2776661  54.7823238  10.7380426  51.6276169  55.1754856  18.1691396
  51.3890171  55.1899672  17.2422671  50.9247684  54.6801186  18.5896778
  78.6967508   5.6444843   1.8692040  78.6128036   4.7073753   1.6931063
  78.7034361   6.0513408   1.0028017  29.2649410   3.7094981  21.0178018
  29.0847252   4.3207748  21.7320108  29.5025490   2.8923900  21.4561033
  19.3912313   2.5231130  35.6647730  18.7323759   3.1494481  35.9645176
  20.2051018   3.0262191  35.6375766  27.2039652  73.9534283   2.7008083
  28.1427622  73.7747574   2.6463577  27.1167779  74.5524979   3.4422594
  20.6100281  23.6434176  62.3733037  21.2365778  24.2248156  61.9424447
  21.0530861  23.3658077  63.1750905  69.8345852  65.5637264  17.0213807
  70.3340244  66.3735294  16.9164610  69.1022539  65.6532621  16.4115369
  69.4702427   3.2287557  18.2556427  70.2534715   3.7564952  18.4114420
  69.6372358   2.4091203  18.7209892  68.6720753  36.7939305   3.0631387
  69.0342379  37.3840261   3.7240899  67.7633286  36.6610336   3.3328676
  50.4431725  54.5213795  12.7879798  49.7131586  55.0564909  13.0993783
  51.0726166  54.5320415  13.5090327  75.3991127  26.1660457   4.3683758
  75.5225420  26.6134572   5.2055252  74.4552708  26.2037277   4.2135414
  47.2963476  55.1798677   7.3440599  47.7999640  54.9949598   8.1367832
  46.4935017  54.6686459   7.4456549  79.7138309  52.2261572   7.1483988
  80.4357052  52.0299006   7.7455676  80.1415348  52.4672031   6.3266909
  32.9077576   8.4906203   6.0925466  33.2050083   7.5997932   5.9073615
  32.2533176   8.3860309   6.7832011  56.6343737  32.4750471  14.3300211
  55.8695030  32.0083237  14.6667349  56.2950945  32.9984665  13.6039674
   3.2885510  71.3965893  13.2679367   2.6823002  71.9085073  13.8033140
   4.1521889  71.5904093  13.6323571  68.2383776  46.4179277  37.8972912
  68.5105419  47.3137379  38.0964971  68.6823225  46.2099409  37.0751667
  67.8163624  49.3052292   0.9009545  67.2157955  49.7898579   0.3346647
  68.0805111  49.9389172   1.5679643  66.0966253  66.4144421  42.6181555
  66.7825270  65.7862711  42.8443766  65.2991390  66.0452795  42.9975891
   4.1706197  70.3845472  57.8978639   4.9793069  70.1100082  58.3301675
   4.4218461  71.1531992  57.3857212   4.1924816  75.5392551  40.4048014
   3.7825352  76.3982677  40.3034210   3.5990864  74.9363279  39.9569273
  72.3989773  31.9394302  18.1299090  73.1118774  31.9817281  17.4925590
  71.6825771  32.4245882  17.7204895  67.5787354  33.8565707  17.7258396
  67.6649714  34.7749496  17.4701524  66.6557360  33.6519146  17.5760972
  78.6706352  44.5432949  17.6953280  78.8029766  45.1078558  18.4568977
  77.7771378  44.7328568  17.4090385  66.9782058  11.5781886   8.1292880
  67.8638975  11.4578540   7.7867943  66.4605705  11.8402774   7.3679763
  41.8306740  26.0984709  53.8271141  42.5101193  25.4691221  54.0690052
  41.0225113  25.5856755  53.8152003  35.0453758  58.5589981   0.1574513
  34.8294425  57.7666330   0.6491408  35.4021502  59.1580534   0.8132531
  48.0216742  61.8310070   8.0075508  47.9479599  62.7056980   7.6258236
  48.2464075  61.2654161   7.2687453  39.7330753   3.5015495   9.0107906
  39.3939463   4.1585357   8.4028524  40.6272844   3.7872607   9.1978478
  10.1973206  50.1080751  15.7381976   9.4426876  50.3053427  15.1833510
  10.7041794  50.9199619  15.7506871   4.1486317  70.9150410  51.9393682
   5.0939804  70.8016682  51.8409586   3.7842900  70.6251764  51.1030293
  42.1556377  73.3329678  11.4036584  41.6275930  73.4388924  10.6123424
  43.0425882  73.1747913  11.0803437  76.6890430  14.0331662  40.4635334
  76.8279791  14.6160364  39.7170806  76.9148731  14.5641112  41.2272930
  54.1322803  56.1331558  13.1582737  53.9184713  56.7810011  12.4868453
  55.0092316  55.8278751  12.9259074  30.3447674  31.0007007  22.1946573
  30.6361530  31.1990840  21.3047266  31.1544559  30.9076125  22.6966310
  11.1382196   5.0645835  35.3362274  11.0327242   5.8306606  35.9003472
  11.7618797   5.3445728  34.6662331  13.9799649  39.7563243  39.2729449
  14.0780884  40.7066727  39.3316531  14.5437676  39.4140196  39.9666166
  78.3616543  55.4290485  13.6472750  79.1929913  55.4095888  13.1732106
  78.5287142  54.9262762  14.4444835  25.0050257   2.8574044  16.8131685
  24.6596144   1.9994743  16.5664423  24.5481441   3.0749089  17.6256859
  39.7666987  19.2978241  64.5198568  39.3487461  18.6610939  65.0996153
  40.1415547  19.9503948  65.1113514  20.9610897  45.7279778  16.3014364
  20.0062329  45.6724596  16.3389361  21.2156922  45.0533581  15.6719089
  35.8214005  10.1732733  60.1127696  36.5031584   9.6461966  60.5294609
  36.2542256  10.5707361  59.3571788  72.4834824  36.4706779   8.8369894
  71.7149734  36.8794656   8.4388411  72.1483135  36.0519075   9.6297854
  26.0497618  54.4452286  33.7792683  26.0939789  55.3767586  33.9949775
  25.1284719  54.2912912  33.5700798  65.6891193  31.1299424   7.8564251
  65.2266731  31.1789803   7.0197809  65.3221454  30.3584199   8.2880724
  34.0430601  13.2644179  60.8909976  33.6279496  12.9678967  61.7009297
  33.7989958  12.6050617  60.2414494  25.0012873   2.4497993  21.9526100
  25.1367901   2.2703273  22.8830194  25.2437256   3.3699043  21.8483806
  41.9859982  63.3170891  12.7831435  41.2609005  62.8302622  12.3914003
  41.5921259  64.1387606  13.0763113  56.1934614  60.8889961  18.1015599
  55.3575611  60.4231834  18.1245351  56.5382051  60.7192850  17.2248721
  52.4343920  69.8614836   9.0244246  52.1933508  70.4328489   9.7535825
  52.5808144  69.0062380   9.4285804  69.3599709   9.3974831  62.0803192
  69.6185120   8.8116171  62.7917599  68.6282166   9.9002840  62.4380496
  55.3149843  48.0042505  15.9545958  55.5299425  48.6876917  16.5893698
  55.5278683  47.1856451  16.4026999  68.1733934   5.3367049  33.7728333
  68.0382911   5.5966861  34.6840906  68.9923612   5.7634170  33.5209322
  29.7625492  10.0933463   2.5602382  29.4462059  10.8945758   2.1428816
  29.6543262  10.2528674   3.4978274   1.0417173   0.6704671  39.4444561
   0.8238886   0.8011062  40.3673410   1.2155483   1.5512330  39.1123915
  41.0098656  21.6579630  65.6304626  41.8818768  21.5277292  66.0031111
  41.1735209  22.0057966  64.7538447  69.0323830  70.9382629  11.6068697
  69.1427565  71.5370846  12.3454249  68.0868721  70.9103727  11.4603686
  29.5042968  67.3403835   7.4555445  30.0743723  67.6929617   8.1388712
  30.0470638  67.3406172   6.6671062  13.7446402   8.4123904  17.2488034
  12.8716705   8.2534225  16.8898022  13.6044977   9.0562827  17.9430699
  62.9091597  53.6441278  12.9018319  63.0696583  52.7128744  13.0542541
  62.9523849  54.0402126  13.7721658  22.9988154  10.5525019  65.9361774
  22.7265747   9.7221281  66.3268089  22.1862896  10.9444239  65.6161262
  78.7892191  12.5539691  39.3909931  78.1333248  12.9036624  39.9941134
  78.4694568  12.7971084  38.5221601   7.1804778  75.7082386  62.9853516
   8.1179778  75.8837194  62.9045179   6.8963162  76.2567039  63.7165641
  48.9351845  60.4794312  10.2203274  49.4786644  59.8126602   9.8004705
  48.7537050  61.1126566   9.5258355  55.0902756  12.1275522  39.8541271
  55.2434071  11.8699934  38.9450347  54.1392239  12.2117474  39.9222624
  33.9920529  22.5231936  46.1839401  34.1372546  23.3636286  46.6184651
  34.7924956  22.0256426  46.3511908  58.2174253  42.4040413  18.5141635
  58.4843969  41.8210316  19.2248392  57.3906946  42.7828598  18.8129020
  18.4438473  46.8764448  13.8990808  18.0837780  46.5751219  14.7332191
  17.9711300  46.3711882  13.2376575  74.1225950  19.9555976  27.2425890
  74.5757429  20.6206710  27.7608204  74.2944185  19.1345508  27.7036500
  62.9256161  31.7192032  58.3966821  63.3883866  31.1191609  57.8118556
  62.3869618  32.2541144  57.8136295  37.3112917  58.5100460  36.3376164
  36.3552189  58.5376740  36.3749671  37.5062943  57.8261948  35.6968760
  45.7475424  60.4452467   3.3565348  44.9238682  60.0964546   3.6973244
  46.4242363  60.0161934   3.8802072  79.9400043  28.5298872  18.2229352
  80.3459740  28.6898947  19.0748847  79.3192863  27.8190541  18.3831227
  78.9679901  20.7530029  28.5666561  79.6045820  21.4451320  28.3879209
  78.4095422  21.1132915  29.2555356  55.4911240   7.9465296  63.5179615
  56.4296635   7.8121903  63.3862695  55.3622731   8.8853409  63.3828130
  14.2265175   9.1447170  11.7063558  13.5629700   8.6549289  12.1922112
  15.0424145   8.9743144  12.1769989  12.4711321  24.6167190  25.5566502
  11.5620230  24.3704707  25.3860259  12.6687477  24.2278106  26.4086604
  23.0298231  20.7469756  30.5173850  23.9297007  20.4461105  30.6436086
  23.0857656  21.7007644  30.5756927  12.6082093  55.5978346  16.4753890
  13.4463269  55.4468632  16.9124246  11.9741398  55.6634426  17.1894479
  74.6146917  60.0917339  46.9783926  74.6382189  59.4129372  47.6528645
  75.1263189  60.8124113  47.3459387  77.7406065  18.3635814  14.3623638
  78.3627025  17.6365192  14.3870711  77.2189562  18.2058341  13.5754561
  43.9301672  53.8962941   0.0168884  43.0452909  54.0750413  -0.3013527
  43.8024416  53.3121495   0.7643450  15.5372016  73.7409158  56.5797168
  15.9911696  73.1337805  57.1641266  15.9186761  74.5958371  56.7792612
  38.6727293  22.0931723  56.5951895  38.1706150  22.3021080  57.3828822
  39.4736775  22.6108219  56.6773968  49.4997215  70.7658243  22.5864768
  48.7091017  71.0430527  23.0493999  49.4217777  69.8135710  22.5283885
  55.7804060  45.2652788  16.7569554  55.5266523  44.8252439  15.9456527
  55.8801174  44.5566654  17.3926878  15.9348456  29.9385668  63.1117868
  15.6451146  30.4787357  62.3765975  15.2691523  30.0746949  63.7859907
  65.7509661   8.5800707   0.9062485  66.4326525   9.0755832   0.4523754
  65.4572964   7.9335076   0.2644177  14.0164334  32.0248151  39.9371982
  13.7294251  32.9246640  39.7818637  14.4280869  31.7593718  39.1148138
  65.9530687  56.3181448  19.9515283  65.2435112  56.4829636  19.3305635
  66.3677025  55.5159616  19.6340251  75.0044537  72.6729298  18.2673550
  74.7215033  73.1702709  19.0347052  74.5084763  73.0505419  17.5409603
  10.7625006   7.6461417  36.0429668  10.4712532   7.7414329  35.1361442
   9.9772880   7.8102596  36.5652156   5.8720873  11.0558135  59.9062109
   5.1080368  10.8151633  59.3822479   6.6189573  10.7281310  59.4051743
  78.7196930  18.1174090  56.5056765  78.8232144  17.2067978  56.7819029
  77.9568871  18.4300186  56.9921243  20.2050018  65.2648020  62.8323936
  20.7919216  65.7183170  62.2273445  20.7008576  64.4970369  63.1168175
  79.8344135  73.4707212   7.0965666  80.3538513  73.2243490   7.8618890
  79.8580599  72.6979685   6.5321887  39.6172818  16.7807343  52.9476881
  39.3783434  16.8306353  53.8732421  40.3467282  17.3935940  52.8552556
  57.2004986  25.9279656  18.9942813  57.8902674  25.6738973  19.6073878
  57.5235033  26.7336512  18.5908306  70.5451536  41.3171768  10.7235467
  69.8951769  41.2085438  11.4177787  70.6422663  42.2650814  10.6325531
  27.0351609  14.6955969  57.8607696  27.9498824  14.9766161  57.8373932
  26.5687092  15.3553965  57.3476189  39.6977528  14.9376108  66.3246188
  40.3332527  14.9475338  67.0403551  40.2089318  14.6909287  65.5538544
  69.9566746  60.4046297  26.2936521  69.6867561  60.9828329  25.5801702
  70.8960819  60.5625057  26.3875365   6.8935162  28.2445121  28.8455629
   6.2230736  28.1993818  29.5272517   7.6079994  28.7408423  29.2448092
  66.9725408  25.0761988  40.2433049  66.8934478  24.4677117  39.5086467
  67.9039373  25.2948000  40.2740371  23.8268971  68.2478380  14.6437585
  23.1393838  68.5184050  15.2523220  23.5652375  67.3715830  14.3610132
  59.1274730  12.9348094  13.7007105  59.2313186  12.0568664  14.0676701
  58.7078063  12.7917297  12.8523934  70.4262066  40.7555723  28.1184888
  71.0061407  40.0077724  27.9745913  70.0793076  40.6233501  29.0007663
  33.4539181  75.3139162   8.7834156  34.3802315  75.5061197   8.9291292
  33.1951004  75.9046841   8.0761409   6.3722664  38.2901716  33.4381127
   5.4365402  38.0887818  33.4477353   6.6050488  38.3910704  34.3610764
  62.1983671  56.2136316  46.7713165  62.8403711  56.8982077  46.5831232
  62.6153183  55.4055309  46.4723873  34.1624181  75.1249976  63.4454229
  34.4136636  75.9707327  63.0741563  34.9606911  74.7993202  63.8612627
  69.6769945  32.8845222  10.0377917  69.3465988  33.4407718   9.3323386
  69.3582622  32.0083244   9.8211801  68.0197191  59.8176098  28.0745292
  68.0064011  60.7504797  28.2885456  68.5928154  59.7553444  27.3103833
   6.1409813  76.0084820  37.9791069   6.9256550  75.7039452  38.4349442
   5.4209954  75.7940531  38.5722899  78.1285715  75.1087189  42.3856115
  78.3915043  76.0172749  42.5326443  77.4978590  74.9261951  43.0821180
  42.2849711  37.0065214  61.8016007  41.5841015  37.0395281  62.4526950
  42.8779515  36.3269665  62.1222433  16.4930016  44.9270916  12.9531753
  16.2404496  44.3161249  13.6453962  16.0982472  44.5661402  12.1593750
  67.2200918   9.1433406  34.6056175  66.2981176   9.2407978  34.3675113
  67.2681761   8.2877463  35.0320888  12.8837870   4.9518020  20.8374596
  13.1181763   5.4399020  21.6267967  12.8683613   4.0366180  21.1175132
   4.9342732  28.2868678  56.2009859   5.3553871  27.5807864  55.7107306
   5.1198677  29.0758331  55.6917524   8.8823088  39.6334173  64.2713434
   9.3449529  39.4136812  65.0799888   9.4604500  39.3254664  63.5733819
  56.0694695  72.6622200   7.0320630  56.7639828  72.2031784   6.5596575
  56.0475111  73.5341740   6.6378021   5.6488663  61.0605431   8.4711003
   6.0531384  60.1936817   8.5078341   5.5250603  61.2276840   7.5367731
  12.1786839  55.5511618   1.8965502  11.8577725  54.6494627   1.9103758
  12.7557904  55.6116962   2.6578060  70.7210255  76.3295650  51.3025284
  69.7991037  76.1698294  51.1006021  70.7118177  77.0999861  51.8705034
  32.9205082   9.0046699  12.4055600  33.1434009   8.1215961  12.1110559
  33.3683632   9.0968806  13.2464838  16.8801020  23.0517108  18.8558078
  16.4389799  22.2064121  18.7714624  17.8046368  22.8555972  18.7041259
  37.7239227  69.9050426   2.9503658  37.9788208  69.0114164   3.1799215
  38.4777546  70.4403019   3.1982812  48.2737446  67.0027590  39.3581629
  48.6549807  67.5024080  40.0801325  48.2636070  66.0984612  39.6718025
   0.1289231  50.2792215  10.2609885   0.7934719  50.5110073   9.6122330
   0.6263119  49.9187040  10.9950626   4.5827538  68.9261484  20.2057695
   4.4289070  68.0225611  19.9299276   5.3132588  68.8675261  20.8215284
   9.8413990  13.1593520  27.4330163  10.0303123  12.6043899  26.6763377
  10.6224630  13.7038142  27.5316787  48.6049509  61.9155884  36.3739562
  47.7507257  62.0139599  36.7944932  49.2149544  62.3576689  36.9644618
  34.2290932  52.4115372  26.0388589  33.7061840  52.3408651  26.8374872
  34.5021206  53.3285713  26.0117078  64.1555587  29.2485339  17.7589285
  63.5349719  28.8535602  17.1464729  64.8851697  28.6298759  17.7929378
  79.0383148  49.4840717  11.2730563  78.8041735  48.5763311  11.0796201
  79.6640635  49.7210884  10.5885911  68.3400726  57.5899220  13.3167934
  67.6956892  57.6114988  12.6093054  69.1765118  57.7616882  12.8842509
   0.3414971  52.5735903  36.9309759  -0.3683799  52.1891451  37.4452806
   0.5717236  51.8953419  36.2959933  59.0229416  48.4600544   3.6569452
  58.3445263  48.9780188   3.2237080  58.6297274  47.5942850   3.7667742
  51.8126297  11.8421304  48.0624199  52.0242929  11.7631972  47.1322584
  52.2400713  11.0889113  48.4700775  29.3813396  39.4857049   3.2347476
  30.0143433  38.9117193   3.6661154  29.9075603  40.2084780   2.8928113
  55.9505926  33.7175102  58.1196957  55.2913485  33.3622916  58.7158906
  55.4451166  34.0794705  57.3918831  76.2755499  38.7908850  55.3908550
  75.6907330  38.3565786  54.7698915  76.6353903  38.0785533  55.9193742
  41.9457340  21.0328555  35.9733343  41.0835457  20.7217789  35.6974697
  41.8805456  21.9869494  35.9322548   5.5225436  50.2071161  56.5280467
   5.7058732  51.1345465  56.3780605   6.2013737  49.7460361  56.0352718
  19.3817107  53.9226468  50.0286602  19.3739049  54.6489794  50.6520473
  18.9632813  53.2003970  50.4971754  48.2885170   3.3778414  32.4071026
  47.3535061   3.5710511  32.3388600  48.3666992   2.8503752  33.2020235
  17.8508908  36.3656116  17.1690571  17.7526623  37.0203495  16.4777541
  17.7587944  35.5260515  16.7186248  23.5337806  23.1415510   5.2224100
  22.7602506  22.7173233   4.8510408  24.2512393  22.5354314   5.0377369
  25.3045472  71.9998237   8.3243215  26.0365399  71.3846849   8.2793182
  24.6449908  71.5490930   8.8516307  79.9672852  48.5382004  63.4879034
  79.3393240  47.8158565  63.4985947  80.1478062  48.7123234  64.4116595
   0.2891594   7.7232236  17.1693075   0.8429581   8.2553107  16.5979803
   0.8657509   7.0247442  17.4789870  57.9125166  22.9756474   3.1105322
  57.1459198  23.1714702   3.6492473  57.5589228  22.5165439   2.3486753
  53.0211687  22.5492668  11.6288579  52.1624136  22.8712034  11.9029498
  53.6228943  23.2634568  11.8388367   5.1564852   2.2309251  65.6897240
   6.0222117   2.6285930  65.5969542   5.3335301   1.2992210  65.8193879
   3.6336952   8.0183816  15.3303432   4.5699364   7.8191876  15.3276920
   3.2192093   7.2257257  14.9895632  57.0580101  12.3365271  28.1692243
  56.6241693  11.5640700  27.8068352  57.7867746  11.9843113  28.6801791
  56.1754189  60.6486721  57.9545378  55.9692893  60.1316471  57.1758025
  56.1737500  61.5552754  57.6474601  46.0272415  76.1686541  31.4126563
  45.9099587  75.2283675  31.2772393  46.2862976  76.5037824  30.5542803
  80.9528542  29.0933013  15.4750729  81.7500401  28.7567163  15.0658798
  80.9806347  28.7530708  16.3693345  65.5467687  46.7969914  10.6524527
  66.0367928  46.5834982   9.8583948  65.4280172  45.9560533  11.0939848
  74.3932009  75.6272888  10.6361973  74.3619823  76.5177631  10.9859288
  75.3233051  75.4011679  10.6394243  26.2115908  35.8681250  18.6321652
  26.2341166  35.2730703  17.8827417  27.0809960  36.2683272  18.6464489
  43.8980246  19.5250845  17.5466073  43.1801605  18.9046121  17.4204493
  44.1324997  19.8033142  16.6612589  71.1462937  46.4709051  66.6115922
  70.9210024  47.3152674  66.2210425  70.6410847  45.8320184  66.1087790
  49.3616009  39.9989414  18.1708217  49.1440058  39.9320269  17.2410882
  48.5530806  40.3006744  18.5849214  35.5510974  41.5372419  18.8391614
  35.2350402  40.9131479  19.4924974  34.8896384  41.5156221  18.1476140
  64.4965587  33.2039924  53.6437797  63.9943157  33.8737689  53.1796848
  64.8488698  32.6456435  52.9507017  75.3259659  34.8385477  18.8592792
  75.6422758  35.5203176  18.2665157  75.5707693  34.0175343  18.4323859
  61.3802862  10.3091812  27.2186899  62.2337914   9.8882306  27.3214746
  61.3103247  10.8958471  27.9717898  27.0555409  10.5786850  53.2162463
  27.5549801  11.2821295  53.6309218  26.7962654  10.9372189  52.3674452
  73.6672640  30.0581288   8.2492226  73.1963301  30.2257872   9.0655202
  73.1116676  30.4395866   7.5694895  74.4442701   8.2942307  14.7358060
  73.9698172   7.6898915  15.3066850  73.7782621   8.9125800  14.4352925
  64.4633198  24.0436220  16.3530791  64.2478514  24.5144653  15.5480266
  63.6279726  23.6832404  16.6506612  79.9617672  36.1217213   7.8004360
  80.7021713  35.5735302   7.5405806  80.3490353  36.9789338   7.9777569
  27.1216981  75.6191082  55.4400813  26.8295209  75.1553412  56.2248003
  28.0661790  75.7194800  55.5589056   4.7806136  67.4521346  47.2603225
   4.6714751  68.3380623  46.9146978   3.8883082  67.1485491  47.4272346
  48.0917549  16.3693345  15.4832590  47.6626825  15.6020510  15.8619440
  48.1166315  17.0065355  16.1971128  22.2584844  15.0191700  38.5595798
  21.3757133  15.0583935  38.1915998  22.3377967  14.1270244  38.8972425
  66.1797438  58.8989444  48.2406842  66.4185868  59.2387433  49.1030788
  67.0123706  58.6383123  47.8469383  56.6465006  68.4677238  44.2930567
  57.3566113  68.7682982  44.8601830  57.0638357  67.8480334  43.6946856
  46.3858271  10.7850492   4.7625431  46.4600945  10.0004697   5.3058213
  45.5404854  10.6929207   4.3230653  15.7185610  74.4452619  45.3577805
  15.9705695  75.3564482  45.2079105  14.7724875  74.4314847  45.2129078
  75.1240826  31.2959909   1.8883310  75.7083750  32.0534015   1.8542358
  75.3542948  30.7808995   1.1150829  61.5433645   0.4764891  13.8646567
  62.0121288   1.0703880  14.4509828  60.7183599   0.2965813  14.3154621
  21.1867817  16.9471218  54.8692488  21.4744528  16.2657740  54.2615926
  20.5622061  17.4690964  54.3655812  44.4185352  16.3674784  12.5540423
  44.1971159  16.1412430  11.6507018  43.5776186  16.3785720  13.0111742
  54.0556288  11.3072133   4.3040347  54.8010778  10.8459771   3.9195833
  54.4457006  12.0482063   4.7677219  51.1354494   6.1336416  23.6780643
  51.4252234   6.6428477  24.4350147  51.0584211   5.2380872  24.0071249
  79.4046879  16.9604087  41.5451241  78.6505032  16.5875852  42.0016766
  79.3706703  17.8948426  41.7498398  27.7908476  72.1288483  41.5252542
  28.6722287  72.3917460  41.7903709  27.2320469  72.8574004  41.7957783
  45.8765896  76.2466734  14.3769884  46.3860091  76.2110018  15.1865864
  46.0434349  75.4054978  13.9517617  61.9552851   6.2510943   6.7874199
  61.4611483   6.0894376   7.5911164  62.2887087   5.3903645   6.5340322
  79.1557370  50.4649801  60.6806558  78.6169205  50.3130682  61.4570754
  78.5352478  50.4505796  59.9519491  49.7470665  16.4277518   3.4956253
  50.5589008  16.4646101   2.9898602  49.0567207  16.5895081   2.8525931
  68.9987135  21.0985756  10.8190084  68.9315033  20.1554894  10.6696701
  68.5918427  21.4928389  10.0474882  24.7404909  11.2431550   8.9238280
  24.8963833  10.6760728   8.1686139  23.9786053  11.7672229   8.6766118
  77.5517178  56.8434191   8.6437011  78.2236671  56.3880825   9.1510355
  77.7137566  56.5775347   7.7385604  54.4086075   9.4063795  12.9952872
  53.9799023  10.1274526  13.4562624  54.7156477   8.8258135  13.6916363
  80.9413014  38.1791174  43.9058125  80.4152356  38.1071626  44.7022473
  81.3454304  37.3170568  43.8070094   2.8012329   8.7510610   4.0413439
   1.9994980   8.4721476   3.5990036   3.3836800   7.9938322   3.9814243
  78.1958924  63.5001082  64.2657533  77.8900967  63.4643168  63.3594197
  78.9067898  62.8602762  64.3041214  61.8816328  45.0849295   2.2361179
  61.5740585  45.6037331   2.9794025  62.5911760  45.6047106   1.8584858
  62.8204346  27.1130538  20.0189710  63.6308575  26.6067719  19.9630284
  63.0186844  27.9331756  19.5669448  34.8729110  20.3934121  20.7384849
  34.3941045  21.0330749  20.2114081  34.2507839  19.6780193  20.8703995
  80.2717743  69.5043106  63.3499756  79.8574982  68.8608212  62.7750611
  79.6376810  70.2192040  63.4055113  60.9514332   9.6025026  15.1473749
  61.5386724   9.9177498  15.8343959  61.5353584   9.3304479  14.4393873
  65.7447577  24.9513888   6.2791294  66.5052795  24.9915981   5.6992835
  65.0428295  24.6026230   5.7296824  70.8053885  66.9915504  56.0505843
  69.9720297  67.4104090  56.2657797  71.2741480  66.9486399  56.8840438
   6.5752465   8.2096857   4.8241308   7.2876507   8.8205266   4.6354690
   6.9371849   7.3481792   4.6166646  28.6627793  12.2947848   1.1625612
  27.8788424  12.2744226   1.7114311  28.3329558  12.1913695   0.2699503
  67.6235151  11.9754112  19.0234280  67.9601717  12.8641367  19.1377091
  66.6738176  12.0673597  19.0999317  73.7596951  49.8075278  37.4742400
  74.0825139  49.5609005  36.6075241  74.4908057  50.2751548  37.8780066
  30.3859862   2.9874089  57.3025065  30.8658274   3.5580590  57.9027926
  30.0663479   3.5748341  56.6176724  22.0510626  26.8217707   3.7548700
  21.9431853  26.0623908   4.3275294  22.1110296  27.5664353   4.3532911
   3.3350007  45.9386421  56.6090810   3.3220927  45.3113718  57.3319900
   2.7712599  46.6542794  56.9028419  78.5011492  12.5590487  52.5938045
  78.7503395  12.9155679  51.7411446  79.0993176  11.8243403  52.7302980
  54.5428514   9.7137707  22.0006084  53.6330175   9.7222400  21.7033505
  54.8835373  10.5735087  21.7535973  41.8716526  54.3151522   7.4913949
  41.8649292  53.4221649   7.1467745  40.9896898  54.4438410   7.8404009
  51.8556611  63.5444851  65.6847136  52.6596276  63.3804650  65.1917946
  52.1306149  64.1015644  66.4129232  59.8640013  42.8649044   8.5119116
  59.3668127  43.2354307   7.7827036  60.2350616  42.0549965   8.1617796
  26.5158248  10.1944542  15.9577727  25.6646562  10.6115389  16.0911226
  26.3934684   9.2965341  16.2659931  39.9474549  24.9753904  28.3808780
  40.8715010  24.8055530  28.1977892  39.6239662  24.1576815  28.7589502
  19.9377600  34.9649875  59.3433201  20.6452386  34.3965734  59.6476411
  19.2148892  34.3669526  59.1534656  37.1871400  18.2518291   5.4983157
  36.9343519  17.9339206   4.6315604  38.1116748  18.4828913   5.4084331
   7.1345202  64.4341416  56.4275020   6.4739196  64.5014162  55.7380712
   7.9703633  64.4618435  55.9618520  81.3231287  55.7638462  63.8133031
  81.1838828  56.6676993  64.0959557  81.2343798  55.2462597  64.6135902
  49.3403816  27.1680927   6.0454297  48.6775064  26.5033054   5.8586466
  49.4484043  27.6376343   5.2183300  72.5546942  54.3709893  55.5345511
  73.3325587  53.9721913  55.9245741  72.8086386  55.2788324  55.3685295
  17.2413500   0.1399209  60.9109604  16.7048462   0.4875424  60.1985317
  17.9222163  -0.3694866  60.4714667  64.2966843  35.7010579   7.1569699
  64.1006327  36.2404251   7.9230493  64.2240763  36.3023663   6.4157635
   0.9673860  21.5300012  13.6587453   0.7504243  21.9471645  12.8249979
   1.7630032  21.9756413  13.9496565  44.2755318  46.9987392  12.3459435
  44.7918892  47.4409151  11.6720808  43.3841419  46.9898129  11.9972646
   0.2397458  72.2811384  61.4510095   0.0436131  72.4160595  60.5238854
   0.6828562  71.4332147  61.4811557  63.7527323   4.2868641   1.2548009
  63.1814909   4.2705095   0.4869149  63.7739182   5.2069211   1.5180072
  21.7173696  18.5142648   3.3209246  21.1599135  17.7823675   3.0567282
  21.1094666  19.1614723   3.6784267  46.2801695  70.1557112  15.4147577
  46.2968826  69.2025280  15.5007541  45.9676266  70.4673815  16.2641168
  59.1046248  55.1147480  41.8304073  59.1082416  54.4026227  41.1907994
  59.8457489  54.9240310  42.4053800  39.6135044  23.2378983  32.9986382
  38.8323903  23.6839914  33.3258891  39.5710254  22.3642945  33.3875418
  44.2460497  22.4756672  64.2370004  44.2362793  22.3491671  65.1857540
  44.6253117  21.6675665  63.8915118  61.3420306  60.8471890  63.9369523
  61.0774932  60.9344454  64.8527240  61.0055075  61.6372509  63.5141175
  12.0194870  10.9328997  22.9409003  12.8656155  11.3726091  23.0242872
  12.2001702  10.1672339  22.3956108  75.4071474  31.6612887  27.6919103
  74.8596573  31.1448479  27.1004963  75.7601643  32.3607206  27.1419978
  13.4938675  31.7123461  56.0267639  12.9952961  32.3940277  56.4772797
  12.9245335  30.9432745  56.0514927  25.2210633  75.6275673  25.3204977
  26.1692254  75.5203147  25.2447998  24.9456279  74.9193378  25.9025442
   6.6761452   3.9814916   0.0562427   5.7715851   3.6750811   0.1204596
   6.6704327   4.8366791   0.4861883   8.7683598  47.0850403  47.1423161
   8.3027569  47.4106134  47.9126727   8.1514374  46.4828743  46.7263400
  34.2876871  60.3524249  16.9031608  34.2561110  59.4295841  16.6509688
  34.1707857  60.8293872  16.0815322  33.0278778   3.4288782   5.1498735
  32.1017337   3.2941628   4.9490210  33.4861279   2.7843723   4.6105689
  57.2778130  54.0045738   4.3838039  57.3309994  53.1998730   4.8994169
  56.3410234  54.1941166   4.3316025  66.4441824  15.8038712  15.3797519
  66.7579842  16.1344349  14.5380342  67.2229910  15.4374051  15.7985508
  29.2355077  66.6196723  57.3041862  29.8880593  67.3130412  57.2059559
  29.0725819  66.5758438  58.2463991  60.3481102  54.6282768  12.0464051
  61.2769032  54.4232082  12.1537495  60.1466751  55.2153635  12.7750921
  78.0690680  58.7869115  51.3312017  78.1037627  59.6897907  51.6471743
  78.0116663  58.8683577  50.3792023  44.2709923  38.7512851   4.0859926
  44.2433167  38.0441999   3.4414035  43.8185120  39.4801950   3.6615095
  14.9721972  74.8163958  65.5084491  14.2698590  75.4074068  65.2370475
  15.3862158  74.5443745  64.6894103  12.8848139  44.2443825  65.2362335
  11.9307677  44.2495306  65.3136938  13.0670373  44.8068900  64.4834972
  74.4736195  20.1037073   2.6467016  74.8703957  20.9746695   2.6317495
  73.6183167  20.2230358   2.2338453  45.9481380  60.9982057  23.9435684
  45.2638719  60.4222674  23.6025297  46.6670154  60.9130116  23.3173191
  48.3020449  75.9071684  15.9975576  48.5992098  75.1327372  15.5198789
  48.8525343  76.6175985  15.6681907  76.1852217  22.8541613  15.6830728
  76.3082695  23.2526898  14.8215234  76.8300152  22.1474123  15.7143450
  54.5713902  19.7403979  19.6795225  55.3668118  19.3341017  20.0237083
  53.9030075  19.5549321  20.3391433  66.2369442  39.8398590  57.8586483
  65.5800200  40.1469564  58.4834480  66.7450714  40.6215239  57.6417637
  44.3282461  30.2523208   5.4593265  45.2155542  30.5180550   5.7007778
  43.7774181  30.5849600   6.1679661  12.8922192  44.8747380  40.4762375
  12.6650016  44.5913596  41.3618457  12.5049702  45.7465101  40.3969609
  -0.0281852  48.1069803  24.2985511   0.4924446  48.5460997  24.9711156
  -0.4333633  48.8204098  23.8055205  16.2375561  53.2747586  52.7853810
  16.4308945  53.0878301  51.8667364  15.9306685  54.1814299  52.7858650
  31.0971427  18.0996966   6.7708993  31.4599633  18.9802563   6.6749465
  30.1643515  18.2412815   6.9324231  67.3884869  22.1801019  28.1171894
  67.9983997  21.6033435  27.6572037  67.9189539  22.9347920  28.3726883
  53.6006784  23.3953738  22.9291439  54.3762398  23.0892229  22.4590254
  53.4040546  22.6934624  23.5495400  59.1488266  25.5164599  11.8745100
  58.4605169  26.0747504  12.2361445  59.0268278  25.5694222  10.9265947
  37.0511158  17.1575739  32.1568453  36.5414770  16.7642500  31.4484679
  37.7445181  16.5220692  32.3344814  72.0305024  39.5921270  64.4734354
  71.4895688  39.5981270  65.2631107  72.8552542  39.9949495  64.7450114
  39.3741043  70.1130312   5.7974637  40.0928839  70.4545276   6.3294125
  38.6242350  70.0937807   6.3920736   4.2348629  19.7149920  19.9715567
   4.0232044  19.4411731  19.0791142   3.6278397  20.4327083  20.1522064
  28.9282378   9.5242169  61.3210362  28.2008370   9.4022658  61.9311544
  28.8011893  10.4056027  60.9699726   2.6842076  38.5473418  19.7878385
   2.5692326  39.2127967  19.1094697   3.2816845  37.9089665  19.3983138
  73.9476633  14.7455359  12.6188481  74.7730589  15.0737214  12.9755604
  74.1895151  13.9451241  12.1529269  80.6727791  27.6080179   7.1196908
  80.1983166  28.2118058   7.6911426  80.0194836  26.9567204   6.8642426
  28.5812910  24.3277933  64.4798840  28.7740048  24.7927716  65.2940645
  28.5008534  23.4104779  64.7412160  64.3186776  68.8523932  65.5282820
  63.9795701  68.0771823  65.9758198  64.8059670  68.5039659  64.7817060
  46.2622595   6.7370689  14.9346435  46.7687750   6.6984528  15.7459271
  46.8150997   7.2326344  14.3304801   1.8206898  68.8363094  49.2697679
   1.5144555  69.1654701  48.4247195   1.0802333  68.9699597  49.8614561
   0.5991036  23.8150883  35.5402780   1.0682350  24.5851994  35.8613372
  -0.3196567  23.9933610  35.7410812  59.8858271  57.3274739  45.6239926
  60.7901011  57.0790012  45.8157742  59.6758018  57.9921396  46.2799966
  52.3227644  34.6945810   4.9067816  52.7791595  35.5075455   4.6899295
  52.5033665  34.5593143   5.8370060  37.5338721  34.5727420  22.3865819
  36.9201827  33.8444304  22.2907686  38.3529520  34.2463684  22.0139980
  37.0814617  27.5078680  59.2557770  37.8739794  27.6254084  58.7320101
  37.2759112  26.7592861  59.8197305  39.9464949   7.7259495  35.7673275
  40.7594117   7.6670410  35.2654039  40.2200802   7.6250412  36.6790306
  58.8059950  33.4719348  57.9281473  58.9944124  32.8799939  58.6563873
  57.9682064  33.8743043  58.1571531  60.4807472  20.6025076  35.4688001
  60.7139540  21.3121867  36.0672998  61.0765266  20.7090759  34.7272301
  60.7578516  29.6612859  16.9657838  60.9031487  29.7433782  17.9083228
  60.2869129  30.4592729  16.7256439  79.6550512  22.4286222  41.6434479
  80.4979420  22.4566698  41.1906910  79.0112019  22.6268721  40.9634590
   3.1940609  29.4888258  10.1107526   3.3673722  29.1842508  11.0014975
   2.4313694  28.9836764   9.8290426  60.1479860   4.9106076  43.7037193
  60.8850916   4.7512533  44.2932212  59.4222601   4.4200899  44.0896546
   7.8094594  43.4945406  53.4949982   7.5339524  43.8770731  54.3280625
   8.6570660  43.0923353  53.6848020  59.1076660  27.4737382  17.2647274
  59.7922707  27.8238487  16.6946685  59.4251680  27.6424694  18.1518304
  22.1371037  29.0299058  22.8378034  22.1520001  29.3462729  21.9345188
  21.3503605  28.4870529  22.8885102  39.9057364  67.9046965   4.3245903
  40.1327276  68.6112738   4.9291191  40.7489061  67.5442123   4.0500915
   2.1928509  15.6811955  56.4709055   1.5944012  16.4259770  56.4126849
   3.0436381  16.0369446  56.2143182   7.2447284  66.0665171  29.9110436
   7.2970231  65.8678322  28.9761543   7.6338228  66.9372176  29.9929953
  28.1347807  11.9235422  46.7799949  27.6194294  11.1811354  47.0954000
  27.7600869  12.6824143  47.2271502  76.8586789  38.5749083  65.8892254
  76.6870175  39.2865319  66.5059550  77.7971468  38.6341610  65.7103368
  27.9183022  50.3442152  65.8346479  28.4323231  50.5564387  66.6137352
  28.3659665  50.7989283  65.1211601  58.6678410  36.5033221   3.7847641
  57.7741957  36.5050626   4.1277328  58.8015413  35.6095791   3.4692046
  43.1089258  34.5690870  14.8911357  43.8657665  34.2631412  14.3913150
  42.3802280  34.5275021  14.2718625  56.2794439  25.0217063   4.9023616
  55.7551328  24.2983348   5.2459711  55.9733025  25.1329906   4.0022931
   4.3541390  31.7409682   8.3033091   4.7196251  31.3319850   7.5188434
   4.1961247  31.0113025   8.9023513  40.2339761  74.3471379  39.4235622
  39.3822877  74.2980833  39.8576748  40.7610718  74.9077172  39.9929058
  10.6257947   6.5794232  45.8117067   9.8257192   6.5314724  45.2884376
  11.1825856   5.8836462  45.4622614  79.6343851  15.4846895  10.8360207
  78.7881184  15.5241013  10.3904724  79.8458195  16.3979197  11.0297716
  58.3409166  67.1736860  18.8638258  57.6052618  66.5722084  18.9790094
  57.9434776  67.9762363  18.5259044  38.4351651  71.7758412  65.0605627
  38.5607354  71.8155093  66.0086610  39.3218724  71.7945809  64.7005283
  16.2831360  40.2530098  19.9477327  15.3791386  39.9870205  20.1159024
  16.3393742  41.1432695  20.2948689  63.7380838  34.1380835  17.2260737
  64.2787313  34.2556167  16.4449704  63.9337730  34.9011397  17.7698445
  64.8346100  75.8322258  58.7660002  64.6667276  75.7094378  57.8316712
  65.5797158  75.2610464  58.9525562  60.0943470  54.9659538   8.9890116
  59.2340755  55.2792501   9.2683178  59.9673367  54.0314674   8.8252056
  62.5850534  61.3182831  17.5986743  63.3020592  61.6765165  18.1219339
  61.7921782  61.6513729  18.0189502  53.6235062  50.7843847  61.9355347
  54.2979447  51.3767905  61.6032275  53.2079331  51.2701399  62.6479774
  80.7480613  12.9296119  11.2374389  80.2629987  13.6805160  10.8952594
  81.6091911  12.9922588  10.8242095   6.4108044  32.7592945   3.2299039
   6.8639523  33.5986185   3.1497601   6.6694123  32.2718382   2.4477655
  64.6555934  62.3103852  59.4255894  64.5080004  61.5115018  59.9317818
  65.0409112  62.0056410  58.6040705   9.9996430  35.8275557  18.5167515
   9.8015267  36.0989237  19.4130456  10.7205540  35.2046394  18.6089098
  22.5064182  43.3837318  31.9855595  23.0124593  42.7484369  32.4920726
  22.4934816  43.0263853  31.0976577  33.8930225  22.8932047  13.7924039
  34.7002625  22.4345565  14.0252948  34.0700650  23.2661533  12.9288077
  11.8010002  32.8837705   7.2750974  11.9159752  32.2561431   6.5615875
  10.9353596  32.6848197   7.6319224  49.7985792  63.7538576  23.1825280
  50.1142836  62.8691435  22.9985785  49.3476105  63.6772442  24.0233541
  47.3525333  23.5769796  13.1399941  47.4247932  22.6313972  13.0100572
  47.2890329  23.9361906  12.2550273  30.5542374  42.2285557  32.8689480
  30.2399921  41.3972425  33.2244754  30.6557393  42.0649672  31.9313097
  57.5679970  54.1828346  21.0857439  57.5667191  53.5366535  21.7919183
  56.7956114  53.9677477  20.5628800  72.9074277  11.2160017  57.3790460
  73.1919553  11.2527611  58.2922405  71.9579794  11.3307526  57.4191975
   7.8436905  11.7863452  21.9301510   7.7220494  12.0849872  22.8313971
   6.9553810  11.6461325  21.6023278  26.7264515  49.1673565   7.8483039
  25.9612900  49.6730709   7.5744206  27.3356015  49.2376137   7.1132958
  23.3952157  55.0835533  66.2262358  22.5464837  54.6428437  66.1855595
  23.1992690  55.9477098  66.5882713  41.4269638  27.0082283  12.6617515
  40.4884291  26.8855309  12.5191689  41.4801693  27.6812148  13.3403456
  63.2859429   0.7689407  65.7296617  63.5829457   0.0954654  66.3415845
  62.5343426   1.1724188  66.1638680  11.2042966   0.5342390  51.3062071
  10.6124081   0.0147273  51.8502736  10.8169140   0.5008724  50.4315328
   8.2961480  55.5985470  45.5884110   8.8341920  56.2583609  46.0258877
   8.7377803  55.4447110  44.7532284  22.2322814  63.6561246  59.7404199
  21.6635100  62.9513068  59.4306474  23.1021086  63.2592411  59.7864538
  80.7325840  15.0125086   3.0227458  80.5673504  15.9524870   2.9494652
  80.6670952  14.6871030   2.1249412  24.3783530  72.4903234   2.2761916
  24.7298582  71.6361456   2.5272998  23.7157210  72.2915607   1.6146432
  42.9762753  22.7976277  49.6976888  42.3632916  22.3636153  50.2910840
  42.7971514  22.4085047  48.8416922  61.4039431  56.4760215  34.7870838
  61.8895779  55.9237356  34.1744077  61.5979491  56.1062355  35.6483924
   7.8106171  35.7624769  33.2915425   7.2057396  36.4655328  33.5283208
   8.0651242  35.9589887  32.3899674  71.3235474  30.3667235  37.5040150
  70.6894112  29.6509671  37.5464368  71.4001513  30.6727242  38.4077454
  78.1519985  31.7862630   8.8598657  78.2151604  32.7260756   8.6895818
  77.2864103  31.5412402   8.5328239  60.6956395  23.7420943  52.5033342
  60.8979042  23.1659415  51.7661976  60.2910813  24.5112612  52.1021568
  79.2783938  38.1583658  57.6395821  79.4680415  37.8266136  58.5171955
  78.3445750  38.3677166  57.6592832  75.2164268  35.2923512  46.6033888
  74.4391298  34.7713017  46.8047667  75.2365541  35.3327847  45.6472540
  21.7025755  75.5975244   3.6334885  21.2653826  74.7555087   3.5065783
  20.9924601  76.2091849   3.8280142  75.7905674  70.8851814  11.4451897
  76.2365532  71.1061239  12.2628164  76.2986231  71.3307476  10.7672644
  18.2336108  61.4833946  57.1584445  19.1255728  61.1672611  57.0146065
  18.3460299  62.3229666  57.6042175  77.0568085  11.7886555  13.3605850
  77.5941944  11.0061920  13.2372999  76.8234253  11.7751217  14.2887998
  59.2822750   5.1471045  63.6445119  59.8429497   5.3921082  64.3806213
  58.7186344   5.9087755  63.5088586  78.4058809   9.6821517  50.6978512
  79.1982985   9.4486254  50.2143478  78.3171940   8.9951670  51.3584709
  68.0328562   5.9311535  62.7295267  68.7095012   6.5729525  62.9451119
  67.4299194   6.4026787  62.1547567  71.1912012  10.1474571  39.5033431
  70.5053186   9.6460330  39.9442124  71.0129595  10.0282741  38.5704684
  76.7284346  43.8280773  30.3082418  75.7770300  43.8413382  30.4125810
  77.0646286  44.1822386  31.1315131  21.2770097  60.6484551  66.0339156
  21.0107199  61.1244602  65.2473145  20.9274403  59.7660632  65.9097411
  21.5160712   3.1476643  53.3223998  22.0576723   3.1121971  52.5339567
  22.1310671   3.0056813  54.0420198  76.8439484  45.3018808  40.2686977
  77.3237848  44.4737577  40.2831030  77.5075579  45.9596205  40.0607824
   9.9008020  10.9814932  60.2847248   9.8360904  10.6956293  61.1959463
  10.4733570  11.7480042  60.3142571  74.9119425  44.9814892  34.0627861
  74.4914865  45.6023979  33.4678698  74.3671465  44.9972820  34.8496652
  76.8202877  43.3837891   8.7357467  75.9635544  43.1760406   9.1086799
  76.6678429  44.1670942   8.2071406  72.1468306  37.0879507   3.8245490
  72.9415941  37.2642946   4.3280271  71.6356707  36.5009642   4.3816775
  80.2115546  65.7220287  59.3580108  79.3370018  66.1110516  59.3648451
  80.0570927  64.7879334  59.2171543  72.7677117  64.2765422  56.8538522
  73.0735646  65.1316710  57.1562409  73.0543909  64.2284007  55.9418606
  74.2042589  37.9239082   5.7815957  75.1453209  37.8452754   5.9379572
  73.8021421  37.3908949   6.4674765  72.1656370  24.4538641   7.5636929
  71.7610264  24.2934299   8.4162080  72.5625420  25.3209686   7.6463240
  59.5368965   2.6685240  59.2720800  59.6403130   3.0913832  60.1245629
  60.4315575   2.4839642  58.9861607  32.6652344  23.3419182  22.0876276
  33.5528286  22.9880049  22.1437704  32.5365027  23.5190441  21.1558067
  13.2497080  21.7383101  52.9403865  12.7036222  20.9733250  53.1215465
  12.8157242  22.4567654  53.4005069  45.1190432  71.4774071  51.2320995
  45.2967795  71.3800161  50.2966022  45.7908972  72.0849233  51.5415668
  21.6036079  15.3574188  24.3239522  20.6980989  15.1238258  24.5281959
  22.1191929  14.6143825  24.6374941  73.0129735  73.3330269  54.6414804
  73.6431233  73.4908910  55.3444945  72.1637265  73.5446162  55.0290787
  67.7385473  62.5387192  18.6403823  68.2689142  63.3045387  18.8605392
  68.0015993  61.8741417  19.2770720  20.1294476  54.8854113  39.7280002
  19.9532372  54.5777655  38.8388824  19.4361359  54.4933844  40.2589083
  63.3291101   3.9209938   6.0596347  64.1282082   3.7554836   6.5599149
  62.8338718   3.1042618   6.1222154  14.7886425  49.7048044  17.1630597
  14.9982792  49.6959448  18.0969799  14.3834740  48.8529682  17.0004451
  75.0210238  69.3370533   4.3336391  74.3627882  70.0247145   4.4340158
  75.0547552  69.1735268   3.3911139  72.7355957  37.9453111  32.3776841
  73.5455418  38.1712008  31.9203115  72.6701117  38.5905719  33.0816603
  21.4331873  61.6219633  19.0463030  22.1864470  61.0391717  19.1421437
  21.2026366  61.5648716  18.1190395  79.1577148  65.4925680   7.6903433
  79.7522354  64.8126936   7.3732454  79.2390680  65.4564095   8.6433941
  21.2178914  46.3063283  64.8980206  21.1884515  45.5468036  65.4798170
  21.6705147  46.9796808  65.4059185  65.5713987  56.5723181  50.0080013
  65.3203297  55.7302809  49.6283102  65.0022554  57.2091532  49.5758533
  76.9808531  27.4520397  49.6335983  76.4060307  26.8599677  50.1186323
  76.8353796  28.3089566  50.0345516  59.2727470  51.3651466  13.7496388
  58.6697388  51.1937904  14.4729984  58.7182617  51.3606548  12.9694080
  28.4553536  11.9246771  64.6635933  28.3317860  12.5585367  65.3701257
  28.1010779  11.1062815  65.0113607  13.5886151  33.5690880  15.0299716
  13.7962490  34.1464782  15.7646418  12.7166420  33.2294488  15.2312791
  66.5480582   2.5786311  12.9521847  66.5379683   1.6627080  13.2300675
  66.6022007   3.0759341  13.7682676  72.7004194  38.8710284  45.0545454
  72.6825428  38.7250543  46.0003805  72.0433235  39.5507240  44.9046373
  14.4165570  39.3570852  21.3873768  14.8937184  38.5488248  21.5751505
  13.5201317  39.1773796  21.6708684  25.2068422  69.6943376   2.0387447
  25.8702228  69.3794868   1.4247215  24.4060276  69.7516535   1.5175474
  63.0052662  53.8172054   9.9206674  63.6778688  53.8612175  10.6002963
  62.1775913  53.8540745  10.4000711  63.8962603  38.9615893  16.7178679
  63.1569195  38.3601642  16.8067348  63.5119247  39.8314023  16.8271685
  63.9892882  60.1471853  50.8699131  63.6669236  60.2254581  49.9720335
  64.5587832  59.3779993  50.8537292  18.1831861  51.1485529  38.5091305
  18.3297515  50.2043867  38.5665512  18.3929837  51.4771080  39.3833566
  76.7132509  45.8618975  23.6868930  77.3577869  46.4727592  23.3296084
  75.8806306  46.1433363  23.3077288  41.2393792   0.2875094   1.6039503
  41.3862797  -0.0225325   2.4975575  40.7444759   1.0998707   1.7106092
  53.0519548  27.4390273   4.2453993  52.5254344  26.6928439   4.5321310
  53.6637385  27.0698457   3.6084879  77.1427834  61.2976933  43.2586479
  77.1149039  60.5108309  42.7143145  76.9261634  62.0115948  42.6589394
  67.7609855  44.5975780  30.6156778  67.1898359  45.2801275  30.9680223
  67.3540217  43.7772608  30.8944106  38.2639011  27.3803000   3.4223164
  39.1977914  27.4575047   3.2270706  37.8326054  27.8861670   2.7336109
  13.4372834  15.5627162  41.7941666  13.2050518  16.2403590  42.4290800
  13.9698664  14.9415309  42.2908688  33.1092719  10.3489120  30.0704551
  32.8125636   9.4392116  30.0450373  33.0633763  10.6413371  29.1601729
  46.8584230   8.9207749  34.5608604  47.1906563   8.1157022  34.9579800
  46.9166948   8.7646394  33.6182774  70.7234699  63.4733534  63.5721350
  71.0479158  63.8311338  62.7457190  71.3767469  63.7370110  64.2201662
  35.6584533   3.3012538   2.9217518  34.8596462   3.8227897   2.8433979
  36.3670846   3.9210467   2.7487410  29.4618149   8.2477195  39.6174860
  29.6899481   9.1609580  39.4437504  30.2678196   7.7620132  39.4423389
  39.7313698   4.7817712   3.5327662  40.0139662   5.6846671   3.6782063
  40.5452331   4.2794709   3.4933842   4.4894674  59.7248936  42.5830889
   3.7161565  60.2888107  42.5682497   5.1190048  60.1666403  42.0132017
  44.1517703   1.1593301  47.6308775  43.2242493   1.1963708  47.3972893
  44.2132954   0.4345805  48.2531214  41.1176109  74.3835163  55.9777021
  40.7424307  74.3013382  55.1009369  40.8836174  75.2688646  56.2563324
  77.8111672  38.2024670  49.8606062  77.6003563  37.9806399  50.7675695
  78.7656504  38.1459665  49.8158646  23.5849429   8.3269603  45.4830074
  23.1338815   7.6748378  46.0192156  23.8623164   7.8456886  44.7034740
  58.6732239  56.1897087  60.6322575  59.2714924  56.3909245  61.3518524
  57.8420204  56.5857267  60.8939791  62.8369756  39.8021178   8.0800045
  62.0877220  39.4747500   8.5776794  63.5550376  39.2137675   8.3133734
  72.4889809  36.5661407  41.2394190  71.9889325  37.2920728  41.6125202
  71.9874716  36.3011527  40.4683828  69.3534440  22.6022625  31.5451527
  69.3968195  23.5535240  31.4479208  70.2029580  22.3602104  31.9138908
  36.4055798  71.6037319  16.2316502  35.5834566  71.6379545  15.7425869
  37.0805756  71.7887995  15.5786789  63.2087761  53.9972591  50.0367641
  63.9466649  53.9312983  49.4306278  63.5599107  54.4707155  50.7909346
  52.0356051  11.5577037  33.2123780  52.5797192  10.7925517  33.0260277
  52.6570622  12.2824390  33.2814455  77.4475225  36.1614614   6.8093241
  77.1672138  35.2540021   6.9284094  78.1664618  36.2736373   7.4312342
  27.5608206  67.6663733  44.4495249  28.3657527  67.7088833  43.9332819
  27.4425340  68.5559845  44.7824430  76.9331106  52.6321988   0.0700415
  76.3935955  52.0834546   0.6392801  76.3184555  52.9893975  -0.5709278
  10.2537572  70.1237869  43.4853697  11.1925924  69.9756861  43.5988903
  10.1985431  70.8203077  42.8311253  57.0900098  16.4793975  50.1477623
  57.9543082  16.6907317  50.5006790  57.1343938  15.5439765  49.9496126
   9.0136160  29.7059970   7.4028719   9.2199196  30.2700095   8.1482304
   9.6520414  29.9510913   6.7331160  12.7583325  61.3896227  36.7816019
  12.0763910  60.8646154  36.3626146  12.2796059  62.0678806  37.2580695
  25.4291511  57.0663261  13.6033225  25.8688712  56.2580347  13.8670242
  25.8166218  57.2841835  12.7555978  55.2934386  51.7140775   2.8889645
  55.1526508  52.3725419   3.5692871  55.0649752  52.1598248   2.0732773
  57.7304310  63.1632757  41.3405037  57.4172419  63.4523058  40.4834080
  57.1578306  62.4315119  41.5704584  79.5221223  52.3754025  23.2911921
  78.8882548  51.8822718  22.7703643  80.2317125  51.7544079  23.4557509
  36.7925845  56.3989899   5.4555357  37.3390822  56.3463888   4.6714390
  36.2775848  57.1968541   5.3354586  11.0492289  52.2899961  45.8742666
  11.7717218  52.9178667  45.8770943  10.6230831  52.4190331  45.0269318
  45.5353039  19.0636909  35.6461501  45.7909912  19.4457686  34.8065829
  45.0701779  18.2605171  35.4120517  80.8665987  28.4330606  41.8471813
  80.5112870  28.3257222  42.7294874  81.5093305  27.7290606  41.7605209
  20.9437156  56.2195873  43.7030983  21.7486691  55.7957220  43.4054041
  20.7676339  56.8898296  43.0427933  11.7796600  56.7151737  24.1520977
  11.5634525  57.5356579  24.5951438  10.9413314  56.3943434  23.8196754
  32.2667688  58.5910606  27.9457664  32.1358293  58.0021763  28.6889362
  31.4668220  58.5040236  27.4273634  13.9914632  36.2350440  59.0559387
  14.8489892  36.5128899  58.7339449  13.9138532  36.6468072  59.9165535
   3.6360377  60.2325153  30.7808399   3.1912720  59.9191141  31.5683651
   3.3263481  59.6534824  30.0843906   2.5995384  75.8120437  64.5527812
   3.3792077  75.2568288  64.5435939   2.0344792  75.4204507  65.2188110
  81.1114480  16.1135151  61.2823742  80.8586623  15.3674652  60.7385545
  81.0084893  16.8733504  60.7094138  23.6183214  32.0805860  53.2231140
  23.9885759  31.6189408  52.4707651  23.5465646  31.4110160  53.9033794
   0.7102376  39.3629384   4.1483974   1.2505533  39.7291303   4.8485360
   0.9670521  39.8522544   3.3668298  75.6640476   8.8050461  58.9060783
  75.2695709   8.6966395  58.0407095  75.1372343   9.4850397  59.3259716
  61.6814560  13.4823060  38.3624053  62.5585860  13.0990791  38.3589482
  61.8267792  14.4146121  38.2014155  17.4137843  55.6655693  16.8897688
  18.2212543  55.9737301  16.4783561  17.3730659  56.1382198  17.7211380
  12.9814494  29.2318988  40.3725052  12.8389931  30.1618838  40.1962471
  12.3121893  29.0052414  41.0182190  13.2853997  64.0665817  46.1091805
  12.3982656  64.0848684  46.4681911  13.6003971  64.9655676  46.2031746
  74.7422153   8.1346786  49.4239712  73.9661694   8.6844116  49.5324945
  75.0682610   8.0021799  50.3141212  45.4413025   9.5615775  38.1700706
  45.6262175  10.5002029  38.1379342  46.2890569   9.1450031  38.0151081
  77.3431364  32.5795460  44.4639969  76.8037337  33.3508062  44.2895460
  78.2401717  32.9131866  44.4795990   2.9780397  72.8794241  66.5099335
   2.2581944  72.6757765  65.9127903   3.4430352  72.0495510  66.6163349
  41.0749177  64.6186588   3.1504000  41.4453499  64.6106742   4.0329826
  40.1293687  64.5593212   3.2869614  58.9929988  15.8657982  46.6703498
  59.7076764  15.2989771  46.9604909  58.2315697  15.5636742  47.1655035
  10.0085318  30.5270267  52.4884939   9.8380917  31.3807988  52.0906830
   9.6574455  30.6018639  53.3758307   4.5827222  65.3326035  49.3861866
   4.5956522  64.3771362  49.4423389   3.7961280  65.5320692  48.8785315
  41.4396399  57.5217009   9.4155955  41.6683215  58.2473087   9.9964827
  42.0618504  56.8298531   9.6401811  44.2327539   7.0720489  39.0132213
  44.5004145   7.9233749  38.6670542  43.5851232   7.2801978  39.6866322
  79.5269543  34.7435927  49.4657326  79.9141024  35.5387068  49.0994835
  78.7981856  34.5400524  48.8794708   3.7577203   6.8514496  29.0989017
   3.2237321   6.9083875  28.3065343   4.5482647   6.3880944  28.8221836
  76.4387235  34.0701079  21.1755633  75.8884168  34.5458627  20.5534291
  77.1808732  33.7645578  20.6539464  78.3225235  53.8596392  53.4502363
  77.7983206  54.6559191  53.5361338  79.0980461  54.0244055  53.9865637
   1.5986821  45.1888466  54.4659662   2.4640477  45.0970078  54.8646355
   1.2961626  46.0525608  54.7465277  61.9976681  34.9580598  51.4347982
  61.0631674  34.9844742  51.6403341  62.4053389  35.5102849  52.1019459
  19.3827951  70.2983713  32.2961760  19.7611713  71.1657810  32.1524239
  20.1364398  69.7337627  32.4678349  81.1470582  20.2302270   6.5085257
  80.3939702  19.9210362   7.0119989  81.9047668  19.8502212   6.9531620
  62.6905614  31.2968802  31.5706086  63.4371716  31.5922952  32.0917010
  62.7632374  31.7844486  30.7501054  63.8341266  68.5623503  40.7360649
  64.7689408  68.6624098  40.9159088  63.5729593  69.3997383  40.3529119
  74.5072973  40.9149265  64.9837685  74.1896635  41.6931534  64.5258379
  74.7196776  41.2250280  65.8640909  63.3324234   4.8008163  18.2676315
  63.7592188   4.5949085  19.0993047  63.9729253   5.3323085  17.7948725
  69.6546048  73.6164618  42.1031952  69.8048192  73.2789898  42.9862452
  69.0906018  74.3792152  42.2310114  12.0201933  37.5051427  17.4311614
  11.3700140  36.9897461  17.9085147  12.7042353  36.8756700  17.2029483
   2.1095061  59.6556902  55.4649782   1.6550662  60.1416922  54.7768497
   1.8880169  58.7396574  55.2974510  81.0445732  38.0380750  52.9043293
  81.8090505  37.8650689  53.4537601  80.8467009  38.9626408  53.0535078
  28.0141115  46.7797089  38.7533045  28.1714773  46.5795517  37.8305864
  28.6761546  46.2737703  39.2244244   8.1636363  49.1431856  60.3626156
   8.0400771  49.4620609  61.2566423   7.4696666  49.5682430  59.8586655
  70.3004831  44.0593576  31.4163327  70.4050499  43.1090546  31.4634299
  69.4968384  44.1872025  30.9123039   8.9377934  67.1364355  10.3283739
   8.1912309  66.6654825  10.6986165   8.8837582  66.9691849   9.3874496
   3.2424607  32.7671771   1.4591587   2.6510968  33.4862905   1.6814220
   4.0327801  33.1986575   1.1344278  55.7731110  24.3737845   9.3031109
  55.4020749  24.2609267   8.4279955  56.2061123  25.2268605   9.2714918
  72.4890701   9.0557677  31.5381265  73.4114877   9.2727573  31.4028931
  72.2533361   8.5264690  30.7762194  11.1773074  50.0175571   8.3300620
  10.3335357  49.7770071   7.9474157  11.5521610  49.1874647   8.6244482
   8.3818797  42.0876274  22.2520340   8.4816126  41.9343067  23.1916035
   9.2785851  42.1325410  21.9201744  58.3876055  67.0697594  55.1136541
  57.5159973  67.0304060  54.7199774  58.6005706  68.0028009  55.1312351
  77.0012420  39.3922949  58.4859991  76.3184220  39.6938848  57.8868055
  76.5586257  39.3078566  59.3305063  14.8445964  47.3105812  45.6059170
  14.1996956  47.8676462  46.0418177  14.9482083  46.5606403  46.1916590
  18.3374882  37.2814608  37.4070883  18.8866270  36.5318251  37.1774697
  18.9042687  38.0419683  37.2781682  69.5741302  57.4227095  35.3094983
  70.2378851  58.0060005  35.6775093  68.8654035  58.0066156  35.0393248
  27.4229312  20.8304238  24.5979190  26.9001007  20.0296140  24.5580912
  26.9601130  21.4470840  24.0306783  63.1049925  25.5028510  53.7141418
  63.8210982  24.8688936  53.6751175  62.3351222  25.0126100  53.4257078
  21.2058496  46.9868326  13.3984375  20.2893567  46.9590521  13.6732137
  21.2283707  47.6472998  12.7059722  81.0884290  61.8506670  49.7067976
  80.8329594  61.7440557  50.6230927  80.9233560  60.9949017  49.3110037
  13.5721385  50.7824898  31.3618612  13.6385489  51.7071390  31.1234331
  13.6822271  50.3133726  30.5347943  49.3535875  12.4731212   9.0293777
  48.4775098  12.5186877   9.4123161  49.5346465  11.5360360   8.9564217
  36.8028808  49.8166180   2.3146455  36.9241738  48.8689041   2.3726051
  37.6902080  50.1741076   2.3475920  49.1200248  74.9075005   7.1937264
  48.2076232  74.8984215   7.4829853  49.4083325  75.8086417   7.3388279
  66.8386811  56.5794945   2.3547135  67.1543103  55.8382273   2.8715599
  67.2445244  57.3451090   2.7613533  32.3172498  75.8523273   3.4253719
  31.7383766  75.0952816   3.5149124  31.8984270  76.3965464   2.7585539
  22.9081750  55.9520674   6.3212502  22.3351431  56.7186880   6.3339484
  22.7956319  55.5834055   5.4450929  78.2218346  50.6020021  47.7951670
  78.4333071  51.1119318  48.5771370  77.2747543  50.6983805  47.6952553
  64.1016847  58.1691074  46.3566780  64.4600052  58.2216787  45.4706335
  64.8615235  58.2754374  46.9290161  24.6054864  48.1777763  10.6739497
  23.7445498  47.7597713  10.6568158  25.1992774  47.5179195  10.3158534
  25.9215784  46.0279226  26.1483908  25.6006026  45.4485655  26.8394423
  25.1753640  46.1330652  25.5581856  47.4644579  30.4640298   3.7994850
  48.4156062  30.4619269   3.9069260  47.3256363  30.2016025   2.8894890
  16.5594935  57.8563690   6.3796818  16.1177146  57.9102468   5.5322379
  16.4657569  58.7320232   6.7547518  16.8348753  53.0313683  34.4209576
  17.2794425  53.8747168  34.3351960  16.5910351  52.9820538  35.3452635
  61.3563104  18.4123807   3.7488831  62.1529069  17.8851371   3.8095654
  60.7143607  17.9381232   4.2772854  42.8338579   5.8532054  35.6319213
  43.3601312   6.6342647  35.8028221  42.2470049   5.7902057  36.3854909
  75.7990944  49.7426844  51.6290569  75.4867464  49.9140882  52.5174809
  76.4219537  50.4480886  51.4538956  11.9653811   4.4552999   6.0162437
  12.4892678   3.6962132   6.2722910  11.7510333   4.2991500   5.0965107
  21.5203190  27.5127864  58.8479233  22.2807312  27.1359420  59.2906380
  21.8464422  28.3257198  58.4618950   4.0157384  39.7369885  52.4383497
   4.7093961  39.6264935  53.0886269   3.6522025  38.8588762  52.3243713
  77.5111783  64.1079807  46.4329576  78.2873201  64.1729975  46.9893789
  77.8375044  64.2666769  45.5472040  19.6119237  53.8644838  47.2588396
  19.3782651  53.9642286  48.1817055  20.1206470  54.6491098  47.0544147
  15.4483330  67.6093340  27.1709847  14.9984467  66.8748426  27.5885487
  15.8376455  67.2339964  26.3811803  56.1053842  39.5379019  58.9778805
  56.1028284  38.5854959  58.8822269  55.4182404  39.8401117  58.3839607
  17.2431958  34.8685503  44.9997616  16.5126872  35.0821114  44.4192600
  17.7434659  34.2070961  44.5218086  44.3651893  16.6924243  19.4389618
  44.6386745  17.3523097  20.0761402  44.8796280  15.9165959  19.6618355
  14.7870469  61.1268616  51.2978697  15.3113282  60.4728651  50.8356476
  14.2222178  60.6152630  51.8770647  55.7651132  73.0073595  51.0448313
  56.5215749  72.6050472  51.4716101  55.5117768  73.7214088  51.6297960
  31.2464333  70.8841324  43.2859898  31.5462136  69.9912214  43.4564781
  32.0454955  71.4110422  43.2958364   3.6517629  23.5323429  28.6836410
   4.3392730  22.9443645  28.3708405   3.5425928  23.3035636  29.6066666
  58.2578508  41.7580987   5.5741299  58.7741677  41.2078057   6.1630524
  58.4888569  41.4526338   4.6968878  45.9552042  15.0611694  48.6190224
  46.7223827  15.6056506  48.4423685  45.9542839  14.9498565  49.5697308
  18.2450793   4.5705230  59.7090960  19.0678553   4.1982658  59.3917704
  18.1147925   4.1669280  60.5672169  76.0038465  48.3060551  32.3534536
  75.5533040  47.5937033  31.8998051  75.9680825  49.0406513  31.7408228
  21.4370131  50.3668594  38.7432861  22.0920825  51.0498333  38.8870454
  21.2806249  49.9981833  39.6126819  78.9423710  26.1134863  46.2788105
  79.6084970  25.5498600  46.6722965  78.7171048  25.6795239  45.4559088
  73.2516670  51.9093847  42.8159475  73.5060900  51.5111589  43.6483622
  73.1428385  52.8385973  43.0183315  42.6199893  10.1176173  38.7807226
  41.8138997  10.4027469  38.3504319  43.2099752  10.8675868  38.7052393
  67.4862856  34.7432065  43.3827066  68.0817622  35.4879975  43.4659243
  68.0475479  33.9749384  43.4874964  68.1349128  16.6104817  29.8343992
  67.2672790  16.2155771  29.9209690  68.0194741  17.5110829  30.1374221
   0.2726395  46.0458088  51.6887903  -0.4448347  46.6464520  51.8904972
   0.7235017  45.9221792  52.5240564  12.8599524  49.7895479  44.3255329
  11.9671690  49.7014570  44.6593142  12.8370202  49.3685007  43.4662151
  38.9554719   6.9987972  42.2085190  39.1896764   7.5026901  41.4291143
  39.3000702   6.1219508  42.0393229   5.9182137  18.8190770  56.8514967
   6.4118725  18.9726186  57.6570749   5.3779697  18.0527234  57.0440340
  64.1389984  50.0922298  38.3916879  64.9835235  50.0528622  37.9428458
  64.1548485  50.9274340  38.8590407  46.1927011   3.4988265  27.7604569
  46.5655937   3.4811120  28.6418522  45.5264612   2.8115897  27.7684010
  23.5695837   3.0440671  59.1022491  23.7903393   2.1128661  59.1212559
  24.3106196   3.4568889  58.6587667  67.8478104  61.5579891  54.9121618
  68.0619639  62.3448563  55.4133701  68.6822361  61.2802649  54.5342302
  23.0479612  41.9981580   5.0365246  23.6348857  42.7525334   5.0880468
  22.1738376  42.3798280   4.9561155  29.4261541  15.8802230  57.0070219
  29.2686390  15.5975826  56.1061716  29.9359388  15.1692588  57.3954439
  18.2921553  46.8808317  24.5587564  18.3006597  47.2917223  23.6942744
  17.3780763  46.6326904  24.6970224   6.4910722  63.2175303  35.1249838
   6.5098643  63.2617283  36.0809779   7.3157024  63.6185646  34.8504162
  14.0818357  57.7163935  65.5487061  13.5717368  58.5093403  65.7138157
  14.4176722  57.8284836  64.6593904  25.8374095  72.7032757  37.4618578
  25.5438280  72.5505733  36.5636802  26.7214561  73.0580330  37.3678327
  16.8295181  42.0476437  49.3149900  15.9808600  42.4592543  49.4780493
  17.0554662  42.3100281  48.4226131   7.0355386  47.9784393  48.9217806
   6.4295477  47.2494888  48.7889767   6.9627267  48.1836653  49.8538828
  70.3177875  76.6837358   8.2108903  70.1028007  76.3459063   9.0803051
  71.1105150  76.2099886   7.9591346   4.5917592  69.0255756  49.7291350
   4.9481187  68.9895458  48.8414752   3.6618147  68.8255854  49.6221923
  45.6831483   3.9503581   7.0488995  46.4503972   3.5067947   7.4105823
  45.9811083   4.8439700   6.8788671  64.1299087  59.7036791  60.5846262
  63.2414776  60.0427771  60.6938696  64.0273052  58.7522125  60.6050062
  79.3469661  38.4355736   4.0858272  80.2368716  38.7643623   4.2131016
  79.1782702  38.5565925   3.1514141  80.0419036  54.5234203  59.0235996
  79.9597974  54.9781752  59.8618650  80.9815604  54.5251751  58.8411903
  67.3161346  35.5208015  37.3062444  66.5156990  35.1806664  36.9064403
  67.7425426  36.0146260  36.6058540  19.2078066  43.4058046  44.9605322
  19.4993186  42.7616596  44.3152952  19.9861777  43.9327002  45.1414967
  33.8326309   9.5599086   9.4269192  33.4189777   8.9444358   8.8216746
  33.2910840  10.3474719   9.3749589  19.9114823  43.0346298  58.1117296
  19.7839844  43.6012316  58.8726091  20.5787325  42.4070740  58.3895493
  57.6017086   2.8837783  44.7204828  56.8535725   2.7226646  45.2954340
  58.3668820   2.7474696  45.2791977   8.2158411  68.3395720  48.9574718
   7.9558694  69.2385721  48.7563753   8.6434335  68.3993053  49.8117733
  15.2408151  18.2614238  37.6683569  15.2295832  19.0859039  37.1822023
  14.8017375  18.4644229  38.4943342  34.5836735  38.7281895  27.9011178
  33.8960528  38.1829023  27.5189257  35.3926516  38.4084725  27.5016618
  80.8466531  10.4390252  23.1960392  81.6015246  10.0796342  23.6621284
  81.1399344  11.2977087  22.8912735  23.6083031  64.1218090  56.9242668
  23.8748789  63.8613224  57.8059244  24.4182038  64.4131136  56.5054226
  33.9860559  32.6762056  33.8400674  33.1286025  32.4892330  33.4579110
  33.9054418  33.5650682  34.1859794  54.4963638  22.4746520  32.5811219
  53.9357320  21.9208915  32.0377326  55.1097910  21.8650443  32.9913855
  31.8418860  60.2862644  30.2290082  32.7678561  60.1790047  30.0115085
  31.8438768  60.7883453  31.0439587  25.9878143   6.5293508   4.1323174
  25.5957564   6.8487029   4.9450481  25.2936824   6.0181718   3.7162483
   6.3574600  59.8253727  49.0758848   6.9315034  60.0405502  49.8110056
   5.9438837  60.6567812  48.8436127   9.6527004  67.5327921  37.6310563
  10.0968838  66.8330383  37.1522260   9.1562855  68.0034637  36.9615221
  66.3296743  33.9473920   6.4114512  65.9389981  33.3980374   5.7318867
  65.6023641  34.4762568   6.7394054  10.0770783  34.7079372  46.0610676
   9.4680423  35.0983715  46.6878605  10.6380701  35.4339218  45.7881784
  80.8739137  31.5804720  44.1049957  80.4295296  32.4242496  44.1874123
  81.8030808  31.7885590  44.2028713  63.7543410  66.0985279  52.0973349
  64.2469770  66.8744087  51.8298388  64.3739766  65.5899620  52.6204443
  47.1767680  19.3165691  44.1319418  47.4961559  18.5054881  43.7365007
  46.2235145  19.2523391  44.0735149  69.4510835  34.0648556  12.6115215
  69.1563672  33.4497261  13.2830799  69.6407121  33.5159779  11.8505979
  31.2760687  46.6090059  15.1556015  30.9369326  46.5737534  14.2611885
  30.8684182  45.8632183  15.5958915  21.5502501  44.7325468  42.7337837
  22.4708080  44.9354506  42.9000139  21.5600467  44.2209578  41.9248247
  64.6896211   3.2619292  43.8822937  64.9040143   3.1908471  42.9521275
  64.9981538   2.4395473  44.2627239  80.3000106  55.1878452  44.4879532
  79.7537211  55.9499073  44.6804619  80.8321058  55.0696611  45.2748060
  73.6545068  25.6164837  46.7035341  74.3019456  25.3434372  46.0535336
  73.9910972  26.4456868  47.0431805  68.0381924  39.1067743   4.3970415
  67.6979178  39.0669608   5.2908313  67.7648848  39.9656439   4.0747431
  15.2619159  40.3722715  65.2408838  16.0078692  39.7893524  65.3822851
  14.7394872  39.9340653  64.5691109  62.4427062  62.6144028   7.1431923
  62.5904256  61.9862747   7.8502041  63.1970876  63.2022095   7.1835285
  10.7970762  57.4197626  61.8828917  10.7682872  56.5348196  61.5191889
  10.0120783  57.4806547  62.4272251  52.7419702  74.6835706  10.1541842
  52.3855130  75.3103397   9.5246351  53.6912338  74.7749398  10.0718296
  13.7480831  39.3893480  36.2669301  13.5568035  39.4438696  37.2032380
  14.4858360  39.9854612  36.1380792   8.0103749  62.7988720  61.1400843
   7.9546988  61.8645191  61.3403606   7.8091174  62.8560209  60.2060270
  78.3285394  43.4974623  54.2255020  77.8752828  43.9347792  53.5047054
  79.2391263  43.4399843  53.9360905   0.1739860  36.8111372   0.8457936
   0.6930607  37.0958304   1.5979522   0.5137857  35.9412861   0.6357303
  34.4520736  34.9739861  18.4490144  34.0829110  35.1710248  19.3099010
  33.7561870  35.2012038  17.8322923  26.5975928  52.6818705  31.5905547
  26.7030072  53.5174322  31.1356330  26.5958619  52.9133844  32.5193334
  30.9766658  14.2800193  11.8239821  30.8492764  14.9203114  11.1239565
  31.8899973  14.3919473  12.0876539   2.4580146  48.1576872  59.3873692
   2.4525693  47.7132034  60.2350903   1.5326452  48.2692242  59.1694641
  65.6470388  50.3088379  40.8130455  65.9271401  50.3645039  41.7266512
  65.2989429  51.1784172  40.6158447   8.0127984  58.7760592   3.4205854
   8.0841309  58.7200308   2.4676931   8.1529176  57.8792334   3.7244016
  48.9526767  60.2591038   5.9563637  48.8210887  59.9369240   5.0646722
  49.7556704  60.7778072   5.9075558  62.3434009   7.8834062  33.4105385
  62.5102963   8.4437089  32.6526249  61.5076043   7.4595170  33.2156170
  76.4943385  17.0715630  36.2982607  77.1774605  17.4993730  36.8145514
  76.0709500  16.4711976  36.9118857  11.5233660  24.9957323  18.9504027
  11.3935637  25.3416610  18.0673862  12.4203432  25.2430844  19.1750836
   2.7442595  72.9885864  22.7531075   2.2279154  72.6331234  23.4764767
   2.8444782  72.2545433  22.1469975   8.9731652  75.2229452  16.4564383
   9.4654077  74.5354939  16.9051516   9.4840181  76.0187912  16.6043735
  22.9525208  63.3839846  44.4796181  22.8526950  62.4330378  44.4352674
  22.2869539  63.7228584  43.8809395  15.1489377  60.7475567  37.5789165
  14.2539382  60.8543396  37.2567296  15.1024556  59.9967003  38.1707644
  74.6839845  46.2953377  30.9772587  73.7424237  46.1278868  30.9365678
  75.0269514  45.9346628  30.1596260  75.8629972  47.1173000  28.1340027
  75.6373411  46.4193535  27.5190377  75.3148204  47.8560638  27.8695035
   9.2169982  43.9918947  47.9105616   9.0733355  43.9899111  48.8569164
   9.3719912  44.9112463  47.6937628  21.7640233  50.7617235  21.2654090
  21.7095375  50.3050852  20.4259157  21.2601638  51.5649462  21.1342955
  66.1855787  51.1796045  47.9620981  66.8037170  50.7951927  47.3405123
  65.7583970  50.4271603  48.3714581  59.9655551  59.7612810  41.9877052
  60.3198880  60.3417110  41.3140726  59.4021720  59.1538286  41.5082932
  77.5672051  58.3684158  48.2526350  76.8655324  58.7860060  47.7531338
  77.6785773  57.5122309  47.8393841  21.1759853  55.9565926  24.7548890
  21.1189604  55.3216124  24.0409040  22.1091747  55.9991026  24.9636531
  24.5923924  35.9713721  15.3408110  24.9593306  36.7897558  15.0063932
  24.3815351  36.1594868  16.2553513  30.0143246  19.8287780  24.0103340
  30.6351678  20.4870898  24.3224335  29.2214252  19.9851138  24.5232701
  47.3879496  13.0703075  47.1560431  46.8485037  13.3565433  47.8931332
  47.7215759  12.2134311  47.4219275  40.2328555   1.2210519  22.3600078
  40.2657262   2.1211345  22.0359588  40.7794134   0.7265193  21.7493176
  27.6457856  17.8710277  31.0617661  28.1948296  17.6040561  31.7989969
  28.0695110  17.4846942  30.2953243   9.8603421  23.6208487  39.6877360
  10.1465011  22.9754567  40.3341246  10.0914168  24.4655466  40.0741529
  10.3353477  57.3708534  58.4934521   9.7580147  57.9606199  58.0085897
  11.2190080  57.6569366  58.2620811  13.7749708  66.6301203  46.4945793
  13.8133359  67.2551250  47.2185421  12.9845631  66.8713236  46.0115576
  77.1185121  67.7908278   5.0214648  76.3462961  68.3442211   4.9045533
  77.3624310  67.9108095   5.9392554  28.4336340   7.8120620  47.1533298
  28.9075584   8.6104686  47.3860788  28.9711984   7.4036319  46.4747667
  24.4127584  51.5412045  24.0043426  24.2978764  50.6946802  24.4361234
  24.7549319  52.1151686  24.6896958  69.7971648  70.0633717  53.4402943
  70.6398386  70.3680372  53.7769079  69.9315089  69.1317987  53.2660627
  19.7274804  67.9523897  41.1662149  19.5724547  67.8280497  42.1025562
  19.8790073  68.8927460  41.0713291   0.9871644  72.9493093  43.3007526
   0.3255456  73.4832668  42.8609991   0.5301611  72.5732613  44.0530634
  76.4531239  22.6659493   2.1594465  77.2391160  22.1661143   1.9389666
  76.0422095  22.8509622   1.3149632  79.7110647  74.2447758  59.4618368
  78.9314261  73.6999750  59.5694685  80.3959645  73.6324024  59.1932440
   9.3901539  58.4555817  54.0054560   9.0318966  58.7450695  53.1663609
   8.6265153  58.3751059  54.5769548   8.0763078  69.7695827  44.9150562
   8.8606560  69.9782324  44.4076157   8.3166188  69.9683475  45.8200312
  26.4491880  28.2391174  27.3204613  26.7777689  29.1241939  27.4782872
  26.7475182  28.0270488  26.4360070  19.6200097  76.0049105  54.2026567
  20.2315831  75.4357004  54.6697807  19.9923205  76.0871792  53.3246803
  27.1267581  67.5804567  55.6094456  27.4177265  68.3731985  55.1587534
  27.8012776  67.4186850  56.2690592  70.6520194  58.9823866  12.2143996
  70.8127278  58.8397980  11.2816215  71.3375771  59.5931721  12.4849296
  13.2569313  48.9189291  47.2754145  12.8771830  49.4170809  46.5516281
  12.5187826  48.7442923  47.8592539  44.7885323  54.0741491   7.6613867
  44.9648333  54.2030334   8.5933411  43.8565922  54.2699814   7.5646001
  11.7555368  74.5783138  27.8824496  10.8347738  74.4019175  27.6892877
  12.1288669  73.7182474  28.0751705  48.8019983  44.0875919  10.9526265
  48.2328192  43.5345943  10.4174030  48.7584869  44.9489028  10.5373299
  10.5693340  64.5160770  47.2731781  10.7314169  65.4196644  47.5442648
  10.0992417  64.5956850  46.4431763  41.8629432   2.3140156  17.5317085
  41.3994718   2.7118695  16.7947376  42.7889562   2.3905861  17.3017777
   6.3887542  67.9257107  36.9942522   6.7853248  68.7926912  37.0797586
   6.5466726  67.6789141  36.0829973  15.1111988   6.6730220  20.0328588
  15.1507084   6.5166766  19.0893400  14.5032183   6.0101325  20.3602266
  39.3881371  24.0297081  62.0957320  38.6650660  23.8596537  62.6994556
  39.9877610  23.2952835  62.2272777  25.0962830  72.6384306  29.7001600
  25.3404999  71.7140293  29.6546364  24.9614191  72.8957272  28.7881064
  36.6294024  15.3153236  41.9433498  37.3767106  15.0921066  42.4982691
  37.0209591  15.6786067  41.1490297  78.6749275  57.6374536  19.2721165
  79.0659650  57.2240834  18.5024059  78.1015666  58.3154302  18.9145744
  53.2855844  61.0071707  33.6638427  53.8679171  60.2823353  33.8913059
  52.4251556  60.7313395  33.9797688  74.8890974  42.1132662  53.6916851
  75.0613715  41.2557175  53.3028757  75.5409076  42.1959498  54.3877720
  61.3228220  42.9902983  56.6513586  61.3521749  42.1107483  57.0278645
  60.3893703  43.1765652  56.5503454  66.3642722  65.0424719  58.4273291
  65.8170670  64.2639685  58.5309219  66.0187751  65.6649494  59.0671635
  68.0571073  60.2486134  42.4029398  67.6055902  59.8589706  41.6542482
  68.1463295  61.1737156  42.1738958  71.8735496   7.6774509  38.1404495
  71.6009704   8.4937865  37.7215052  71.9922249   7.0640666  37.4152517
  73.3001745  44.2291689  42.4156713  74.1427785  44.5832157  42.7001047
  73.4719920  43.8730192  41.5439701  15.7182467  66.1246109   7.4310124
  14.8057723  65.8523655   7.3335159  16.0647202  65.5584717   8.1207025
  75.0697118  52.2264290  26.2740517  75.4396623  51.4438343  25.8654952
  74.4353956  51.8892622  26.9066620  61.9914643   9.3094737  50.6311035
  61.9941346   9.9068935  49.8832273  61.8467156   9.8755176  51.3893032
  18.3974731  28.9477539  37.3263717  17.6392221  29.2762804  36.8432999
  18.0225122  28.4096718  38.0235815  64.4737450  13.2240493  37.7263975
  64.5229928  13.6670215  38.5734987  64.9620430  13.7919910  37.1303773
  52.8380722  11.4536703  27.8194118  53.7028497  11.2733257  27.4508119
  52.5235599  12.2145820  27.3312235   3.9992729  56.5086079  17.1611655
   4.8599872  56.2838697  17.5145721   4.0961760  56.4103603  16.2139654
  26.2257671  63.6461210  33.5791373  25.7889652  62.8067827  33.7238598
  25.5359960  64.2210770  33.2476664  12.6653389  25.3043945  13.4821582
  12.4997608  24.3632514  13.4267986  11.8533603  25.7088287  13.1766081
  28.4668537  21.5096194  30.3106666  28.0856839  20.6339366  30.3749371
  27.9661808  22.0351608  30.9346581  62.7336208  15.7264049  30.5742645
  62.8791420  16.3259990  29.8424602  62.3342697  16.2699325  31.2534738
  18.1069243  75.5607176  23.0630422  17.2702682  75.9456587  23.3239126
  17.9232264  75.1325417  22.2268867  71.9945284  32.2930579   7.0128859
  71.0628780  32.3062043   6.7936028  72.4381908  32.4743371   6.1843145
  54.1111557   2.7544458  26.4313698  54.5991723   2.0026166  26.7672658
  54.4517533   2.8850896  25.5464077  30.7565142  10.3447730  42.1326542
  30.4858650  11.2260349  41.8750572  29.9589924   9.9390800  42.4726534
   8.0646783  71.8966484  33.5107493   7.7961779  71.0386896  33.8394547
   7.8758299  72.4987268  34.2305207   2.9229782   9.4601447  17.8664482
   2.5655983   8.6611659  18.2539451   3.2778261   9.1792876  17.0229828
   0.9852280  50.0408077  44.8818922   1.3669151  50.0996971  44.0060616
   0.2056677  50.5947542  44.8411703  35.9900055   1.6112621  49.6534538
  36.0637299   1.8505056  48.7295675  36.8940840   1.4829261  49.9405098
  70.7789880  65.2787876  36.3209820  69.8690098  65.2467680  36.6161871
  70.8035463  64.7019529  35.5575061  81.1343385  75.4368162  44.6072674
  81.3827182  76.1534834  45.1911592  81.0295064  75.8510828  43.7507486
  67.2338043   0.2394159  57.0920420  67.1137987   1.0021598  57.6577759
  67.3344121   0.6061895  56.2136412  46.3306346  44.9593358   6.5297020
  46.4892538  45.4098992   5.7002104  46.1710521  44.0488820   6.2810314
   4.1225871  57.0600271  45.0300121   4.6106708  57.6731634  45.5796194
   4.6541053  56.9722271  44.2388010   9.4759905  64.1530657  40.4709578
   8.8209385  63.6854076  40.9890604   8.9809549  64.5319891  39.7446036
   1.6396208  64.4730234  42.1265268   1.1912884  65.3027964  41.9631147
   2.1506302  64.3164444  41.3324356  18.0180444  32.5631671   3.4862745
  17.6061191  31.9195943   4.0627850  17.6056614  32.4202113   2.6343716
  23.1372736   4.3430145   8.1026983  23.4675236   4.6366698   8.9517748
  22.2304229   4.6485049   8.0797505  77.4284637  67.4074793  54.0932846
  76.9309416  67.9403830  53.4730291  78.1512284  67.9717445  54.3679619
  25.3292955  23.7547691  59.7005939  25.2850821  24.5678718  60.2037382
  24.8952685  23.1062228  60.2548790  16.2361173   0.7548387  30.2683187
  16.8320588   1.0243947  29.5694447  16.6870979   1.0011108  31.0759091
  27.0403339  21.0861308  45.5363560  26.5055695  21.0764129  44.7425270
  27.7206677  20.4324538  45.3748608  33.1028223  35.8538675  20.4998565
  33.6646724  36.4790559  20.9577823  32.3651123  35.7151008  21.0937905
  46.6537503  30.0474555  15.1777279  46.6667668  29.0912730  15.2198827
  47.4073736  30.2734477  14.6325552  49.1001217   2.1538551  44.9624348
  49.7739259   2.6122100  44.4603109  49.5897452   1.5950401  45.5659437
   5.8982867  61.3815403  31.7856312   6.5582800  60.8325958  32.2090697
   5.1844257  60.7792711  31.5760851  22.9653907  18.8690925  45.9689188
  23.6892772  19.1438329  46.5317106  22.3321152  18.4747028  46.5686274
  36.0394738  32.7806480  18.9328241  36.6233740  32.9782016  18.2005215
  35.3675983  33.4613044  18.8937902   9.7471921  11.5744502  54.6134329
  10.6634573  11.4871986  54.8762608   9.5863573  10.8171851  54.0504742
  27.5039929   0.9092338  21.6944289  26.5569473   1.0394866  21.6457295
  27.7908189   0.8931930  20.7813549  78.5435981  50.4510117  32.0374846
  78.1241336  50.2755070  32.8797889  78.7535101  51.3845205  32.0643449
   2.8106630  53.6217546  49.2275429   2.7857792  54.0321112  48.3631229
   3.0524617  52.7120161  49.0539312  15.0351715  57.0061350  25.9279251
  15.0340211  56.0551262  26.0366154  15.2364731  57.1411324  25.0019193
  50.5728642  25.7126052  57.9978800  49.7647087  25.5464751  57.5125790
  50.8361093  24.8528869  58.3262300  31.0065449  59.1643498   0.8859623
  30.1280878  58.8873670   1.1463964  31.0979758  58.8547943  -0.0151741
  23.3488107  75.0709963  52.6247120  22.7396965  75.0530338  53.3628798
  23.9316583  75.8065701  52.8129816   0.3654595  63.5429621  11.3887346
   1.0050285  63.9191151  10.7840121  -0.4738688  63.9060354  11.1060011
  13.3934128  64.6067238  53.0872202  13.3189571  65.3177977  52.4507809
  14.2757201  64.2594433  52.9562187  34.9159197  11.1777789  51.1707020
  34.5028148  10.7880409  50.4001951  35.5172936  10.5035217  51.4868736
  69.7118252  44.6199846   7.8219503  69.8458415  44.4903564   8.7608153
  68.9508229  44.0787935   7.6116651   0.4232742  43.3148527  24.1155553
   0.1845546  44.1905499  24.4195318   0.1941821  42.7377272  24.8440289
   5.9881550  47.4178791  57.8154325   6.2146872  48.2227850  58.2813168
   5.2119946  47.6472902  57.3043776   0.4262181  40.8063269  44.1884422
   0.1498771  39.9217534  43.9488554   0.7494241  40.7215881  45.0854301
  79.6415557  50.8229828  45.5646324  79.4827610  50.0568342  45.0132418
  78.9537351  50.7864141  46.2293148  37.0767951  42.6424265  29.2853928
  36.6530180  43.3278561  29.8019505  36.5724373  41.8517542  29.4769478
   2.5666115  41.2391043   8.7309617   2.7877203  40.3476000   9.0003341
   1.8527642  41.4956284   9.3147862  66.8428985  20.7954128  51.6733122
  66.7774192  20.2194221  50.9116173  66.4037792  20.3151233  52.3752499
  19.5339012  66.5482426  30.6431174  19.9825442  66.8291330  29.8455906
  18.6174870  66.7834663  30.4979086  29.0200917  22.3758037  54.9906111
  28.2889253  22.2450835  55.5943823  29.0283244  23.3185298  54.8249817
  16.9318513   9.8422534  15.6218266  17.0013384  10.5767638  15.0119925
  16.2226061   9.3046481  15.2694345   6.4268112  22.4323058  31.4236569
   6.6419607  22.0317411  32.2659707   6.5437490  23.3712840  31.5681434
  16.8610954  71.5005159  31.1968374  17.5107539  70.9530926  31.6378641
  17.3634589  71.9918728  30.5468917  68.0050486  72.3987722  47.5297737
  67.1261460  72.2235727  47.8660297  68.3142632  73.1441641  48.0445623
  11.6362798  63.5130548  38.7815452  10.9362400  63.7528181  39.3887424
  12.3856723  63.3190203  39.3445659   2.5965108  24.6182303  12.8739107
   1.9926323  25.3596263  12.9174316   2.6947107  24.4439321  11.9378508
  12.9994130  71.1154509  42.8063440  12.2916877  71.2953568  42.1874857
  13.7880814  71.4344311  42.3676157  45.8170652  75.9057951  41.8357992
  44.9101543  75.8127022  42.1274853  46.3329029  75.4711628  42.5149441
  39.5060945  20.2266812  34.9963188  39.3830848  19.3236303  34.7037435
  38.6179972  20.5601263  35.1240993  79.6586927  29.5340495   9.1953409
  79.5448240  30.4359059   8.8954819  78.7955650  29.2792850   9.5214403
  54.9449364   4.1207225  46.7250919  54.3029300   4.3762691  46.0627031
  54.4351689   4.0295417  47.5301075  11.0164561  30.4360490  13.9391125
  11.3996138  30.7629638  13.1251419  10.5223312  29.6595197  13.6762989
  47.2469807  68.4392786  65.7538557  48.1927967  68.2992029  65.7086563
  47.0712423  68.5896540  66.6826868  38.1040243  11.7057616  34.3367386
  38.9441113  11.2474353  34.3162322  37.6102547  11.2698562  35.0312924
   2.0408413  44.8410034  44.5682621   1.6377160  44.4665337  45.3515244
   1.4395942  45.5350065  44.2979097   7.1570301  73.4082365  10.0588286
   7.9859591  73.6993551  10.4387701   7.2740477  72.4683714   9.9202663
  12.9784167  71.9846916  31.4452267  12.7415013  71.5033722  30.6524849
  12.1518493  72.0931339  31.9156075  18.3176112  66.6081905  39.1305280
  18.7366402  67.0690584  39.8573327  17.5004411  67.0846558  38.9840889
  32.5589762  11.6767318  43.5409880  32.1844492  11.1695678  42.8207445
  31.7999042  12.0021445  44.0248775  80.7419895  68.7565517  39.6912169
  81.4012485  68.4024191  39.0943909  79.9368691  68.7769222  39.1739178
  69.4551738  71.2355332   5.9521664  69.9297913  71.8596940   6.5011633
  70.1410456  70.7217603   5.5257357  53.0424353  42.2477059   5.4689968
  52.3328859  42.2132306   6.1105431  53.8045149  42.5381474   5.9701050
   3.0740052  76.3054371  48.1315804   3.9807159  76.2478161  47.8302670
   3.1369179  76.6802120  49.0101099  44.5957438  -0.1200955  44.5653868
  45.5173222  -0.2592700  44.7834635  44.3601696   0.6862504  45.0242376
  79.3597786   2.1654136  40.9475183  78.8680498   2.9199750  40.6233644
  80.0000946   2.5389917  41.5530491  13.8246119  69.8626471   9.5154214
  13.7255585  69.9509430   8.5674638  13.0371881  69.3963814   9.7961181
  53.7061636   6.2203700  41.9906807  54.6158830   6.5074737  41.9118786
  53.6326353   5.4871471  41.3797712  39.1052008  58.3671474  38.3007669
  39.6278334  57.6485538  37.9447985  38.2910037  58.3430576  37.7980399
   5.4209558  18.0163200   5.1256913   6.2974588  17.6718623   5.2969378
   5.0213091  17.3736007   4.5396620  80.9460123  38.7438922   8.5655106
  80.0113710  38.9039283   8.6961592  81.3514694  39.0040402   9.3926514
  22.1644254  26.3212020  40.0010633  23.0001585  26.7067249  40.2640247
  21.9039200  26.8195731  39.2264748  79.4130988  68.2918406  24.0854716
  79.9893025  68.4329462  23.3342648  78.5875642  67.9959249  23.7018633
   9.2465883  37.5125694  46.6841507   9.7017384  37.3313069  47.5064754
   8.4452331  37.9644322  46.9485044  15.4188240  70.4075193  46.4828348
  16.2040758  70.3016853  45.9457970  15.3277743  69.5721579  46.9412231
  60.1672165  21.8906505   5.3669816  60.8831922  22.5206382   5.2849352
  59.7081629  21.9392402   4.5284471  40.7927422  12.6981742  45.8900499
  40.9650246  13.1673248  46.7064095  41.1025433  13.2894714  45.2040291
  59.6938101  19.5963485  48.1038427  58.8360492  19.2552097  47.8506613
  59.4971434  20.3528030  48.6564112  31.5273292   0.0802476  53.3128262
  32.0822812   0.8457000  53.4623051  31.3406528  -0.2551549  54.1896915
  23.6290312  59.6379232  18.7677169  24.1747332  60.0008869  19.4653535
  24.0479732  58.8069248  18.5437405  15.4556362   7.6237209  38.1681013
  14.8387782   7.5692565  37.4382019  14.9088697   7.8156478  38.9299679
  29.4015020   2.5789411  28.0430984  28.5298506   2.1836097  28.0302119
  29.9825243   1.8881805  27.7245235  23.5223556  65.5236769  66.2158775
  23.4540224  65.6901693  65.2757502  24.3723464  65.0965738  66.3223171
  53.6821977   8.5840327   7.7549857  53.9935152   8.6265857   6.8508273
  54.3050329   8.0061156   8.1958014  18.4666014  40.2777195  59.3051100
  18.1677449  40.9704065  59.8942661  19.3978465  40.1796913  59.5036125
   9.6884185  51.7727661  65.0187492   9.8029053  52.6760054  65.3141880
   9.1242093  51.3738060  65.6811142  17.7112496  69.6028280  49.8657942
  18.0754030  68.8727188  50.3663635  18.3416653  69.7475004  49.1601896
   8.5999487  25.3880794  37.8151083   9.4003294  25.8927161  37.6703358
   8.6943005  25.0383003  38.7011027  11.9519329  32.5603676  42.0831156
  12.6933014  32.8420782  41.5471601  12.2950554  31.8341494  42.6037931
  38.6948347  64.9924135  57.2019625  39.4067430  64.8504591  56.5780497
  39.0594935  65.5974770  57.8478384  76.4285260  50.3317547  43.6148643
  76.2537205  49.8051739  42.8348732  77.1872154  49.9130440  44.0214396
   5.1132240  63.0170350  12.9847277   4.9248924  62.0872216  13.1120480
   5.5850162  63.0541043  12.1526993  75.3069123  19.0604882  15.1338470
  75.1986082  19.5844798  14.3401611  76.2254127  18.7914281  15.1197327
  37.8500466   4.3095882  29.2547560  37.2025363   4.3412025  28.5505080
  37.3718301   3.9544780  30.0040460   8.4322858  61.3991499  10.2420878
   7.9035378  60.7034731  10.6328464   8.6707973  61.0623121   9.3784416
  23.9088750  68.2151222  61.0257339  23.7936926  69.1639805  61.0770130
  24.5112944  68.0862236  60.2931309  20.9509015  59.3642187  52.9943514
  21.4891100  59.0912628  52.2513437  20.0499201  59.2643976  52.6869392
  14.7729148  36.3085608  19.7049606  15.6172266  36.7591577  19.7233379
  14.7803249  35.7540755  20.4851711  18.1963662  13.0817516  35.2215958
  18.5717509  13.9353759  35.0056005  18.7042526  12.7804477  35.9749198
  45.1751606   2.2814328  17.3055458  45.2189676   2.0705945  18.2382095
  46.0821954   2.4604232  17.0575905   8.0727458  56.2521601  26.3906646
   8.2558495  56.2323761  25.4513478   7.7627486  57.1426344  26.5555525
  25.9059668  73.7972975  43.0536938  25.9814453  73.3874702  43.9154196
  25.1127529  74.3300438  43.1104898  26.6765203  24.8839526  11.7707813
  27.1545972  24.2022328  12.2429312  25.9679403  25.1340203  12.3637522
  41.7182235   6.9743926  28.5505199  42.2468237   6.2225158  28.2831264
  40.8155612   6.6581638  28.5126615  19.4328690  58.2456493  42.1734858
  19.4725835  59.1981649  42.0876265  19.0458119  57.9469204  41.3505793
  66.0109798   4.7327907  37.9892278  65.9394852   3.7819202  37.9057741
  65.2794353   4.9792297  38.5552168   2.3640198  42.4591255  37.3178220
   1.4809749  42.3949337  37.6816130   2.8534594  42.9666376  37.9652095
  64.0105575  20.4115343  10.9799898  64.5522946  20.5866027  10.2105081
  63.4311622  19.6997762  10.7080841  22.8280733  50.8488698  61.2588942
  23.6368288  50.9966059  60.7686686  22.5044180  51.7275472  61.4574041
  56.5826288  75.7018510  31.6751146  56.1834796  75.2805901  30.9138989
  55.8456007  75.9012794  32.2523928  52.6135304  58.8777309  27.2959876
  52.9108502  57.9949110  27.0758486  51.7320388  58.9325755  26.9269395
   4.8744681  12.0190549  25.0813556   4.5894858  12.7567053  24.5420146
   4.3948522  12.1237779  25.9030819  17.5254869  25.9561419  50.7106876
  16.9769073  25.3112650  50.2641153  17.2105217  25.9536481  51.6145802
  74.6186101  17.3466814  18.9471889  74.4966429  18.2085550  19.3453479
  74.6492255  16.7423725  19.6888804  66.2283756  73.5551857  28.9900208
  66.3903691  73.6677726  28.0533695  66.2236490  74.4456997  29.3410110
  29.3421626   4.4540322  18.5429072  29.9151874   4.0971950  17.8642750
  29.4512606   3.8597763  19.2853284  32.6175070   3.0857891  47.4496031
  33.2754540   3.4978586  46.8896580  32.3344064   2.3143676  46.9586897
  16.4143503  44.3984079  58.4849262  16.9553339  45.0654173  58.0622387
  15.9723651  43.9545107  57.7611637  21.5432791  56.7706294  49.8327755
  21.8012271  57.6870222  49.9323630  21.0874395  56.5601976  50.6477355
   0.7151192  34.2494464  30.4400206   0.1163970  34.5638347  29.7625828
   0.6688786  34.9137640  31.1276078  66.8419462  19.1758609  41.0733938
  66.3153976  18.3765125  41.0778379  67.6829511  18.9107502  41.4457655
  39.3751001  33.4383512  20.5058575  38.9304638  32.6320577  20.2442813
  39.5166802  33.9107609  19.6854818  40.0190252  22.8947234  43.0073214
  39.6469682  23.4513402  43.6914158  40.3366607  23.5087872  42.3453045
  15.5880511  23.3741689  43.7214375  15.4326391  24.3162823  43.7885237
  16.5352535  23.2951283  43.6083364  13.6029041  49.6631765   5.2930987
  13.3987880  50.3430080   4.6509162  13.3776498  48.8431931   4.8536438
   7.2994632  34.8701286  36.2158680   7.3784125  35.8237672  36.2398171
   7.4020451  34.6444488  35.2913260  14.3285894   7.6504177  40.6588364
  15.1877558   7.8981829  41.0004187  13.7747109   7.5745857  41.4358187
  75.6235713  13.4357417   7.7632666  76.2547952  13.2773483   7.0613414
  76.0517722  13.0999255   8.5507333  70.5394214  31.1483908   3.4977692
  70.5843049  30.5911756   2.7207693  69.7160667  31.6270781   3.4019828
   9.6767348  46.7176676  31.3741040   8.8100582  46.9271469  31.0259342
  10.0862622  47.5694609  31.5256524  69.0608221  51.9528675  39.9060655
  69.8463899  52.4323845  40.1690865  69.3204290  51.4847183  39.1125464
  25.7443666  13.7512386   8.0553323  25.2260399  14.5419514   7.9058647
  25.7553983  13.6484075   9.0069288  37.6927400  22.6887608  24.9773216
  38.0436730  23.5749269  25.0655603  38.4270048  22.1723580  24.6450305
  30.3980835  61.1566060  14.7156608  30.4633673  60.8710544  13.8043809
  30.8320959  60.4649084  15.2150798  12.1348476  32.8973603  47.3113108
  11.5180850  33.4376693  46.8174458  12.9312229  32.8967023  46.7802572
  18.8698125  52.2476006  52.3075819  18.4070456  51.4134598  52.3869181
  18.3224034  52.8714895  52.7843809  40.5640378  69.1288566  47.7568340
  40.3659274  68.2134520  47.9543638  40.3233518  69.2327391  46.8362284
   7.1666050  41.9179296  16.1128080   6.8798465  41.9339800  17.0259035
   6.3694292  42.0805120  15.6085157  14.0541581  73.4087465   0.4342115
  14.5749549  73.5368202   1.2270535  14.1119353  72.4695299   0.2588118
  51.8447369  28.4655666  43.6675787  51.6054004  29.3457079  43.3772326
  51.0677260  27.9353642  43.4904623  10.5390835  12.7686679  13.0598998
   9.7961509  12.3748064  12.6025641  10.3536713  13.7077177  13.0536795
  34.4638244  15.2973087  26.0586739  34.4712887  16.1806876  25.6901264
  33.5468070  15.0266464  26.0134006  70.2468425  36.5466118  16.4201677
  70.9320730  36.9578433  16.9470274  69.4284934  36.8699217  16.7970061
  25.6669188  44.0390348  34.1582298  25.4350972  44.8999119  33.8098407
  26.3614964  44.2164516  34.7925138   5.0854095  52.5775330   8.1764716
   5.0231751  51.6404407   7.9914999   4.5806917  52.6968997   8.9809865
  22.2620418  71.6902681  41.0492659  22.8189995  71.3920443  41.7683601
  22.8565981  72.1609460  40.4651451  52.3746413   1.1365527  30.6225014
  52.5494021   1.2450218  29.6876621  52.3853081   2.0271794  30.9730744
  80.9831594  40.0420856  56.6216516  81.7393154  39.5099354  56.3741207
  80.3231250  39.4063950  56.8982077  16.3965368  50.3195572  41.7843485
  16.8476844  49.6641016  41.2523031  16.7047262  50.1576805  42.6760054
   9.2398651  71.0325926  63.6673832   9.7460731  71.7838924  63.9764690
   9.8652418  70.3079431  63.6628485  76.7903640  68.4157079  16.6163683
  76.8923690  69.0582960  17.3184419  77.0883729  68.8716172  15.8292413
   9.2869413  23.4075809  12.1099269   9.5378673  23.3846116  11.1864865
   9.4409525  24.3136239  12.3775077  10.0960767  22.4420619  45.1280022
   9.7289097  23.2323027  45.5241585   9.5213306  21.7363286  45.4243803
  63.3438641  48.1681967  42.5709248  62.7064460  48.7741041  42.9488182
  63.9747995  48.0149221  43.2742453  40.5187410   7.9814750   7.7095097
  40.7475704   8.3681291   8.5547119  40.2665704   8.7274343   7.1652800
  16.2158922  60.6189487   3.4531105  15.5399040  60.0100515   3.1555975
  16.3469712  60.3992603   4.3754900  58.4206027  19.6973991  39.6108294
  58.7424797  18.8182294  39.8100519  58.4290475  19.7446299  38.6548328
  21.1196280  18.1420016   7.0384258  21.3747334  17.7562642   7.8764945
  20.2378368  17.8057015   6.8784910  64.3414253  46.2949133   4.1292822
  64.1646188  45.3805780   4.3505520  63.9873904  46.4004183   3.2462418
  68.3218092   2.9320508  35.8725929  69.1866022   2.5224137  35.8962989
  68.2797283   3.3531982  35.0140500  55.4965419  61.4661264  36.7658591
  55.0088757  61.3242054  35.9545183  55.7661670  60.5894613  37.0397162
  15.5768206  74.2265127  31.6318512  16.0548808  74.2789428  32.4594617
  16.0156014  73.5284700  31.1456013  46.3457151  73.8129284  58.7252617
  47.2406526  73.7665438  58.3888626  45.8603903  73.1735705  58.2038116
  18.7150872   3.3335239  29.5905137  18.4134626   2.9667756  30.4216266
  17.9533589   3.7973952  29.2429161  70.3579849  70.8943653  15.9551156
  70.7202262  71.6502094  16.4174068  69.4169396  71.0653019  15.9170926
  61.2900037  14.0223300   7.1454197  61.4098138  14.9493980   6.9394505
  60.6987399  14.0186858   7.8981656  68.7906784   4.2779559  10.2234924
  69.4804889   3.6288762  10.0853336  68.6102372   4.2394775  11.1627436
   8.5303909  30.7129622  24.4632101   8.7242961  29.8268771  24.7689629
   9.0107584  31.2837577  25.0629377  10.6744623   3.2882163  38.1403685
  10.9467494   3.0096996  39.0147352  11.3811529   2.9955828  37.5648808
  78.6683533  47.8759050  48.6689520  78.7086406  48.5019970  47.9460335
  79.4432481  47.3260498  48.5530615  25.5757240  66.9233222  64.2086505
  26.1046265  66.8222399  65.0000268  25.9307517  66.2763591  63.5990387
  70.7995206  19.9833751  28.5061240  71.6549307  19.6505857  28.2345438
  70.3660506  20.2258396  27.6878667   6.5579444  30.9950995  18.7620783
   6.9882846  30.3592849  18.1904316   6.4770555  31.7835093  18.2253301
  21.9634771  19.9303079  20.0593209  22.5682139  20.3876662  19.4750679
  22.2793818  19.0268207  20.0714421  69.2743713  24.7581196  19.2586112
  70.2177626  24.6526647  19.3815982  69.1757053  24.9658465  18.3294475
   3.0959401  19.0152764  39.5551348   2.4454296  19.1392660  40.2462912
   2.7603149  18.2823217  39.0390277  34.9810181   4.3116767  15.0221884
  34.1200415   3.9846904  14.7613585  35.5657200   4.0365321  14.3160379
  72.1871132  29.0116286  15.5869496  72.8750819  28.9690232  16.2511146
  71.4867651  28.4576344  15.9316730   7.0286328  11.5814304  30.9317946
   6.5729928  11.4374936  31.7611933   6.9696468  10.7411635  30.4771471
  14.6888518  40.8580589  23.7286329  15.4458451  40.3807211  24.0682483
  14.5441067  40.4889488  22.8574061   1.1155811  13.7276304  64.4881678
   1.3182326  13.8369310  63.5590744   1.7208722  14.3183148  64.9364376
  22.3261404  46.6747856  30.8249307  22.4451804  45.7275009  30.7562733
  23.1865621  47.0398855  30.6185269  13.5211062  22.6635075  20.4617143
  13.3175075  23.5947967  20.5482030  12.9309118  22.2309923  21.0788298
   9.5328701  38.8079834   2.4777932  10.4716885  38.7162209   2.6403731
   9.3831676  39.7533274   2.4656738  67.7994460  58.9590025  15.6768274
  67.8740472  59.8430443  15.3174627  68.0507642  58.3844852  14.9536419
  17.0248932  16.4326274   4.7505543  17.2680277  16.6646934   5.6468040
  16.4545721  15.6699538   4.8469490  58.2620154  74.2297597  59.6112936
  58.4994350  73.6521907  60.3367429  57.4324642  74.6240897  59.8807060
  17.4354756  44.7464991  22.7779579  18.1673741  44.3085194  22.3435235
  17.3100972  45.5543232  22.2800350  80.4181105   7.6680332  31.3948655
  81.0002843   8.4222776  31.3031006  79.5506127   8.0067426  31.1736083
  13.3788254  60.6923359   8.4025848  13.7491896  61.2668412   9.0726632
  13.4419872  59.8142557   8.7783760  66.8374195   2.1431877  64.0415632
  66.5513959   2.0620825  64.9514232  67.7860417   2.0203020  64.0768440
  80.1477563  17.5153852  32.4066901  80.2756411  17.1414006  33.2784772
  80.2898439  18.4544671  32.5257230  70.7004732  16.2360871  15.9661555
  71.2070674  16.7372739  15.3270876  70.6190568  16.8212533  16.7192721
   0.8183999  22.2934055  37.7689004   0.6360638  22.7331328  38.5993385
   0.8762370  23.0034280  37.1295619  54.9298519  28.5662389  42.3373985
  54.3738836  28.6074495  41.5593052  55.7491273  28.1812596  42.0262575
  17.2081288  10.8590939  62.8391754  17.9468163  11.2821295  62.4014317
  16.4633139  11.4333012  62.6609578  80.2086234  43.1214237  44.8455381
  79.9043170  42.4778938  45.4854584  80.7134776  42.6101112  44.2131519
  39.7087187  20.5700135  44.2419052  39.9227327  21.4698672  43.9955425
  40.5482620  20.1839209  44.4915628  77.9683687   7.4972441  59.6458435
  77.1200444   7.7866413  59.3099415  77.9469039   6.5440228  59.5613288
  78.7393644  16.8158937  46.1195612  78.7427205  16.0076094  45.6068277
  77.8909290  17.2163749  45.9298182  14.8095679  65.9123373  32.6525331
  14.8595321  65.2766228  31.9386697  15.0573480  66.7446184  32.2498608
   6.2488288  48.3325052  45.1955271   5.4089773  48.3222294  45.6546307
   6.3960862  47.4204540  44.9451208  14.7499728  32.9591823  32.7404165
  14.8059618  33.2528234  33.6497426  13.9199603  32.4848175  32.6925826
  78.9242622  30.0376081  13.6636472  79.5719498  30.6828284  13.3800578
  79.0280564  29.9959254  14.6142900  22.9227805  34.8846793  25.8344269
  23.3106208  34.4023967  25.1042128  22.6729989  34.2074132  26.4630365
   9.4836903  36.4374399  41.0036516   9.7987914  36.3457084  41.9028330
  10.2544963  36.2697434  40.4614639  56.3957741  42.7016546  61.0734325
  56.6088267  42.2395327  61.8841636  55.6224420  42.2495081  60.7361519
  72.6347810  29.5774794  29.1644454  72.5676143  30.0131750  28.3148050
  73.2458043  28.8558030  29.0158987  64.8070723  42.1562386  18.2422292
  64.1761631  41.9154072  17.5638592  65.4068476  42.7622700  17.8072250
   6.8610527  59.3474739  17.8102207   6.9130947  58.4558313  18.1544542
   7.3023512  59.3028789  16.9619894  12.6725388  48.4726334  28.0566359
  13.3572769  47.9754543  28.5040522  12.6471102  48.1040764  27.1736002
  68.5913696  22.2958853  18.4526455  68.9560618  23.1302502  18.7477123
  68.1446578  22.5063517  17.6326525  21.7567682  44.1007519  45.9279108
  21.7523694  43.4120893  46.5927124  22.6201558  44.5060587  46.0086250
  80.1289295  66.5076208  26.2079740  80.7880178  65.8692503  25.9353662
  79.8467550  66.9233418  25.3932428   7.3081028  32.4395514  41.6057873
   6.8071729  32.7714658  42.3508596   6.6465855  32.0879650  41.0099554
  71.9154706  73.7721371  32.0371556  71.0934760  74.0382030  32.4491811
  72.2713282  74.5806744  31.6685581  56.7777985  56.2482452  38.5759950
  56.5853351  55.9355116  37.6920342  56.6426438  55.4833603  39.1353846
  63.2873148  33.8688207  26.1532688  63.8801271  34.5444512  26.4824057
  62.7955502  34.3011212  25.4550457  61.3423459  29.6560732  -0.0973141
  61.0803954  29.6615914   0.8233250  61.6133157  28.7532548  -0.2638256
  13.8728762  67.1592474  23.2930255  13.0220354  67.4787712  23.5933709
  14.1022217  67.7368021  22.5649714  79.8799066  21.2400913  47.3222303
  79.6189682  21.8582892  48.0048513  80.1037920  20.4395962  47.7969027
   8.2679099  45.6608629  41.7494202   8.7891394  44.8826790  41.5519857
   7.3669124  45.4005766  41.5578842  11.9842851  47.1026707  36.4030743
  11.4184344  47.8698063  36.3162017  11.4995718  46.3976765  35.9738088
  10.1044130  34.8413897  43.2680988   9.9565071  34.3838930  42.4404192
  10.1766062  34.1427112  43.9183807  69.8261315  36.9422698  32.7640653
  70.3478223  37.4868894  33.3535218  69.3616873  36.3386607  33.3438754
  78.3974630  29.4328570  26.5492439  78.7114972  30.2236199  26.9877720
  78.4855023  28.7431455  27.2071028  78.8069202  12.3894823   7.0516908
  79.4258916  12.1080148   6.3779831  78.2306233  11.6356289   7.1774650
  12.3638391  20.6284904  21.9824958  11.4662099  20.8188915  21.7100239
  12.2770262  20.2908373  22.8739476  21.8245077   4.3335927  56.4207315
  21.9702244   3.6203796  55.7991838  22.6057220   4.8813814  56.3441610
  44.4460648  14.3347561  39.7052431  44.4017404  15.0377607  39.0571284
  44.4408911  14.7863686  40.5491924  73.3240271  59.1397572   7.9160768
  73.0452287  58.6879015   7.1196300  74.2585313  59.3006563   7.7855211
   4.3711718  22.6580670  64.5130728   4.1264375  23.3748677  65.0983373
   5.0129851  23.0440619  63.9169877  63.3208162  16.0017157  26.5519905
  62.7253228  16.4637291  27.1420431  63.2015771  16.4326847  25.7056570
  19.2668986  58.9948845  10.4676092  19.6102250  58.4882784  11.2036180
  20.0377059  59.4142342  10.0852001  11.1769521  33.7987924   2.1281531
  12.0945907  33.5279822   2.0992495  11.1991310  34.6809387   2.4990392
   2.0686731  36.4327836  10.1087701   2.5237623  35.6814313  10.4890287
   1.3654239  36.6257572  10.7287967  10.1010406  22.8961587  16.1701214
  10.7407343  22.7343345  16.8635452   9.4600385  22.1918392  16.2664676
  73.0164665  48.8340378  19.3505061  72.2595280  48.2628584  19.4809961
  72.6438725  49.7128344  19.2789316   6.6152281  68.2305908  21.8885398
   6.7718470  68.9265156  22.5268149   6.1812073  67.5397301  22.3891115
  80.3422986  29.0299559  44.8408604  79.4471541  29.0399361  45.1797533
  80.5570893  29.9527311  44.7045326  20.0660682  55.3576517  18.8399911
  20.4405570  55.8218384  18.0913150  19.4786918  55.9943724  19.2471838
  46.4442939  23.8208127   3.4928995  46.6458052  24.3795919   2.7423069
  45.5358618  23.5526466   3.3548152  79.3601315  23.4801698  24.3710995
  79.2004302  22.5444841  24.4944572  79.5636548  23.5676861  23.4398890
  71.3595152  30.2067089  43.5724783  72.2915399  30.4184556  43.6246681
  70.9620291  30.9747124  43.1621027  63.0134982  17.7861607  24.2814851
  63.7475353  18.4004426  24.2903590  62.6604837  17.8475988  23.3938837
   0.4522784  17.3651767   9.1367525   0.5587504  16.6567087   8.5019541
  -0.4917893  17.4115515   9.2878067  18.8009441  41.4261675   4.8406217
  17.8788447  41.6472197   4.7098625  19.0336537  40.9051609   4.0720952
  15.4608734  13.2892468  54.6909260  15.2330883  14.1726782  54.9805736
  16.4178665  13.2826950  54.6720027  77.8357851   3.7905243  47.6489782
  77.5126436   3.7202883  46.7507124  78.0749464   4.7122627  47.7460957
  59.3618816  35.5117345  46.6968632  58.9819044  36.3888812  46.7464828
  58.6085027  34.9295902  46.5980673  41.2870407  47.5149775  20.3378654
  40.5153799  47.9770565  20.6653666  41.9080162  47.5398493  21.0658789
  32.8851128  36.0919046   1.2535335  32.2481465  35.4523849   0.9349154
  33.1449103  36.5806937   0.4726222  71.1359292  32.3008060  25.1191020
  71.2835175  32.7678704  25.9414744  71.5101081  32.8723168  24.4485807
  65.7002117  43.8953402  45.5875289  66.3711347  44.4037344  45.1318681
  65.4224338  44.4584849  46.3099825  65.3569859  54.8307085  36.0485601
  65.8593053  54.1123962  36.4331746  64.4523174  54.5179749  36.0499358
  63.6832684  13.1990278  47.9076338  63.9005250  12.6120985  47.1833801
  64.5008463  13.6597919  48.0960321  77.8285338   6.7478945  65.6674573
  78.7824490   6.6760971  65.7009255  77.5255253   6.2771704  66.4438845
  14.5171583  52.1210098  24.5431733  15.3266704  51.6890907  24.8158741
  13.9181304  51.9935513  25.2788043   2.5305530  42.4210072  19.5598900
   2.0772512  42.6537752  18.7496018   1.8877810  42.5858068  20.2497578
   6.9484431  27.3049927  38.9438701   7.2270191  26.6193914  38.3367634
   7.6733559  27.3849654  39.5638204   6.4133000  55.3966951  18.1718612
   6.7478400  56.1800385  18.6085439   7.1607763  55.0604057  17.6774728
  24.3158889  30.4857159  51.2558460  24.5864177  30.4281592  50.3394794
  24.2271924  29.5750594  51.5370417  68.9375788  55.2751923  19.6811640
  69.7481984  55.3525925  19.1780376  68.3577973  54.7569942  19.1229916
  33.0602026  24.7614145  15.9248173  33.1081319  23.9619970  15.4005373
  33.9398599  25.1351881  15.8725965  44.3660444  19.1296387  43.9052773
  43.7009042  19.5599341  44.4425535  43.8919061  18.8346601  43.1278372
  60.2620596   5.5262333   1.9858104  60.9671396   6.0871345   2.3090543
  59.4594902   5.9976280   2.2091965  59.0280979  60.0814383  13.2413161
  59.6688785  59.5616477  12.7560842  58.7095671  60.7227772  12.6061356
   0.9505934  49.8494816  30.7668328   0.7087879  50.4262209  31.4914942
   0.1207281  49.4744539  30.4720259  17.5366020  35.1572132  50.8491993
  17.9498136  34.3531132  50.5346966  17.7231991  35.1710558  51.7879343
  71.2159699  25.6505442  55.0565100  70.9563428  24.8746943  55.5533838
  70.4070932  26.1524057  54.9560881  79.4217513  50.5137205  17.7669179
  79.9769667  51.2906885  17.7013886  79.6667770  50.1139355  18.6014032
  72.5977302  34.6268892  19.5911109  73.3550090  34.5833993  19.0072715
  71.9289356  34.0983510  19.1556871  80.6980367  35.9563947  28.7454605
  80.9051758  36.8456554  29.0327597  80.0580306  36.0744357  28.0435419
  31.5614986  46.0746908   2.7018064  32.3156476  46.6356564   2.5206769
  30.9548044  46.2493086   1.9823194   4.5897299  43.6462831   3.7082002
   4.5957860  43.3474159   4.6175265   3.6639476  43.6550713   3.4651327
  65.2243489  43.5267544  11.7798924  64.5812219  42.8188133  11.7419338
  66.0433632  43.1218719  11.4943779  39.7122312  23.2739377  11.9007039
  40.5440474  23.7402558  11.9835210  39.9264741  22.3637652  12.1054447
  63.9476305  50.3903389  17.0512927  63.1098300  50.8273458  16.8985021
  63.9452916  49.6493769  16.4453197  15.8644831  51.7217731  28.9315891
  16.3108397  50.8770800  28.8725185  14.9998987  51.5628052  28.5528374
  57.7418836   1.6019039   9.0878428  57.5287413   1.0037022   9.8040522
  58.6916070   1.7092805   9.1400612   4.6062070  10.1635909  10.0998712
   5.3172004   9.8575568  10.6629550   5.0175560  10.8074200   9.5232362
  19.0801942  31.0771680   7.0138180  18.4562206  30.4891205   6.5882736
  19.8413634  31.0793638   6.4334327  40.6804111  14.9250748  50.9399974
  40.3436341  15.3197958  50.1356303  40.2866544  15.4414179  51.6432595
  56.2048620   0.1518603  37.2522354  55.8251661   0.8334735  36.6977406
  57.1259350   0.3979902  37.3375368  22.4877834  61.4216661  25.3992963
  21.6988087  61.8917418  25.6690717  22.5971150  60.7380819  26.0603452
  26.9633508  44.3411779  30.9310150  26.8228102  43.4047747  31.0711074
  27.6475453  44.5770502  31.5574932  21.6576171  62.1685839  38.9177752
  22.3164344  61.6928482  38.4119415  22.1237636  62.4647617  39.6995807
   9.6510541  29.8402524  58.4643841   9.7094411  29.0512967  59.0032434
   8.9876944  29.6323347  57.8063917   8.6911392  56.0929203  23.7309957
   7.9642093  56.3380575  23.1585336   8.9187396  55.2031088  23.4614277
  24.7052097  19.0800869   2.3069121  24.8294878  19.7436559   1.6283372
  23.7558484  18.9733541   2.3665240  17.0474672  31.7854929  31.4726686
  16.3622117  32.2963619  31.9035625  17.1282780  32.1782255  30.6034946
  13.1850350  34.4460893  39.8501492  13.6709321  35.1078248  39.3579698
  12.2793519  34.5467448  39.5571685   3.7618884  33.0459237  21.0778427
   4.4362324  33.6938906  20.8738065   4.2492843  32.2432017  21.2630844
  59.8507182  10.4081638   5.1169503  60.2688400   9.5537383   5.2235574
  60.2455894  10.7707793   4.3239704   0.7941801  18.3273339  28.3255911
   1.0226841  17.7738798  27.5787926  -0.0614833  18.6924052  28.1002116
  29.5233059  64.0821028  33.3055830  30.3584123  64.1598320  32.8442931
  29.0819645  64.9159956  33.1441069  31.9228196  56.5070009  38.4980369
  31.3641858  55.8550930  38.0747390  32.8107595  56.2736082  38.2272553
   8.4288446   5.5176933  50.6001425   8.8669435   4.7151191  50.3170013
   8.7834446   6.1986072  50.0284338  45.1235104  45.8186007  20.5361533
  44.4120264  45.2946329  20.1680732  45.3404713  45.3826380  21.3602281
   4.6646282  63.5602427  24.7577214   5.3289992  62.8714132  24.7388983
   4.8558614  64.0557480  25.5540490   7.4714285  47.2678566   9.3851656
   6.6805327  47.0194054   8.9066386   8.1862211  47.0957279   8.7722421
  12.9551601  19.5969641  26.4346409  12.2899139  19.7516406  25.7640052
  12.5284183  19.8407531  27.2560358  79.0184772  22.0276785   9.1922581
  78.4596512  22.7931309   9.0579879  78.9567539  21.5391231   8.3714432
   4.0449288  30.2448630  61.0722160   3.4729993  30.8027005  60.5450153
   4.9288467  30.4561877  60.7717800   4.8092929  23.7027264  35.6000543
   4.8286945  24.4303775  34.9784613   4.3354243  24.0470099  36.3571215
  11.1886871  39.6256924  51.3843727  11.8815660  39.4073606  52.0076561
  10.6487393  40.2698088  51.8424129  18.9189204  55.9694006  65.8433032
  19.5255478  55.2486803  65.6736071  19.4737347  56.7490675  65.8662865
  50.5221652  28.8794999   1.4648521  51.1405005  28.1997972   1.1967218
  51.0131108  29.6968274   1.3801468  31.3824964  14.2659235  31.1724329
  32.1524334  14.4106328  30.6224465  31.6179895  14.6457624  32.0188951
  27.8135777  47.3600483  34.4783044  27.4758339  48.2545233  34.5238471
  27.0496941  46.8264627  34.2592192  14.4086742  42.5017166  42.6100159
  14.5632625  42.3360395  41.6800261  15.1767695  42.1365786  43.0492640
  17.8364980  39.0149450  31.8475723  16.9207728  39.2636490  31.7217779
  18.0098605  39.1984510  32.7708840  53.9999580  69.9231720  44.2221594
  53.6674833  70.1823616  45.0815248  54.9313974  69.7560787  44.3661356
   8.0758055  14.1018154  61.1378139   7.2195943  13.6775067  61.0821670
   8.4617885  13.7576248  61.9432830  36.2749743  62.6046515   8.5762370
  36.6508245  63.4826326   8.5121143  35.3510642  62.7229357   8.3557147
   4.1845077  43.4563255  23.5724545   4.5638394  42.6557922  23.2098484
   3.2387209  43.3213472  23.5132957  80.2513027  33.2899475  22.5123978
  80.7867997  32.9931855  23.2482028  79.9730945  34.1719913  22.7590322
  65.4908375  41.9120960  60.7036936  65.0953821  41.0446293  60.6179869
  66.3299612  41.7512102  61.1352252  31.3211794   6.4080055  12.7140760
  32.2277598   6.1081798  12.6474047  31.0865293   6.2594516  13.6301017
  54.7971932  16.1476619  55.1154757  54.2054741  16.0719020  54.3669033
  54.3249528  15.7322986  55.8370686   9.7858256  64.6916771  50.2054310
   9.2901093  64.2005301  50.8606195   9.2322928  64.6756268  49.4246769
  44.1983275   5.4681976  24.6431112  43.7285105   6.2088592  25.0264072
  43.6663155   4.7048671  24.8679042  19.8223078  49.5894957  14.6743023
  19.1992712  49.5422363  15.3994393  19.3741298  49.1609144  13.9451349
  23.5668778  43.6721325  15.4459512  24.3499422  43.4677505  15.9570980
  22.8450775  43.3053541  15.9565496  11.2802386  53.0091906  16.0362017
  10.7695699  53.5246420  16.6605091  12.1273851  52.8852654  16.4642406
  16.0457615  69.0490458   6.8725861  15.7913927  68.1263778   6.8580616
  15.2253167  69.5214889   7.0136536  61.3106960  62.3291588  30.7798600
  60.6599325  62.8609514  30.3216720  60.9624761  61.4383936  30.7409358
  37.7107477  39.6844459  30.5936551  38.4890842  39.7439122  30.0396776
  37.9429507  40.1690817  31.3857675  11.2436986  32.8971577  49.9783039
  10.3931391  32.4649334  49.9010897  11.5467215  32.9925776  49.0753603
  80.2404651  41.4626980  61.2250042  79.8721586  40.8930206  60.5496883
  79.9469979  42.3412037  60.9834623  21.1545477  68.3997602  62.5585180
  21.8481634  68.0072374  62.0283716  20.3491370  68.2110758  62.0769125
   9.0742916  69.5602512  13.5078382   9.3804234  69.9945116  14.3040371
   9.0338540  70.2586555  12.8545189  16.1514533  62.6398897  41.5386343
  16.8550289  63.2708931  41.6904545  15.8175206  62.4385738  42.4128151
  76.6669369  62.2728300  39.3183517  76.2680346  61.4103508  39.4334173
  77.5555956  62.0871592  39.0149641  60.4902714  32.6588655  60.0909328
  60.6699628  33.2251191  60.8414650  60.6374854  31.7719197  60.4193974
  48.9929265  57.1692657  19.5097411  49.1589254  57.4179173  18.6004281
  48.5719317  57.9376888  19.8951340  22.7796412  58.6356688  41.5036583
  22.5661159  58.1398392  40.7132244  23.7331438  58.7175655  41.4847565
   0.9530468  32.2746873  53.7203693   0.7250059  31.3453150  53.6980915
   0.4798947  32.6552057  52.9803944  27.2719526  48.6037397  29.9808025
  28.0458689  48.2931232  29.5109034  27.4655342  49.5192337  30.1823545
   5.5468017  72.1612597  44.2504501   5.6069785  72.2898006  45.1970673
   6.3883084  71.7753696  44.0071678  68.3923205  32.7076964   3.2141245
  67.4428864  32.7552943   3.1021345  68.7270053  33.4750371   2.7500093
  15.2606761  57.0658016  34.0524960  15.2334487  57.9605436  34.3915009
  14.7784710  56.5500259  34.6987820  29.9870745  22.2321326  16.0884023
  29.5609606  21.5897853  15.5209100  30.7279209  21.7608554  16.4695525
  22.7824950  65.2286005  27.6787353  22.2315383  65.0304365  28.4359717
  23.5073805  64.6065521  27.7406073  29.9643133   1.3403280  23.1581998
  29.0589033   1.1150367  22.9444051  30.1930214   0.7542236  23.8795900
  44.5947264  67.7692266  57.7670145  44.9722717  67.2511406  58.4778439
  43.7645994  68.0901690  58.1193161  47.5662820   0.8937556  31.6405201
  46.7578308   0.7683093  32.1374130  47.9487650   1.6927774  32.0031571
  10.7690609  49.6858883  46.2226486  10.0078785  49.5652103  45.6549597
  10.8827043  50.6350183  46.2723541   5.3808355  16.3894570  18.4839094
   4.7015953  16.2714505  17.8198767   5.4743099  15.5262899  18.8869441
   3.8531253  13.2238889  58.2827282   3.7853992  12.2801936  58.4279346
   4.4854760  13.3117068  57.5695276  65.1454872  54.6501207  16.1338830
  65.2617019  55.0134325  15.2559698  64.6919912  55.3387976  16.6199899
  30.0523877  17.2308898  26.9839692  30.2549028  17.2881317  26.0501909
  30.0400972  18.1402409  27.2825694  26.6180905  71.6597719  65.4186492
  26.3709178  71.1113257  66.1631930  27.5232593  71.9139023  65.5984230
  22.0346665  72.2842503  20.5392003  21.6846418  71.3946247  20.5869484
  21.2617326  72.8478718  20.5728626  16.9814467  62.5175238  38.8308311
  16.5952539  62.6898289  39.6895504  16.3243473  61.9927168  38.3736372
  74.7753980  13.4281685  65.1857877  75.0745298  12.8958561  65.9229428
  73.9922287  13.8710930  65.5124285  73.5811025  68.9520359  40.3674030
  73.1787515  68.2792187  39.8181629  73.4596777  69.7653389  39.8774767
  75.3206785   0.0347548   3.8643873  74.6379884  -0.6143351   4.0342367
  74.9539169   0.8580523   4.1867245  34.4951681  16.9429214  50.4295254
  34.5923225  17.6043613  51.1145782  35.2428100  16.3581855  50.5534077
  21.5654016  44.4350576  60.2105284  21.8565583  44.4237566  61.1222982
  21.5607190  43.5142422  59.9491644  58.1052512  21.9177055  43.5874891
  58.7055200  22.6516724  43.4563255  57.4757618  21.9919944  42.8702307
  72.3374826  14.0334272  24.2980003  72.8292328  13.2446218  24.0695262
  72.9129404  14.7557259  24.0462780  67.3536962  20.5420232  35.7394719
  66.9872993  20.0497007  35.0048947  66.7292207  20.4085255  36.4525223
   0.4777050  48.6387157  15.7860327   0.4512015  49.5211744  15.4161787
   0.2588991  48.7596035  16.7100143  13.6059487  44.7745132  20.9115624
  14.1296375  43.9734459  20.9280276  13.8811922  45.2242231  20.1126695
  79.2399272  34.1616631  32.3338151  78.5941818  34.8542261  32.4738097
  80.0691478  34.5464063  32.6177120  72.9396182  54.9510813  22.0193362
  73.1021726  54.4531631  21.2181544  73.5316479  55.7008600  21.9596386
  80.7841327   6.2222245  60.5123472  79.8478081   6.4121630  60.4535841
  81.0611274   6.6339209  61.3308894   9.6247339  13.2096040  31.0607672
   9.2144334  12.8195858  31.8326306   8.9004648  13.6138403  30.5830026
  24.2667103  62.0366907  31.9979811  23.3796334  62.3957968  31.9787645
  24.3243551  61.5857458  32.8403306  75.6608099  58.0057049  18.3283961
  75.0633603  58.1066608  17.5873876  75.9215933  58.8998032  18.5493386
  49.0469122  52.2497272   0.5049315  48.6021137  51.9624567  -0.2924774
  48.8883018  51.5462351   1.1343524  11.1978221  39.3412399  42.2027588
  11.2512851  39.1646838  43.1420183  11.6380930  38.5962820  41.7935801
  20.6516504  43.0223608   6.0249484  20.2713490  43.5625458   6.7176241
  19.9128580  42.8084660   5.4551542  19.2638075  53.9681768  43.4011173
  19.5956147  54.8583698  43.5181189  18.4808552  53.9302635  43.9504623
  13.3060884  76.2467957  36.4546132  14.2096996  76.5562153  36.5177011
  13.1746256  76.0800743  35.5212593  26.9662958  14.5342357  29.0081215
  27.1661228  13.6255939  29.2332220  27.6714488  15.0412948  29.4104648
   2.9921940  50.6494474  48.8475227   2.1000400  50.7261229  48.5092688
   2.8802159  50.4930162  49.7851896  11.0855782  48.1708384  48.7341356
  10.5892062  48.0082607  47.9320049  10.5397499  48.7771463  49.2348289
  78.3863693  53.8337564  19.9236965  78.0781493  53.5466862  19.0641487
  78.8851647  54.6310043  19.7452927  41.5284590  20.4452617  48.3319044
  41.9323270  19.6403129  48.6562204  40.5873052  20.2899558  48.4115458
  74.9575957   9.8714499   2.1781338  74.7271093  10.3747563   2.9590261
  74.5101865  10.3221898   1.4619720   1.1028568   1.9078309   7.4237174
   0.2500216   2.3357112   7.3474264   1.6838280   2.4316365   6.8720543
  79.7168820  27.3410320  36.9012022  79.9942782  28.1128144  37.3947954
  80.2391490  27.3689771  36.0995245  25.3805041  60.8753252  20.6941128
  24.6058893  61.3940287  20.9112573  25.9820652  61.0264921  21.4231586
  17.3935819  29.9797869  47.5918293  18.1156361  30.4931760  47.2294760
  17.0410049  30.5253339  48.2948971  72.5661170   1.5349552  18.2146764
  73.1836414   0.8053727  18.2657146  72.9503298   2.1293065  17.5701928
  43.0486659  16.9653613  24.1636610  42.9841594  16.1746127  23.6281371
  42.9283528  16.6568763  25.0617671  69.2420405  55.3373718  14.3859792
  68.8453084  56.0425377  13.8745320  69.2839676  55.6826401  15.2777553
  16.0869551  22.8327250  62.4837017  16.7757142  23.0900311  61.8708086
  15.4673350  23.5621405  62.4676704  23.0880857  27.7383804  28.3485699
  22.2126770  27.4878478  28.0534053  23.2955599  28.5242176  27.8429556
  80.6562932   9.2726998   4.6411360  80.6595381  10.2266126   4.5619286
  79.9093111   8.9910512   4.1130054  53.1864452  25.6703591  52.4860287
  53.1393099  26.5422678  52.0938778  52.3014832  25.3176689  52.3928499
  69.4736606  57.4276972  21.5154839  68.7039655  56.9901800  21.1516428
  69.9052292  56.7547226  22.0418739  24.7092891  40.5037785   8.1936055
  24.4496894  39.7210336   8.6795568  23.8888431  40.8521843   7.8447294
  30.9603095  41.1369658  30.4282618  31.5755510  41.1396694  29.6949792
  31.2021732  40.3657055  30.9409952   7.0466822  56.4632320  40.6228209
   6.8643600  57.1704531  40.0040913   6.6054076  55.6996918  40.2506495
  38.4526777  28.2700634  25.5246782  37.9270434  27.5252223  25.8164835
  39.3479824  28.0452490  25.7778955  14.7464454  29.2632079  47.1683884
  15.2154541  29.8325205  47.7784252  15.3825212  29.0763354  46.4779425
  69.4021016  55.7150745  45.7245874  69.8972529  56.2473726  45.1019192
  69.3140799  56.2715006  46.4984560   8.4957765  66.2531657  57.9877763
   8.7247179  66.1677952  58.9132648   7.8595148  65.5549808  57.8330481
   7.5924810   2.9534390  64.4199815   6.9565876   2.6403334  63.7766814
   8.4174569   2.5431111  64.1606022  19.7206271  40.2454233  36.4896894
  19.9090099  41.1644650  36.2996745  20.4035687  39.9836493  37.1071839
   4.7380579  35.4651475  59.1691828   4.5075861  36.3508892  58.8888597
   4.4809076  34.9071169  58.4352160  80.1141814  13.4390402  42.5111675
  80.8724083  13.7762284  42.0340633  80.4253440  12.6278603  42.9129076
  13.0271272   4.2999465  17.8379321  13.5232906   3.8462264  18.5192513
  12.2719328   4.6681220  18.2965815  28.7523962  72.6824281  20.4600323
  28.1244029  72.5839827  19.7443665  29.4790148  72.1065901  20.2219761
   5.1880735  51.0651970  16.1589825   5.9400648  50.4730511  16.1692715
   5.4113156  51.7468882  16.7927766  26.5668249  75.2709723  28.6401343
  26.0694265  74.5056057  28.3519673  26.2129521  75.4745150  29.5059156
  12.8771627  46.3617563   5.9636766  12.2617114  47.0851612   5.8447820
  12.4781406  45.8168411   6.6419703  76.5655324  69.2441845  40.5040979
  76.9290772  68.8519621  39.7102284  75.8605087  68.6508465  40.7631731
   9.6790791  61.3923311  30.9138823   9.4531196  61.1072922  31.7992806
   9.0939921  62.1304274  30.7432461  74.1653222  39.4271088  51.8125105
  74.5881480  38.6516094  52.1813583  74.2158341  39.2996979  50.8651733
  28.7391663  71.6572571  38.9776373  29.5440221  72.1622229  39.0936136
  28.2267880  71.8389750  39.7654700   8.5250962  49.8391104  44.7243929
   8.8964516  49.4350958  43.9401102   7.6428056  49.4732904  44.7873974
  13.9041591  68.6703539  48.4532547  14.5292091  68.9337683  49.1286469
  13.0500221  68.9167500  48.8081741  79.1905071  22.2773983  57.8892797
  80.0433399  22.3548462  58.3169591  79.2334272  22.8916313  57.1564042
  37.8724925   3.3037193  13.5850549  37.1886186   2.8714854  14.0966392
  37.6725618   3.0758483  12.6771259  52.4784729   2.3988824   7.9565847
  52.6941042   1.5821557   8.4068001  53.1444604   3.0190377   8.2533968
  79.6601305   4.6143443  17.1993721  78.9719186   4.1874511  16.6891193
  79.5278440   5.5496413  17.0446134  16.7055178   8.0986208  41.9457960
  17.5107515   7.7481622  42.3265982  16.9456983   8.9737117  41.6412306
  25.6268287  28.8456964  19.5256805  26.0323286  28.0057383  19.3105626
  25.2402353  29.1429496  18.7020206   8.1962824  66.2171459  34.5483255
   7.7065223  66.5454531  33.7942839   8.6872578  65.4693031  34.2078686
  74.7602004  50.4615641  11.0691535  75.6025004  50.5668449  10.6267989
  74.5677793  51.3281345  11.4272845  12.8939676  53.9019728  31.8043804
  12.7274227  54.8444128  31.7870998  13.8457489  53.8281870  31.8743873
   4.9364460  14.6715760  39.1614723   4.6525401  14.8579490  38.2665443
   4.1522783  14.3371809  39.5967793  49.9780760  74.3862195  64.3199919
  49.5159016  74.3961759  63.4818220  50.7153116  74.9836011  64.1940955
  11.0476911  44.8818159  52.2150660  11.4819026  44.0506172  52.4068832
  10.5827796  45.1011133  53.0225277  13.9484179  22.8790998  39.5658326
  14.1025984  23.5762286  38.9282823  13.8498032  22.0878053  39.0363407
  66.9961554  40.5925322  36.1279392  67.0262986  41.4502811  36.5517163
  66.3830882  40.7056522  35.4015875  59.4476241  64.4200993  57.8774500
  59.7263020  64.8079062  57.0478821  59.7874540  63.5256767  57.8498459
  29.6889973  53.2496881  29.8528481  29.2713070  54.0188408  30.2403688
  29.3243885  53.1987858  28.9692760  67.7051216  29.7858119  21.7092586
  67.0080191  29.2142057  21.3874769  67.3569161  30.6711268  21.6034198
  71.6069877  62.1954823  50.1059723  71.8321842  61.4782000  49.5135021
  72.4494946  62.5808382  50.3466320  18.0421424  19.5845509  41.8718004
  18.1715202  18.8723636  41.2454748  17.0917106  19.6810460  41.9317865
  36.5690684  65.0768614  24.7444201  35.7710767  65.3505325  25.1966858
  37.2074223  65.7596445  24.9506783  49.7456925  74.1663567   2.4446052
  49.5154249  74.0364330   3.3645663  50.6744291  73.9398499   2.3958735
  33.2466221  52.2104025  36.9682312  33.2920527  51.3521385  36.5468621
  34.1395617  52.3764229  37.2704387  13.9599502  51.1196613  51.0424519
  13.1866145  51.1397934  50.4787350  13.8581669  50.3210735  51.5602589
  11.9391358  71.1293983   2.4434419  12.4166870  70.4561186   2.9280773
  12.0761645  70.9046650   1.5231436  20.4598379  54.9608564  27.3977876
  20.1251435  55.7427025  27.8370309  20.5720353  55.2281618  26.4855409
   0.5506517  68.7636852   6.1414438   0.5861349  68.5723877   5.2042252
   1.4548533  68.9701223   6.3781589  50.1207226  42.1111059  12.5447857
  50.5496925  42.0924854  11.6892922  49.6040982  42.9168701  12.5361812
  67.2785515  39.4962287  32.4811602  67.0816928  39.0384841  31.6638780
  66.4252537  39.7828507  32.8066778  43.1802968  62.0775888   3.8394154
  42.6103524  62.3886798   3.1361235  43.0183128  61.1350582   3.8797558
  25.2041340  40.4870510  28.2447839  24.3249011  40.1188850  28.3321428
  25.5702901  40.4449415  29.1281796  71.2329406  18.9492321  22.3458886
  70.4151815  18.5089028  22.1143436  71.1628133  19.1048563  23.2877445
   7.4476719  41.6818142  39.2362356   8.3229649  41.2952375  39.2107105
   6.8537426  40.9352636  39.1578770  78.0082252   4.3314745  57.5523102
  77.8844192   5.0821688  56.9714778  78.1258704   3.5879853  56.9610279
  42.2672749  28.9124155  14.9243188  42.4231005  29.5933342  14.2698717
  41.5889883  29.2772341  15.4927063  22.4018092  63.6355085  64.0404379
  23.0561639  63.0040784  64.3393459  22.9130889  64.3901939  63.7484157
  80.2514427  30.3702855  32.2848225  81.1677308  30.4937696  32.0370317
  80.0729345  29.4499993  32.0913267  77.6988133   4.1692405  15.2703941
  77.4134048   5.0767093  15.1642311  78.5392316   4.1275458  14.8141087
  79.1887036  32.1602011  34.1352415  79.4955826  31.4121985  33.6228466
  78.9675562  32.8236675  33.4816813  78.6653465  70.1502132  38.0170107
  79.1643271  70.6014919  37.3361301  78.2802567  70.8545828  38.5383558
   9.3655056  43.2366705  57.3157644  10.2029157  43.6119270  57.5880861
   8.9999121  43.8812542  56.7098904  70.2153200  65.7617664   3.2367781
  70.6005746  65.4025793   2.4375317  70.6556827  65.2937698   3.9462095
  17.3082268  59.8454809  47.4270630  17.0371056  59.3316650  48.1877995
  16.4982414  60.2394533  47.1031189  80.0233538  48.4091759  27.2469878
  80.7345058  47.7809572  27.1211314  80.0747018  48.6467648  28.1728101
  16.1546524  11.5333082  43.4149301  16.7394694  11.1167052  42.7819502
  15.5618819  10.8338167  43.6898267  69.3747324  54.8266268  36.0544419
  69.6315533  55.7334232  35.8871055  70.0862163  54.4705009  36.5866017
   5.0512731  46.8668222  29.9123311   4.1816980  47.0453739  30.2703667
   4.9475351  46.9736385  28.9667821  73.3060161   3.7429912   3.6297399
  74.2164985   3.6739166   3.3425510  73.2821266   4.5389468   4.1608849
  23.4589005  30.3480077  27.0760942  23.4700513  31.2066174  27.4990582
  23.4582257  30.5426788  26.1388993  20.8821654  38.2554007   5.7214081
  21.1690688  39.1163588   6.0258245  21.6822910  37.7305055   5.6987196
  22.8858185  48.8084459  19.4327033  22.4854183  48.4141588  18.6578155
  23.8273859  48.7566280  19.2684066  77.9382119  45.7743263  14.6342230
  78.7122333  45.2343893  14.7941840  77.2382006  45.3397894  15.1214516
  32.5082908   2.3950870  23.9456677  31.6074095   2.6639564  24.1255426
  32.5932012   2.4631316  22.9946709  32.0779061  31.0707617  15.5589795
  32.9564762  30.8276892  15.2669835  31.9261241  30.5323100  16.3356805
  60.9764284  40.9844780  50.6736660  61.2902468  40.1036787  50.4688692
  60.8610052  41.4020967  49.8201418  34.5921860   4.3192489  46.2475920
  35.4699574   3.9375694  46.2393093  34.5994649   4.9522311  45.5295944
  73.9257657  15.3070712  34.1757679  74.6117854  15.1226974  34.8173404
  74.3932337  15.4022276  33.3459187  17.9117012  70.7847357  26.3890767
  17.4371219  70.6093359  27.2016287  18.0883443  71.7251873  26.4131069
  23.4829450  53.1219006  59.1375303  22.5642538  53.3406496  59.2936945
  23.9717388  53.8412905  59.5372677  19.3567574  49.2556381   7.4571550
  18.5408437  49.7059393   7.2386432  19.8752296  49.9118757   7.9227406
  32.8303480  59.0861940  33.0073905  32.0619202  59.1553640  33.5739279
  32.6937699  58.2759380  32.5164032  56.9513718  10.5504234  44.7251081
  56.8852107  10.2234657  45.6222963  57.4893490  11.3389022  44.7965908
  81.4126059  32.7565289  51.1439991  81.5021113  32.5210810  50.2205372
  80.5534789  32.4175310  51.3954258  14.8295772  15.6893456  62.7797794
  14.5449269  14.8292279  63.0886555  14.0222001  16.1250424  62.5067568
  72.6273918  20.4160857  30.9348917  72.3143679  21.1879611  31.4065456
  72.1218657  20.4107189  30.1220918  72.8920305  51.9084167  14.9403524
  73.0765206  52.4956942  15.6733620  73.5064876  52.1773624  14.2574596
  17.2327507  36.4961982  58.8524342  17.6869845  35.7348323  59.2132998
  17.2903597  37.1582222  59.5413733  33.1843281  28.9446187  30.7304645
  32.6224875  29.1708660  29.9892616  33.3257413  28.0018067  30.6447911
  45.8848619  48.2416821  30.0071001  45.7559729  47.3432922  29.7029448
  46.4052963  48.1519318  30.8054280  39.1306329  33.4646201   8.6283517
  39.3528390  33.2883668   7.7141362  39.3124557  32.6415873   9.0819925
  44.2106108   5.2914531  13.8016403  44.5859138   5.3104789  12.9212892
  44.9273900   5.5659873  14.3735623  22.9545784  44.4151354  12.8923261
  22.0902824  44.8215628  12.8287780  23.0708766  44.2444992  13.8269866
  10.5255230  12.5712397  65.9251384   9.7056421  12.4769213  66.4100425
  10.9783157  13.2946303  66.3586365  37.7324700  56.7430925  34.3301988
  37.3532414  56.5768528  33.4671926  38.3851624  56.0519457  34.4421768
  19.2046869  17.7207875  23.6290979  18.6567616  16.9434559  23.5206342
  19.4086719  17.9966247  22.7354884  49.6815197   4.2607124  62.7501059
  49.5278517   3.3568008  63.0249882  48.8157074   4.5869357  62.5047970
  30.5732107  68.9235067  27.6471376  30.2203918  68.1644773  28.1114984
  29.9405551  69.6220446  27.8145409  26.3269925  53.3295965  25.0142288
  27.0879316  53.8858747  24.8476243  25.5788541  53.9240456  24.9581265
  39.1610050  45.9245872  34.1387749  38.7527990  45.8082342  34.9967146
  39.5216513  46.8109083  34.1633511  13.5072958  49.7393179  41.2802553
  13.2570171  48.8561821  41.5516758  14.4455457  49.7892094  41.4630938
  41.9610834  43.1320286   2.1203478  41.6584921  42.6659346   2.8997228
  41.5689659  44.0020943   2.1942818  17.0473123  25.7440948  25.5232406
  16.2339509  26.0892534  25.1550817  17.2988117  25.0377941  24.9281597
  11.4625323  36.7392230  12.1377635  10.9734273  37.5619650  12.1274793
  11.5816569  36.5198374  11.2136912   1.5830614  58.5237455  20.3695655
   0.7124437  58.5995960  20.7600832   1.5594018  57.6953077  19.8906517
  70.4091948  42.8806734  47.3678207  70.7283825  42.7050304  48.2529736
  69.7947127  43.6068058  47.4744844  79.6022923  39.8294520  18.4131610
  80.3891446  39.2892909  18.3402145  79.5526934  40.0562239  19.3417859
   8.4757555  16.5602505  38.8468480   8.1166315  17.3796248  39.1872716
   8.4145057  15.9487212  39.5806813  42.0728461  16.0634238  13.8135433
  42.2193996  15.2375324  14.2746878  41.1203674  16.1488445  13.7720680
  47.9670954  70.6014013  25.3718042  48.5112715  71.3582802  25.1544547
  47.0946741  70.9674692  25.5170965  37.6021091  29.3324954  32.9526377
  38.1678299  30.0287635  32.6188636  36.9375781  29.7900588  33.4676790
  64.6493775  63.3805180  25.2021694  65.1494008  62.8737068  24.5623636
  64.8094755  62.9383373  26.0358834  23.7290597  32.7586174  30.6981444
  23.2014179  33.3758450  31.2049556  23.5732079  31.9113541  31.1153841
   1.2485574  74.8006487  29.8160434   0.4630913  74.2846441  29.6343374
   0.9219821  75.5899763  30.2479482  74.9015695  55.9070587  30.7490253
  74.0104318  55.6326962  30.9654284  74.9331069  55.8858490  29.7925806
  67.0466938  13.2810261  45.4779922  66.6331257  13.7739804  46.1866462
  66.6499796  13.6303284  44.6799719  19.9498260  53.3646059  37.2398829
  19.5613754  52.5155544  37.0290637  20.8814955  53.2557344  37.0491719
  51.8125385  58.5555458  10.4790413  51.2762946  58.1321907   9.8086357
  52.5881356  57.9993296  10.5518770  34.3695211  35.7318139   9.8779184
  34.1176009  35.3953457   9.0179431  35.1627517  35.2453971  10.1024520
  23.2816935  29.2564416  15.7515526  22.8923583  29.3732190  14.8849428
  24.1962886  29.0356779  15.5754614  30.6112504  72.5818825  14.2024887
  30.7292533  71.8645573  14.8251855  30.1597714  72.1819830  13.4591997
  60.8041231  11.8317706  40.4113865  61.0213105  12.5304515  39.7942114
  61.4915649  11.8769653  41.0759258  80.7519857   1.0207422  27.4808931
  81.0502187   1.5648229  26.7520142  80.0910703   1.5537364  27.9228663
  27.1732879  69.7186184  48.5036802  26.2614059  69.8829889  48.2635021
  27.5713611  70.5882740  48.5420370  65.9740788  68.3044863  16.0701108
  65.1744312  68.0377960  16.5236247  66.6662055  68.1987953  16.7228138
  13.0575788  54.2632341  10.4960251  12.4851632  53.5048676  10.3800607
  13.9435673  53.9040947  10.4483116  79.8712961  24.0790565  21.6745687
  79.7822324  24.1103465  20.7220340  80.7942287  24.2754180  21.8354082
  38.4257650  52.5679684  10.7911682  38.8597107  52.1109247  10.0707269
  37.5360966  52.7241611  10.4744267   3.2303762  33.6818695  13.8640749
   3.9510313  33.9923000  13.3158755   3.0490604  32.7983260  13.5435987
   7.3569643  70.0138187  40.7855654   7.9247510  69.4063187  41.2596893
   6.8687809  70.4699183  41.4710426  34.3684220  53.4174204  31.6976523
  35.1199603  53.1417036  31.1728644  33.8045979  53.8849688  31.0814309
  32.3405409  52.8556442  28.0735731  32.1498251  52.2654819  28.8026595
  31.5636420  53.4105968  28.0051136  30.5600667  54.6658134  37.0230007
  30.4826140  54.0072346  36.3327074  29.6883440  54.7039557  37.4165440
  46.8270294  17.8654868  23.1899095  47.7651445  17.7667434  23.3524489
  46.4606158  18.1066138  24.0406919   3.2637432  43.0566549  34.7802162
   4.0874502  42.5755501  34.8594427   2.7161121  42.7117109  35.4854441
  27.1265658   7.9102137  56.6527903  27.5509461   7.8066065  55.8010864
  27.7933749   8.3191731  57.2044706  12.0268397   0.0732381  63.3372402
  12.7567772  -0.0632279  62.7332497  12.3544280   0.7145555  63.9678192
  35.0393915  66.9478750  29.5981169  34.5451403  67.3449993  28.8810110
  35.8052969  66.5597916  29.1750193  26.5189028  40.4618025   6.1752701
  26.1054611  40.0652838   5.4084122  25.8150983  40.5251312   6.8209320
  23.5372734  47.5467014  14.7335100  23.1546903  48.3986759  14.9432755
  22.8471684  47.0849657  14.2572892  32.9887128  50.4179144   8.2710624
  33.7910914  50.9110880   8.1001866  32.8370333  50.5251694   9.2100626
   6.7518306  48.8741446  37.3136306   6.7619056  48.5902977  38.2277203
   6.1592054  49.6257496  37.3027492  17.3111010  39.0588474  48.8265657
  17.2111750  39.1603494  47.8800249  17.5162554  39.9391603  49.1415167
   1.7412934  68.7928581   9.6402699   1.3623668  69.6654320   9.7463661
   2.4234615  68.7449217  10.3100312  60.2560798   0.8932264  49.6420383
  59.3098942   0.9909208  49.5351696  60.6223981   1.7012603  49.2827082
   5.6204685  54.5708268  25.8799028   5.4562410  55.4743784  25.6099820
   6.5081128  54.5853536  26.2378216  32.6167750  29.8864961  37.9379630
  33.5386372  30.1269269  37.8452635  32.2058249  30.1976442  37.1314025
  14.7415626  53.3270693   7.5481629  15.6938004  53.2427740   7.5968421
  14.4130325  52.4501753   7.7465594  35.3264594  76.4554071  45.3904057
  34.4905353  76.2784338  45.8218479  35.0858259  76.8799734  44.5669556
  37.6775360  68.6961746  39.1081786  37.2310090  68.5276222  39.9378991
  36.9716644  68.8896370  38.4912920  37.0266151  61.1703587  28.9781952
  36.4206147  60.4360867  29.0773988  36.9796109  61.3958549  28.0491233
  77.1737099  58.2330513  28.7472010  76.5873772  58.8623953  29.1671658
  77.6812085  57.8604507  29.4682050   6.7603344  45.3129339  46.6512775
   6.5029734  45.1029205  47.5489902   6.1170721  44.8604774  46.1056328
  23.2648921  69.5039749  11.9948721  22.5584817  68.9961624  11.5956938
  23.3715677  69.1221762  12.8661251  77.8256752  23.2571318  66.3751536
  78.6101868  22.8840401  65.9731872  77.1341922  23.1137993  65.7289813
  35.6320977  59.0930128   4.5783234  35.7928133  59.8072433   5.1949883
  34.6782970  59.0295601   4.5286188  66.5207450  18.0150707  54.6301413
  66.4217393  17.2332103  54.0868902  67.4502031  18.0320842  54.8582840
  20.3375816  70.7062149   2.5633109  20.6972241  69.8553610   2.8141898
  19.3937933  70.6154728   2.6946908  16.5771627  49.9828386  33.9997768
  16.0959232  49.8754644  34.8202109  16.8983078  50.8841610  34.0266728
  12.0217562  71.1321783  20.5721116  11.4581382  70.7269812  21.2311888
  11.5646219  71.9369936  20.3281307  65.5044542  67.9659886  51.4853644
  66.3373361  67.5765414  51.7515730  65.5963240  68.8951774  51.6960775
  21.6121157  43.7750532  63.2865998  20.7399090  43.4894755  63.0146956
  21.5223940  43.9621832  64.2210325   4.3384349  46.0504389  37.8008938
   3.9616817  46.3213491  36.9636965   4.9596196  45.3592443  37.5715280
  38.6009328   1.4789111  50.5820084  38.7927393   2.0919902  51.2916374
  39.4568113   1.1382301  50.3219318  11.5111220  67.1203423  44.7421598
  10.8294153  67.2730064  45.3965330  11.0462153  66.7424440  43.9956427
   1.9441569  62.9970884  24.3457413   1.7312333  62.4099493  23.6203718
   2.9009566  63.0110407  24.3696547  22.1918297  65.8447123  33.2285094
  23.1340909  65.8209944  33.0617380  21.9710255  64.9487925  33.4830832
   4.9429043   1.7293598  41.2615239   5.5431755   1.7372133  40.5159747
   4.1831573   2.2290137  40.9625899  38.6040401  61.6438055   9.0439320
  37.6729894  61.8394375   8.9385605  38.7787843  60.9569979   8.4005105
  35.0083105  31.2822158  38.3560729  34.4624476  31.9724567  38.7326884
  35.5845122  31.0150153  39.0721893  15.4802072  52.9409027  32.0793271
  15.6213498  51.9986534  31.9872546  16.0281897  53.1936979  32.8223252
  35.5003146   2.4236448  27.4972582  34.7520355   2.7481086  26.9962263
  35.1133559   1.8629224  28.1696320  53.3367316   0.3614719  65.5429268
  52.8108827   0.7760293  66.2269258  53.7967173  -0.3480952  65.9914351
   8.2220137  69.8117447   4.1687676   8.6447120  70.6224680   4.4521260
   8.9224589  69.3091202   3.7528646   2.0326360  16.3650086  63.0207905
   1.1942180  16.2524702  62.5728827   1.9511493  17.2039654  63.4743753
  22.3214126  52.8290033  39.8071027  21.6519952  53.3531857  39.3673944
  22.6268601  53.3837843  40.5248451  32.8397767   5.0974948  19.8869383
  33.1772093   5.7035358  20.5465436  32.0766220   5.5436523  19.5198345
   7.4214184  72.0179224  49.6378040   7.7205080  71.3669682  50.2726507
   6.7348194  72.5020409  50.0965452  30.3473977  15.2368362  43.1769943
  31.1771027  15.7035739  43.0771065  29.7025479  15.8004958  42.7495718
  33.2201229  14.8101432  15.0741434  33.2245098  14.7515399  14.1187501
  32.6665763  15.5673415  15.2651215  78.6869451  20.1056147  25.7547331
  77.7488357  20.1025343  25.5645394  78.7461397  20.4006672  26.6633964
  17.4524975   8.0410635  21.0614872  16.7340052   7.4646926  20.8011079
  17.4027574   8.7766284  20.4509950   5.3125376  51.7276573  47.6193619
   4.5743740  51.3531494  48.1000805   5.9104103  50.9918928  47.4873114
  12.0042825  67.8934383  28.4069180  11.2743914  67.3962736  28.7761307
  12.3767042  67.3141289  27.7421355  16.6991615  67.9024363  21.1433768
  16.7688644  67.0889187  21.6429377  15.7679665  68.1221581  21.1721826
   9.3011316  30.7916023  62.6931422   9.4453462  29.8474505  62.6298123
   9.2782195  31.0918715  61.7845463  24.3601418  45.5844450  23.9567661
  23.4357810  45.6498098  24.1965938  24.4130397  45.9938097  23.0931377
  41.2756729  60.7015038   6.2518984  40.5150270  61.1434937   5.8746833
  40.9202242  59.9015141   6.6390765  14.1797590  65.8803797  42.8473759
  13.3000302  65.9323263  42.4737358  14.0549111  66.0580778  43.7796164
   4.6059468  38.4143257  41.4292383   4.5357788  39.0890121  42.1045971
   5.1662189  37.7429938  41.8186474  38.3070183  73.8793993   3.2325861
  37.4908757  73.6708069   2.7780181  38.0861902  74.6244049   3.7915447
  49.5058541  15.2447941  56.7144048  49.5010622  14.8192217  55.8570277
  49.0545907  14.6278383  57.2905611  36.9475007  74.5948267  44.6027565
  37.4587464  74.0817738  45.2285671  36.2942576  75.0445175  45.1387453
  31.8997733   3.1436975  30.8809376  32.2673498   4.0182025  31.0088396
  30.9521849   3.2788331  30.8877826  26.2793136  75.3402090   4.7791141
  25.9427595  74.6975374   5.4035622  25.5263376  75.5571079   4.2293745
  31.3415239  25.2319247  12.0102763  30.8279778  24.4253261  11.9667232
  31.5468873  25.4346854  11.0976171  30.3895044  36.4389014  33.8429046
  30.8765244  37.2604942  33.9063692  29.7578502  36.5886259  33.1394649
  42.2235946  26.4076240  46.9155169  42.4270288  25.7518775  46.2485504
  41.7137734  25.9320266  47.5713491  26.5617633  24.3963742  26.8956399
  26.2759161  24.8411512  26.0977054  25.7608199  24.2850161  27.4078107
  14.7001469  62.5476360  10.2212310  15.2495646  63.2667780   9.9094582
  15.2807832  62.0250654  10.7744169  13.6842489  27.1078324  31.3724017
  14.0115631  26.6465139  30.6002069  14.1698170  26.7256618  32.1034288
   5.0130373  57.0819426  24.8960829   4.3771088  57.7973413  24.9015331
   5.5780828  57.2694635  24.1465569  24.8812819  69.1403341  31.8232131
  23.9656377  69.3876743  31.6941857  25.2237201  69.0191460  30.9376168
  25.8497071  55.5184507  22.6633883  25.5593657  54.7081327  22.2446775
  25.2927113  55.6009769  23.4374547  73.0478430  75.9580851   6.9861400
  73.2812536  76.8726683   7.1451741  73.3179027  75.7956553   6.0823059
  70.7585661   2.3939473   9.8248529  70.2125017   2.0407874   9.1224831
  71.2205402   1.6322715  10.1750791  59.9389140  26.1455352  58.8046169
  59.8383681  26.9492442  59.3146849  60.8295957  25.8510024  58.9948034
  29.0902901  68.6511517  21.5544415  29.7536063  68.2897043  20.9665632
  28.3854699  68.9371157  20.9733343   6.5681195  68.6618185   1.8359703
   6.4515418  68.0590916   2.5703838   6.6611189  69.5223188   2.2447702
  43.2722425  55.3835821  19.0625930  43.6609888  55.2624226  18.1963205
  42.3520851  55.5801725  18.8868225   1.1728074  69.1339445  24.7650337
   0.5229288  68.4311771  24.7681284   1.3866879  69.2664528  25.6885743
  59.1264271  45.0652699   1.0429132  59.9866219  45.4844766   1.0191811
  59.1626569  44.4048600   0.3509796  32.4884558  48.5430813  12.9443097
  33.2789183  48.9803028  13.2609189  32.1296573  48.1075239  13.7174749
  28.0282784  62.5698519  27.1850419  27.3872805  62.5656605  27.8959131
  27.7272844  63.2610273  26.5952015  21.3135600  59.4081450  46.2971354
  21.8539810  59.0743399  45.5810690  20.5909944  58.7838173  46.3630199
  18.9578462  58.1199598  32.1320248  18.4855533  58.0213499  31.3053155
  19.4512689  57.3049879  32.2246671  81.4690282   9.8611691  61.5069979
  80.5234148   9.8788931  61.3595706  81.5618755   9.7514918  62.4533501
  58.4473220   2.0365579  36.9013214  58.0460278   2.5125987  36.1742854
  57.9042164   2.2541435  37.6588988  57.8473752  28.1390908  65.5380419
  58.0892163  28.9586165  65.9694639  57.7801584  28.3672669  64.6108697
  15.7599552   5.9087469  64.1624310  15.8154925   6.7491772  63.7076583
  16.5323838   5.8906653  64.7274619   8.6094391  75.3321075  49.1838884
   8.5083652  76.1107731  49.7313356   9.5558113  75.1999426  49.1278172
  75.1280081  30.5528712  31.0676455  75.4775065  29.7226143  31.3913035
  75.3548956  30.5620217  30.1377702  43.3751011  70.5420876  44.5366240
  43.8047409  69.9177217  45.1212692  43.8466120  70.4577303  43.7078953
  20.5348039  67.7350760  23.3197021  20.2108788  66.9398260  23.7426424
  21.0093975  68.1974411  24.0105057  25.7946610  27.3396945   1.1264545
  26.4018559  27.9747581   0.7466650  25.1639986  27.8718042   1.6115874
  11.5919769  64.6918011  18.3110142  12.5468493  64.6900368  18.3777034
  11.3548636  63.7668657  18.2438672  12.4500406  31.8872118  32.9961181
  12.0971119  32.0979285  33.8605666  11.6904950  31.9142008  32.4142289
  17.6637614  38.9864588  34.8654580  16.9580996  38.7336707  35.4607487
  18.3409214  39.3486667  35.4368520  45.7000319   1.9531400  20.0533032
  45.8847956   2.2273977  20.9515643  44.7542087   1.8068702  20.0372815
  71.5085604  34.8265555  38.8570797  71.7550876  35.4428818  38.1674396
  71.0414793  34.1281941  38.3984315  30.6820464  74.1032505   5.3892761
  30.1561379  74.0234709   6.1850691  31.4152074  74.6643734   5.6419593
  10.2989805  64.9818707  36.9613743  10.7286108  64.3359089  37.5220776
  10.1531219  64.5221090  36.1345863  63.4666554  37.6984317  13.9229774
  63.7979285  36.9946296  13.3651757  64.0534369  38.4352786  13.7527490
   4.9332494  44.7262430  54.0522814   4.2811620  45.4014683  53.8649654
   5.6703711  45.2040577  54.4325161  67.3865324  69.2251635   3.0834010
  67.8660494  69.6383238   2.3653507  67.0944685  69.9560261   3.6281699
  76.1037429  30.5806928   7.0427263  75.2812393  30.3249650   7.4602497
  75.8890136  30.6489472   6.1124218  48.8542954  18.3996398  37.8637290
  48.3219997  17.7925975  38.3779192  49.5859520  17.8689105  37.5487137
  55.1896135   5.4020793  28.8175201  54.2695228   5.3339774  29.0725255
  55.4288165   4.5162303  28.5449648  14.2330563  73.3606482  28.9881587
  14.4179714  72.4225616  28.9431167  14.0240514  73.5196447  29.9086308
  53.7583364  41.5930321  59.8797118  53.4366807  41.0506775  59.1595596
  52.9765433  41.7989065  60.3922027  28.1725669  55.1472950  38.0858898
  27.4340725  54.6334696  37.7590251  28.2005596  55.9158087  37.5159454
  37.7321005  72.3055315  40.2495670  37.5763226  73.1144762  40.7369804
  36.9689870  72.2194529  39.6781826  19.9501204  42.7795124  35.5047536
  19.2084503  43.3161926  35.7842708  20.1153398  43.0509138  34.6018291
  24.4812560  57.2216940  16.4628756  25.1788235  57.1232796  15.8148408
  23.8195944  56.5812159  16.2016809  22.5768089  69.0279198  45.5100107
  21.9479918  68.3471775  45.7496071  22.0606208  69.8337078  45.4878473
  43.3050823  54.5881224  33.1520796  43.6564159  54.3580866  34.0122461
  44.0773916  54.6747160  32.5932622  24.0744781  26.0342455  16.1584055
  23.1926584  25.9806967  15.7899559  24.4593096  26.8081880  15.7471275
  54.4298172  67.1581078   5.7865435  55.1908588  67.3433352   5.2363282
  54.3503380  67.9263926   6.3519257  34.9478483  48.9744186  38.7604904
  35.8391190  48.6300755  38.7030745  34.3924212  48.2510328  38.4698844
   1.1996802  22.8391602  48.5505545   0.8356484  22.1640827  49.1232526
   1.1645444  23.6406519  49.0726757  79.6797850  16.4533140  63.8504588
  79.9450900  17.3725655  63.8790330  80.0761249  16.1144783  63.0477517
  25.9603071  76.0003138  36.2007904  26.4207578  75.9154558  37.0356655
  25.5765986  76.8768501  36.2268972  76.6817405  30.7164814  63.8759797
  76.4999177  30.2735474  64.7048246  77.6112320  30.9402611  63.9228656
  15.5240905  64.9053097  37.4620676  15.2556038  65.6403542  38.0132961
  14.9647415  64.1802073  37.7406192  24.5187926  63.2953739  28.2796121
  24.7681284  62.5519037  27.7306914  25.2181315  63.3579445  28.9301848
  27.6301503  48.6323404  11.0098696  26.9087720  48.3061171  11.5478528
  27.4102807  48.3547544  10.1205802  20.8105183  48.7344503  23.4782362
  20.6615043  47.9499912  22.9503632  20.6502652  49.4617653  22.8769350
  25.4728603  59.6771383  27.2685409  25.1658297  59.2795229  28.0833197
  24.8632360  59.3595028  26.6024327  17.1993899  44.3230152  40.8559704
  16.8256867  44.8416853  41.5684032  16.7107940  44.5957136  40.0793457
  31.8524412  11.3809688  24.6073008  31.9842933  10.6215389  25.1748514
  31.1391524  11.8676669  25.0203061  67.3659784  54.5395422  44.5959377
  67.8260964  53.7741470  44.2514229  68.0487984  55.0578976  45.0217295
  14.0134346  49.4837332  35.7596540  13.3699608  49.7423792  36.4194059
  14.7411907  49.1205549  36.2643361  67.7959496  58.4541368  25.4125237
  67.3259562  57.9594564  26.0838151  67.2347087  58.4010553  24.6389437
   3.0646330  67.1264458  25.9064174   3.9073053  67.5510693  25.7456923
   2.8568396  66.6868162  25.0819302  17.1495354  54.0984106  45.2988052
  16.6290236  53.4624195  45.7895422  17.9293823  54.2356205  45.8366203
   4.0704060  42.4890566  39.4789624   4.5145479  41.6411495  39.4843459
   3.5700813  42.5025463  40.2948809  40.4818583  49.4078732  31.5782380
  39.6334767  49.1278458  31.2346268  40.4927063  50.3558493  31.4461136
  41.0684558  27.4103217   1.1812437  40.2624555  27.6779037   0.7396591
  41.5683683  26.9485431   0.5081308  65.9557148  46.8908505   6.1996973
  65.4955216  46.9314198   5.3613604  65.5003687  47.5247865   6.7537964
  41.5533400  49.7798967  18.7412000  41.4650965  50.5650234  19.2815888
  41.6260386  49.0626574  19.3708932  28.5521889  46.6014576  22.8003049
  29.4003081  46.3553190  22.4310565  28.3401489  47.4343634  22.3789525
  36.5087938  29.5062637   2.5181323  37.0740509  30.1941562   2.8695846
  35.6353188  29.8975372   2.5048229  74.6718742  32.5095846  63.1126213
  75.3639438  31.9523194  63.4686070  74.8602798  32.5562050  62.1753048
  19.8057055  62.6539564  21.2385511  20.1555490  62.9044199  22.0936012
  20.5258679  62.1898270  20.8117247  20.4291511  62.7688360  26.6264653
  20.6922245  63.6362219  26.9341469  19.4784677  62.8266764  26.5311337
  52.7026884  19.9373348  38.0589342  52.2077958  19.1203410  38.1208324
  52.4321095  20.4400642  38.8272357  32.0296884  71.0876942  22.8763223
  32.2995281  70.8487225  21.9895816  31.3063836  70.4930592  23.0750084
  47.7846003  46.6980171  13.8228977  47.3870659  45.8314419  13.7377441
  47.9175758  46.9901848  12.9211307  15.1734161  37.7457738  34.7691798
  14.6132731  38.4053278  35.1783967  15.4648876  37.1949363  35.4957151
  31.5371466  25.6729150  39.5843101  31.3224459  26.1141324  38.7624454
  30.6919980  25.5439234  40.0147963  47.9196405  52.7672863  23.5703897
  47.4009943  53.5475016  23.3741784  47.3032856  52.1704483  23.9947987
  20.1062536  51.4467621  40.9855509  20.8325911  52.0690441  41.0234022
  19.3213606  51.9946384  40.9830141  24.3064857  71.9140339  35.0403428
  23.8174510  72.7367592  35.0544953  24.8564672  71.9757223  34.2593527
  33.1999920  23.3721549   0.0237140  32.3183296  23.2546336   0.3773984
  33.7811897  23.0997760   0.7338186  40.8225775  28.9259434  20.9840178
  40.4431200  28.2161903  20.4658556  41.7683125  28.8020277  20.9036303
  23.0138893   2.7782924   5.6643444  23.0984376   3.4953029   5.0358754
  23.0897094   3.1998975   6.5203422  55.4222623  14.2131526  21.4025521
  54.6395842  14.6310241  21.7617679  55.7185642  14.8101241  20.7154846
  21.7250252  43.7856150  37.3045397  21.2299776  44.0197277  38.0896187
  21.0625696  43.4747458  36.6874933  25.5341672   5.6280143  13.4669590
  26.3438729   6.0420615  13.1683409  25.5619388   4.7484309  13.0904114
  58.7440395  57.7347946  35.4647613  58.8881969  57.9956102  34.5551324
  59.5671415  57.3241138  35.7294869  50.7944965  60.1960278  34.7649097
  49.9385881  60.2868557  35.1837158  50.8089781  59.2948675  34.4425225
  35.1018906  66.9376183  19.2153788  35.0620031  67.3049879  18.3323836
  36.0124183  67.0591545  19.4844520  65.2901951  11.2266643  23.8235331
  64.5437280  11.2531383  23.2249379  65.7110588  10.3857906  23.6445069
  70.3652106  73.5195942  55.7050609  69.9408923  72.6881619  55.4931378
  70.0305663  74.1328926  55.0507605  37.1275214   9.9169070  62.8977776
  36.5791384  10.5942065  63.2937193  37.8388325  10.4001147  62.4773312
  11.7447138  53.0487061  58.9173698  11.3061881  52.2266197  59.1366863
  11.2578142  53.7162399  59.4006538  18.6750281  67.3065805  35.4268622
  19.5802641  67.1930981  35.1372051  18.2016087  67.5670767  34.6367693
  46.4206600  73.9038134  22.6380873  47.2732401  74.1410065  22.2732806
  46.3914442  72.9489851  22.5774336  58.8662148  73.8104725  23.0795598
  58.6764622  74.2134953  23.9267898  59.3994045  73.0446291  23.2926846
   2.7350947  74.5816755  45.7268906   2.5611758  75.2830315  46.3546467
   2.1346268  74.7548437  45.0018501  63.6062137   5.7591064  10.7986569
  64.4435779   5.7714565  10.3350866  63.7996046   6.1453826  11.6528356
  17.2802933  32.9863503  62.1374011  16.6519364  33.6471369  62.4285438
  17.1690520  32.9522326  61.1872994   4.3618486   7.3702247  25.5994105
   4.8889254   8.1252391  25.3379297   3.8770245   7.1314246  24.8093772
  80.3914634   1.1772020  19.5578551  79.9223320   1.0696943  18.7304533
  79.7957842   1.6876275  20.1063633  63.6072485  32.3812301  28.7605476
  64.4806592  32.5803954  29.0977693  63.4948794  32.9770286  28.0198503
  53.2994413  72.6334047  29.1678858  53.9678717  72.0337629  28.8364387
  53.7942982  73.3761835  29.5137572  49.9490611  16.8044002   6.1652792
  49.9596326  16.5914256   5.2321315  49.7316257  15.9782417   6.5970498
   1.0824535  20.8113010  24.8697877   0.6928490  21.6835792  24.9295902
   1.9877623  20.9332187  25.1557660  81.0918275   7.6075656  46.5194321
  81.7704431   6.9718559  46.2923098  80.2975742   7.2675616  46.1073732
  20.4745650  64.3232203  43.6254549  20.0507188  65.1078653  43.9731884
  19.9222302  63.6005449  43.9236069   7.4657009  19.0784461  25.8448768
   7.0801399  19.9407584  25.6899738   7.6478479  18.7367637  24.9694848
  28.2850957  74.6954584  43.8123751  28.3080912  75.6394005  43.9694548
  27.5064182  74.5614624  43.2720613  53.2442133   8.2121570  38.1643105
  53.7352912   8.7450607  38.7896800  52.3411171   8.2437045  38.4799933
  67.2174637  27.5168044  41.6722393  67.9707567  27.4189288  42.2546482
  67.0483081  26.6319663  41.3486862  22.8750014  45.6755066  35.5380511
  22.4831939  45.0844145  36.1809564  22.3229837  45.5845165  34.7613740
  19.0006244  53.5398245  32.1220160  18.3001149  54.1464901  32.3617458
  18.8252008  53.3210087  31.2068224   1.1664198  13.3905990  57.0600271
   2.0225046  13.0808456  57.3556757   1.2846516  14.3311984  56.9276857
   0.0438567  62.5996971  39.9414587   0.2048816  63.2125568  40.6588888
   0.7622212  61.9697046  39.9988341  23.1400728  66.9571590   6.1116987
  22.3547673  66.4346552   5.9488469  23.0590200  67.2332096   7.0246369
  27.4454880  69.4574928   0.5863885  27.5808716  70.4029322   0.5227567
  28.1829095  69.0772772   0.1090214  56.4755265  28.8508517  39.8427939
  57.1310608  29.0547282  40.5098343  56.5938036  29.5274169  39.1760778
   3.7229884  65.1178265  14.2579663   4.0231448  65.6510782  13.5219085
   3.9156327  64.2176056  13.9958131  32.2266374   6.1030776  30.8916497
  32.9386500   6.5850169  31.3123584  31.6887460   6.7802245  30.4813242
  59.6186439  16.4599998  25.0993562  59.5468203  17.4144275  25.1115084
  59.3746297  16.1901576  25.9847212   8.8280195  59.9070549   8.1547952
   8.6257398  59.8272085   7.2226262   9.0665275  59.0202856   8.4249413
  21.5772343  65.2965832  50.4712009  21.9767594  65.1676607  51.3314295
  21.2070560  66.1785030  50.5087852  21.0118937  63.5008812  23.6791134
  20.6004691  63.1994867  24.4891286  21.4342594  64.3260717  23.9176488
  36.8645549  50.6749964  33.1161118  36.4809704  51.1816216  33.8319564
  36.1944222  50.0285053  32.8942990  23.6868676   7.8154089  64.9778413
  23.9927967   8.3054878  65.7410310  23.6209114   8.4706023  64.2831480
  18.3037231  17.7716167   7.3492366  17.4186991  18.1297405   7.2806203
  18.4274862  17.6167209   8.2856780  48.9785624  36.3819265  15.9308279
  48.2198191  36.2612009  16.5017641  48.9621830  37.3117471  15.7041240
  44.0935175   2.8574521  45.2153015  43.1364242   2.8674180  45.2050638
  44.3373434   3.6883361  45.6232357  37.2298161  22.6940257   5.9560537
  37.5076834  22.3765762   5.0968409  36.8568585  21.9247062   6.3865030
  13.8640702  44.6757555  15.4321218  12.9842699  44.3024683  15.4853880
  14.4023478  43.9701080  15.0735867  21.5303038   7.5832755  12.0798707
  21.1840198   6.7020423  11.9393468  22.2367428   7.4645908  12.7147651
  49.4994537   1.6054542  62.9408550  50.1221792   1.2341077  62.3159218
  49.7352521   1.2077625  63.7789917  55.2882449  12.8936488  10.8256018
  56.0277597  12.5653465  11.3370347  54.5830027  12.9983241  11.4642799
  41.9336462  36.5668082  34.4837976  41.7638350  36.0092330  35.2430773
  41.1444187  37.1015954  34.3980622  60.1266527  70.6739283  40.4025412
  59.3025684  70.4771233  40.8479452  60.7646990  70.7679415  41.1098528
   2.3037336  29.9688346  32.4775624   1.7496822  30.3682143  31.8069243
   2.1086977  30.4621513  33.2743263  39.2115013  14.5953662  41.0179806
  39.3754760  14.6957500  41.9556713  39.0773217  13.6553008  40.8975840
  19.0238531  24.9784329  63.9126619  19.6284684  24.4972803  63.3477190
  19.2343529  24.6803953  64.7975894  35.1886034  34.0382504  15.0731051
  34.8450446  33.6944151  14.2484987  35.3417015  34.9671412  14.9000251
  62.0548010  72.5773573  20.8447838  61.7340517  71.6932583  21.0228848
  61.7266989  72.7791882  19.9685168   4.2163148  44.5195966  17.5871170
   3.6586060  45.1838498  17.1821869   4.4398179  44.8841577  18.4434879
  61.0842276  74.6871471  26.7915750  61.4454412  75.0710773  25.9926033
  61.5093040  75.1679754  27.5017500  30.1082889  18.6027248  36.9503093
  29.9311603  19.2490966  36.2668896  30.0884596  19.1043288  37.7653170
  16.4262569  70.1601028  24.4147348  16.8238914  70.7765818  23.7998605
  16.9812453  70.2067089  25.1932263  51.4456717   1.1648471  13.6426723
  51.3318459   0.2145297  13.6557090  51.4997236   1.4122827  14.5657575
  61.2150780   8.1598384  35.9521198  61.7655102   7.9908569  35.1874614
  61.2537734   7.3487956  36.4590192  41.1853079  24.8726089  65.0532579
  40.5524782  24.2101772  65.3306532  41.2204615  25.4907901  65.7832241
  65.0615422   2.0454271  16.6445088  65.5930583   1.4645297  16.1001945
  64.4015948   2.3964746  16.0466254  55.1070944  10.8076102  26.6163278
  55.3032867   9.8856837  26.4496350  54.9215237  11.1731822  25.7513714
  62.0204393  17.7635772  28.3814120  61.0863582  17.5544936  28.3844709
  62.0520178  18.7195403  28.4183788  51.9774477  11.7567641  45.3607273
  52.5743405  11.8050678  44.6139860  51.3105003  12.4184425  45.1774311
  45.7415990  17.6861770  25.7483530  45.5480973  18.0602462  26.6079211
  46.4441733  17.0573909  25.9134364  67.8647723  37.9898216  59.2979639
  67.3503222  38.6878779  58.8926339  67.2848596  37.2283509  59.2882120
  71.6466753   1.5928514  42.7878666  72.0691482   2.3184974  43.2474184
  72.2997514   0.8930690  42.7935839  20.7482648  71.3881588  38.3292460
  20.5364323  70.6546211  37.7519393  20.9251189  72.1173668  37.7349281
  13.6830862  37.2595598  51.7235720  13.9491614  36.3426258  51.7918992
  14.5063933  37.7438833  51.6617143  79.5056109  52.6601171  43.3315802
  79.6376631  53.5566473  43.6398411  79.2516813  52.1723986  44.1150856
  57.9642868  64.5336342  19.8121858  57.6810980  64.5909548  20.7247376
  57.3019314  63.9867640  19.3897581  17.8061626  37.8895480  14.8245263
  17.1414516  38.5695941  14.7152627  17.7137134  37.3373229  14.0481734
  11.0069549  55.5373526  39.5077395  10.5033946  55.9853458  40.1874161
  10.9049249  54.6069336  39.7081041   1.3324858  70.4473352  33.4803414
   0.6856050  70.7843924  32.8605270   1.6205777  71.2184191  33.9688754
  41.6332626  66.6711950  25.3626633  42.3468304  66.6927528  24.7250223
  40.8849144  66.3296604  24.8732042  24.8510263  15.4053504  38.3054137
  23.9571236  15.3101642  38.6342096  24.9641416  16.3486678  38.1887889
  26.0106635  73.3777952  21.5170217  26.3708353  72.8346348  20.8159637
  26.7353582  73.9474344  21.7750144  24.1212201  75.1519299  12.7787006
  23.2402062  74.7827959  12.8402519  24.2625165  75.2793503  11.8406010
  38.6978078  54.6733999  31.2122393  39.2123795  55.0085545  30.4779911
  39.3500471  54.3541336  31.8358445  45.8307028   1.2064371  56.1244380
  46.0897303   2.0948133  55.8796310  46.1958933   0.6518945  55.4349839
  75.0364304  60.8860159  15.7191646  75.8618975  60.7221174  16.1752081
  75.2364349  60.7259035  14.7968876  20.4105973  72.8386402  10.1421261
  19.7439897  72.1820927  10.3441477  21.1856341  72.3285341   9.9068826
  48.1325785  31.7127425  10.6742966  47.4017374  31.0949428  10.6950033
  48.6974923  31.3919933   9.9712861  55.9526364  20.8631236  36.1191940
  55.2304021  20.2430732  36.0184598  55.5334441  21.7235286  36.1045241
   2.9050308  45.7264471  35.2062297   2.0286614  45.9675503  34.9061012
   3.0289990  44.8317623  34.8893666  76.1121694   3.1027372  49.8706293
  75.5816833   3.4571941  49.1570568  77.0143215   3.1823261  49.5607662
  39.4314647  51.3109827  23.4020448  40.0678062  50.6834078  23.7447524
  38.5879469  50.8661604  23.4847498  37.0101271  12.4209316  38.5061431
  36.1615459  12.3382575  38.9412355  36.8811963  13.1149394  37.8596377
  77.2514709  27.0679145   2.6393402  77.0845803  26.8348603   1.7260683
  76.5620812  26.6209083   3.1304253  31.3204885  74.9307251  44.4449472
  31.5556598  74.1082478  44.0154552  30.4924536  75.1853180  44.0377951
  49.6436445  10.9695537  42.2777367  49.2481772  11.0443408  43.1462097
  50.2146236  10.2038104  42.3396969  16.5532482  25.7142067  16.6457057
  16.8482602  25.2999663  17.4566352  17.3442292  26.1058331  16.2752891
  17.1883857  69.9295282  44.5041513  16.7084920  69.2806196  43.9895153
  16.9333088  70.7711697  44.1262579  16.0851649  20.6145484  47.1935415
  16.9285254  20.8882529  46.8329048  16.2929753  19.8566539  47.7400255
  16.5384682  15.9870150  57.4434775  16.7417057  16.7622950  57.9667997
  15.6532820  16.1449196  57.1152275  47.2085428  63.5407686  41.4945602
  46.2519598  63.5079002  41.5048409  47.4580097  63.0173635  40.7329559
  17.8301156  65.0255108  43.8792944  17.7923656  65.0515461  42.9231930
  16.9983721  64.6307278  44.1411734  22.4128493  14.1854145  59.6132391
  22.0729073  13.3413555  59.9102866  21.6610869  14.7761204  59.6596187
  38.3961630  66.9858074  12.3740745  38.8072467  67.8501320  12.3877835
  37.5938869  67.1101761  11.8670058  60.3080654  38.9286399   9.6257645
  60.6578779  38.0539417   9.7953725  60.5701447  39.4435358  10.3889346
  36.4362049  59.6274328  19.2112911  37.2250676  59.9710131  18.7919116
  35.7600093  59.6892023  18.5366237  69.5723526  43.8545711  22.6794696
  69.9149744  44.6895129  22.9984093  68.6323539  43.8988120  22.8546333
  29.2512339   2.4986322  53.7317228  29.4731946   2.5374658  52.8014231
  29.6593575   3.2783849  54.1080809  66.3530840  28.3781483  50.1899874
  65.5018975  28.0268433  49.9286472  66.3703849  29.2619612  49.8228263
  72.2718422  13.6625488  30.9976244  71.5233747  14.2579086  31.0372043
  72.4311439  13.5399539  30.0617695  75.1023046   3.7271697  55.3292227
  75.5484382   2.9692275  55.7070065  74.7581331   3.4107501  54.4939661
  52.1163368  71.6572952  23.2299900  51.2570238  71.2882233  23.0260324
  51.9692087  72.1886110  24.0124774   6.9054983  10.7888133   1.2350307
   6.9900177   9.9112994   0.8621334   7.3003576  10.7187659   2.1041749
   6.7087239  63.0541992  37.9055548   7.3823678  62.4834776  38.2753038
   6.9460392  63.9312077  38.2068396  17.6911438  74.0829992  15.9289134
  17.4172819  74.7618532  15.3121555  18.4961331  74.4240952  16.3186264
  68.4434454   2.5054557  15.5399287  68.6015932   1.6086347  15.8347726
  68.8707630   3.0529887  16.1985898  41.3406944  49.6157312  14.2893887
  40.7900906  50.3303337  14.6094024  41.1463881  49.5642900  13.3535314
  38.4928463  14.6681030  24.9944091  38.6231563  15.0348861  24.1199279
  38.0378578  15.3575809  25.4779696  37.0030880  50.2703810  29.2473888
  37.0389724  51.0044098  29.8606944  37.3689866  49.5325613  29.7352195
  58.3784199  73.5635614  45.1153898  58.9876747  72.9763222  45.5628157
  57.5952196  73.0322409  44.9721050  62.8252045  12.4244220   0.7773811
  62.0881669  11.8860538   0.4889962  63.2852189  11.8787963   1.4152783
  61.0444109   3.0438668  39.4505739  61.5853516   3.8100917  39.6416426
  61.3579098   2.7353341  38.6004233  52.7557182  70.1650000  46.9493580
  51.9576406  70.5104399  47.3493290  53.1667757  69.6484375  47.6424885
  81.1981585   8.6155989  63.8890677  81.7434980   7.9245045  63.5132622
  80.9523370   8.2837775  64.7526058  33.3847847  48.4201627   3.2222021
  33.8262024  48.6241345   2.3977173  33.8833513  48.8976006   3.8853109
  62.8720278  59.5082808  29.8130703  62.5166231  58.7325954  29.3792129
  62.5960821  59.4199991  30.7253718  55.1076094   5.7357986  11.8955481
  54.7330181   4.8601157  11.8002248  55.4211966   5.7650668  12.7994490
  70.4469027  52.5447085  54.8887181  69.7953417  53.1853392  54.6035933
  71.2022807  53.0713846  55.1499640  29.6126461  54.3989372  12.3253655
  28.8356352  53.9027166  12.5827575  30.3301024  53.7680483  12.3842335
  19.5423706  24.9510529  58.7743276  19.8060568  25.2658655  57.9096913
  19.6982535  25.6939223  59.3574935  35.8851480  70.5545902   1.1354012
  36.6726255  70.1940870   1.5430148  35.8402181  71.4552689   1.4563337
  63.6617607  58.9287424  37.2402930  63.8640541  59.2403746  36.3581395
  63.8296193  59.6830559  37.8051496   4.6028932  17.4754288  47.8223443
   4.5968946  18.1154110  47.1105766   4.2251738  17.9425003  48.5675966
  42.3588562  64.2781925  26.6481614  42.1845913  65.2076530  26.4999175
  43.3128786  64.2057991  26.6193032  78.9885227  39.1639335  15.1941860
  79.1700927  39.4334609  16.0945320  78.2504408  39.7106178  14.9247408
  61.7808525   7.8718955  39.0571856  61.1568824   8.2348735  39.6857882
  61.3736049   7.0591266  38.7575436  36.3856552   6.5269382  16.1479604
  35.8503024   5.8092696  15.8094633  37.2604636   6.3590724  15.7975841
  28.8640237  63.2574415  15.8011186  29.3661976  62.5153303  15.4644871
  27.9839921  62.9076529  15.9404898  17.4567509  76.7435598  31.9045019
  17.5470972  75.8538389  32.2457790  16.8637133  76.6548300  31.1584020
  67.6108019   9.0669067  43.1595564  66.6692320   8.9621265  43.0228186
  67.6896421   9.3630798  44.0663624  78.2257883   6.7902572  39.3316245
  78.5970680   7.5485141  39.7826576  77.7762024   7.1600253  38.5717726
  41.2036943  74.6813917   2.0274571  41.3418484  75.6182098   2.1671602
  40.3044271  74.5262003   2.3163553  39.8068770  31.3570072  53.2440364
  40.0678595  31.7315199  54.0853810  38.9214524  31.6900494  53.0979502
  66.1134164  25.5354888  23.0162477  66.2300913  25.1457412  22.1498132
  66.9623558  25.9288699  23.2182121  43.9841656   5.4160888  28.0390215
  44.4416861   6.2320335  27.8361821  44.6708552   4.7492511  28.0357242
  25.6519604   1.1011705  65.8548116  26.0480237   1.8960294  66.2119826
  24.7623396   1.3627347  65.6173396  43.6716127  53.4308767  12.8334391
  44.4282389  53.8306618  13.2622957  43.3177042  52.8269053  13.4862804
  18.7803483  64.1614389  31.6355395  19.0518057  65.0664330  31.4821410
  18.2059193  64.2099380  32.3996782  53.4802818  69.7418642  25.0014973
  54.3871307  69.9915981  25.1789379  53.2346964  70.2601528  24.2351413
  43.7484884  71.3167572  14.3128490  43.9909363  71.8198729  15.0902319
  44.5806599  71.1343956  13.8764250  36.8385456  17.0425994  18.3852553
  36.5404270  17.9521472  18.3939981  36.1178730  16.5581901  17.9825079
   9.9316643   3.3990772  29.6153831   9.3698070   4.1733939  29.5840526
   9.9257229   3.0624253  28.7193561  59.2429487  13.5445125  18.4489846
  59.2335717  12.7371223  17.9349136  59.6996657  14.1765887  17.8938997
  48.3651177  14.8395927  18.9912951  48.8762418  15.6163604  19.2185044
  47.5837843  14.8977287  19.5411730  18.9607141  14.3974693   7.4715734
  19.7088812  14.4822986   8.0625743  18.8879106  13.4566791   7.3108530
   7.7977999  21.5565731  46.4960086   7.4746879  20.8295109  45.9638369
   7.0065339  22.0036938  46.7963707  53.4927034  68.5104132  28.5872841
  53.3379936  69.2090940  27.9515648  52.8991175  68.7096119  29.3113041
  61.3122368  62.2026396  23.1022620  61.9274330  61.4865494  23.2603312
  61.8529892  62.9096317  22.7501512  28.2278919  71.5595388   4.7617415
  28.6974740  72.0612478   4.0953994  28.4559631  71.9861269   5.5877185
  49.0400187  14.6162898  32.4980760  49.1459481  13.8991649  31.8729806
  48.3962480  14.2919547  33.1278348  27.5693727  64.6966076  13.5106933
  27.5619054  64.0513945  14.2177129  26.6743207  64.6905661  13.1714630
  38.1162310  71.5714169   8.4301472  37.5096941  71.5061808   9.1677731
  37.5576806  71.7642546   7.6771080  20.2565477  32.8043849  44.0098763
  20.8554457  32.6899345  43.2720089  20.6611584  33.4888561  44.5428181
  53.1526279  61.6134119  30.9986019  54.0254831  61.8330956  30.6728840
  53.2765245  61.4682627  31.9365859  66.1774437  11.0371692  29.4424653
  66.7547790  10.8078677  28.7142229  66.5283147  11.8631942  29.7753549
  40.1904658   9.2828376  43.4127235  39.8771552   8.5220344  42.9235888
  39.9447326   9.1020591  44.3200111  39.9515438  51.9677877  13.0008662
  39.2063117  52.2262859  12.4586129  40.5637503  51.5604305  12.3880899
  10.6671904  10.3969962   4.2121792  10.3580425  10.9577472   3.5006839
  11.4818237  10.0181682   3.8818821  51.1088268  16.5196044  48.7342834
  51.3576237  16.8444640  49.5996141  51.2525741  17.2631461  48.1488705
   1.5286634  10.0613887  20.6408119   0.9107874   9.8645408  19.9367452
   1.6837023   9.2180259  21.0661674  17.8740847  47.0069075   3.8078970
  18.2484961  46.1377811   3.6641288  16.9393611  46.8465662   3.9375702
   0.4685960  46.1114604  64.6790009  -0.4505076  46.2743051  64.8910388
   0.4453574  45.6929607  63.8184484  55.6829780  16.5138185  19.9703205
  55.5989903  17.1380115  20.6911254  56.1889309  16.9817305  19.3060148
  46.5965941  68.1819456  25.9231520  45.9219386  68.5745751  26.4771509
  47.0391728  68.9284175  25.5192518  25.2878547  17.5324774  27.6902246
  24.8189616  17.3497629  28.5044646  24.7344327  17.1566141  27.0056200
  74.1171541  52.8530209  37.9784656  74.4205858  52.3584073  38.7397265
  74.5822765  53.6877554  38.0342650   3.9121434  21.9028592  39.5309901
   3.7187159  21.0342336  39.1784191   3.2959744  22.4846530  39.0859270
  31.4726456  58.1022327  18.3158743  31.1634119  58.0781071  17.4103224
  31.3010224  57.2222321  18.6510980  20.6411982  39.8472929  15.7606900
  20.7569528  38.9215684  15.9748590  19.7160614  40.0197458  15.9356606
  25.9489483  17.9483459   6.5844095  26.1078832  18.0352185   7.5243176
  25.0062845  18.0832908   6.4874208  61.7131335  27.7038860   4.0580672
  62.0159298  26.9828701   3.5060877  61.5223068  27.2953296   4.9024004
   2.0977260  10.0360608  24.8985553   1.9890624  10.9242606  24.5586634
   2.2953473  10.1575005  25.8272266  77.3731196  32.8494573   0.7259411
  77.8175166  32.2714138   0.1057729  78.0341002  33.4999776   0.9629255
   7.0084983  34.3902564  29.5461631   6.2034106  34.7334361  29.1584873
   7.4240977  35.1525187  29.9492311  49.2532772  18.7793303  17.2424161
  49.3092293  19.5608151  17.7923083  48.3356470  18.5126543  17.2978592
   1.8779531  29.6312666  22.8972626   1.0842372  29.3550849  23.3554888
   1.5608935  30.1705742  22.1727943  23.5492539   6.6724133  20.4450703
  23.8561487   6.9404507  19.5789266  22.9732037   5.9271091  20.2750111
  59.1947560  61.3566749  49.3517065  59.0394538  60.5150943  48.9229250
  58.3225789  61.6643029  49.5984936   7.4111317  14.3545718  66.0698794
   6.8330584  13.5916681  66.0633565   7.7409790  14.3974729  66.9674272
  46.0412099  68.6985384  12.2352278  45.3551437  68.6638748  12.9018176
  45.5870314  68.5098582  11.4140368  20.3080463  46.4230537  21.7092013
  19.5929110  46.3079357  21.0834551  20.9719777  45.7912588  21.4330363
  17.5612497  49.8853874  20.5451679  18.2355440  49.6970892  19.8924017
  18.0171013  50.3836107  21.2235498  65.1861900  38.8143563   6.0471857
  65.1613492  39.0985322   5.1334792  64.9796826  39.6029043   6.5489620
  14.7440183  17.9748571  45.5547237  15.4879069  17.3856425  45.4294825
  15.0559390  18.8241649  45.2422953  56.6470617  46.2646103   0.9025297
  57.5890201  46.0960913   0.8791561  56.3732332  46.2215281  -0.0136549
  49.6789918  63.3152742  59.2146605  48.9945612  63.1998343  58.5555225
  49.7263871  62.4699969  59.6613049  46.9350624  27.0929122  16.2184620
  45.9887457  27.1452880  16.0844004  47.2324276  26.4473534  15.5773211
  60.7190498  74.4185737  35.7941151  60.6415637  74.6072364  36.7293334
  60.0473036  74.9629808  35.3834939   7.5558823  43.9229155   4.1991097
   6.9233471  43.4025002   3.7038311   7.8329784  44.6068573   3.5894614
  44.7030435  74.5306249  55.3026187  44.9888835  73.6237402  55.1926815
  44.0690396  74.6688957  54.5989477  43.9639616   2.0134482  11.8454051
  44.2324972   1.2366408  11.3548028  44.7756290   2.5014222  11.9843411
  15.0329041   1.3387838  14.8518419  14.4658411   0.5982949  14.6365559
  15.1064777   1.8299496  14.0335667  40.8337949  19.2414184  52.3353087
  41.3370655  19.9949689  52.6437127  39.9997542  19.6122022  52.0469927
   1.7198364  50.9996319  39.0550494   1.8925034  51.8726444  38.7025332
   1.1767237  50.5760384  38.3903456  68.5570329  18.1636465  22.3715997
  68.4473747  17.2184598  22.2675300  67.9056150  18.5464811  21.7839575
  19.7246861  28.0298305   4.8262450  20.6242204  27.8045988   5.0636065
  19.4574010  27.3400640   4.2187831  73.6498600  26.7997694  22.4766707
  73.2302767  27.6192284  22.2146177  73.5072625  26.2101912  21.7362022
  68.1077200  14.6726048  25.4068279  68.3465749  13.9066362  24.8848414
  67.8700989  14.3148530  26.2622714  11.8744671   1.6819650  48.2782078
  11.1839068   1.3041967  47.7335548  12.6815033   1.2837337  47.9521179
  22.2900891   7.0844394  31.6471934  22.8650379   7.6431382  31.1242008
  21.4120150   7.4325299  31.4921069  23.6497498   7.9593682  13.7024117
  24.4511652   7.4840158  13.9215195  23.3252835   8.2821429  14.5431077
  38.1716466  25.7895613  38.2575226  38.2892895  26.7199659  38.0658507
  37.2583747  25.6122327  38.0323124  33.2745290   6.5034676  47.3338938
  33.5794401   6.8931377  46.5144920  33.7135339   5.6537730  47.3729658
  28.7461090  28.1823158  32.0089388  29.1036415  27.3171377  32.2086072
  28.9874291  28.3362317  31.0955334  71.4108278   7.0900585  47.9715895
  71.5270652   7.6356413  48.7494444  72.0430066   7.4345257  47.3407781
  24.3450785  27.8178596   8.0844873  23.9006662  26.9983506   8.3015949
  25.1919746  27.7553654   8.5261774  71.4880004   3.3777334  55.9719908
  70.6595864   3.0175020  55.6554496  71.6318276   4.1562130  55.4339289
  77.2576657  36.4472985  56.3252115  77.7789587  35.8012056  55.8487129
  77.3656651  36.2100220  57.2462273  80.3964596  43.6590910   7.6094991
  80.0199994  42.7790546   7.6028764  79.7180602  44.2127180   7.2228420
  61.3019818  59.3547153  10.7304454  61.9106168  59.2588329  11.4629757
  61.4605004  60.2395678  10.4015875  71.6961014  43.7691927   2.6605669
  72.6483089  43.8428450   2.7246615  71.3717800  44.1321611   3.4847644
  25.8101487  60.7333994  30.2498174  25.3301430  61.2703371  30.8803129
  26.6982532  61.0903740  30.2583218  29.9653149  39.8898435  27.6963854
  29.3867469  40.1524591  28.4122920  30.8118415  40.2778292  27.9179478
  13.6957264   2.1666519   5.3203720  13.5316861   1.2341657   5.4610550
  14.5108116   2.3401701   5.7912850  79.3432774  46.3745928   3.9296070
  78.5779121  45.9962511   3.4968176  79.7347401  46.9451904   3.2682407
  55.0082527  70.1225562  59.6164184  55.5028091  69.6962662  58.9164721
  54.7258292  70.9549375  59.2374622  28.0196428   7.0268470  37.6514935
  27.3918962   7.7111179  37.8837395  28.8111973   7.5030786  37.4007440
   8.6706531  21.3013124  17.6691556   8.1508815  20.5543494  17.3723102
   8.0573672  21.8336153  18.1758749  17.4995387  19.3577743  26.6002655
  18.2873821  19.8076999  26.2951422  16.7784536  19.9231148  26.3233924
   1.9938776  26.9420838   7.0754194   1.6808066  26.1937690   7.5835949
   1.2260365  27.5058293   6.9813746  64.7315985  26.9930315  27.6766515
  65.4454178  26.9368649  27.0414042  64.9618643  27.7391195  28.2303333
   3.3640382  34.6411633  44.6695232   3.8438246  33.9389133  44.2303419
   3.8564482  35.4348874  44.4603109  73.6571036  64.3801997   1.1922634
  73.7112484  65.2839134   1.5030706  74.5663009  64.0824006   1.1621368
  28.3097434  14.0027678  12.6034653  29.2460942  14.0989804  12.4296308
  28.2439351  13.2029283  13.1251538  34.1369454  58.2244260  50.4279911
  33.2515935  58.4055824  50.7435321  34.4131003  57.4512787  50.9201419
   6.4519328  10.0657392  14.4014180   6.3517803   9.3728602  15.0541973
   5.6925428  10.6327975  14.5355940  10.1811719  31.2279868  31.4417100
  10.6348085  30.4628992  31.0880351   9.3935633  31.3092852  30.9038496
   6.2104774  38.1546807  20.1011109   5.9284532  38.4342837  20.9720397
   6.5307462  38.9548445  19.6846998  77.0060024  17.4116504  11.8555069
  76.9924989  16.5210092  11.5050685  76.2119377  17.8178132  11.5080512
  73.3622575  49.2482281  23.2151031  73.3629733  50.2007437  23.3096743
  72.4421614  48.9994764  23.3032894  71.6894541  69.8395534  51.0036015
  71.2442503  70.6094117  50.6495666  71.8412171  69.2794485  50.2423620
  80.4803019  33.3880520  18.0546403  80.6191635  33.7422109  17.1762788
  81.2862379  33.5965276  18.5271204  73.7546092  16.5625477  30.6857586
  73.1638890  15.8158493  30.5871558  74.6312761  16.1865044  30.6065130
  10.8987014  54.4655318  49.2951786   9.9577109  54.2979355  49.2434167
  10.9649770  55.3507490  49.6532714  56.0941635  59.6773715  63.3425450
  55.1723228  59.8692150  63.1703925  56.5533839  60.4862804  63.1166768
   7.0035966  22.8466179  54.9052846   7.6105531  23.5622551  54.7163391
   6.4123877  22.8289797  54.1526925  50.8546162  36.5718007   8.6416686
  51.7566872  36.2747049   8.7609923  50.8466625  36.9696641   7.7711093
  31.6397775  59.3357391  63.5068079  31.1239926  58.7883182  62.9147553
  31.4027686  59.0306706  64.3825885  37.2039032  26.7607355  32.2541213
  37.4203324  27.6813769  32.4018002  37.2352719  26.6568923  31.3030887
  39.9081564  44.8832798  13.9526534  39.8024869  44.2685699  14.6787393
  40.3453684  45.6406879  14.3417609   9.0404352  75.0497912  13.8520420
   8.9721568  74.9506960  14.8016477   8.5202964  75.8286776  13.6544967
  35.4757690  23.6067247  22.3959827  36.3233662  24.0427494  22.3082829
  35.2809453  23.6479592  23.3322382  41.9509602  40.1004982  31.9397616
  41.2045240  40.6219530  31.6445494  42.3876619  40.6529760  32.5880599
  62.4618620  37.2159386  32.3064184  62.5589842  37.6883554  31.4796042
  62.8429645  37.7999187  32.9621339   2.8356856  12.6519263  37.9650307
   2.1323532  13.2790482  38.1331754   2.8677481  12.5780475  37.0112252
  56.1757488  69.7429370  39.4627881  55.7274317  70.5835639  39.3701053
  57.1048491  69.9561303  39.3758845  12.8601251  74.2127533  44.9235928
  12.9922138  73.2697029  45.0207746  13.0439613  74.3864746  44.0004169
  40.4167400  64.0801616  65.0232832  39.7578369  63.4353251  64.7658613
  40.9588359  64.1934438  64.2425581  14.5898306  11.0652697  16.3121831
  14.7273540  10.1223946  16.4033234  13.8818347  11.1433458  15.6727481
  54.9526233  71.9474556  12.0786917  55.1651644  72.1476631  11.1671126
  55.7015887  71.4414268  12.3936784  65.3650989   6.1183741  60.5680876
  64.6950640   6.8007328  60.6089824  66.0665776   6.5027144  60.0423085
  31.7045522  26.6361260  22.9701328  32.4322915  27.2452021  22.8450084
  32.1136451  25.8411670  23.3120656  15.7736707  12.4458873  32.7312231
  16.5143573  12.8654611  33.1689143  15.6397140  11.6310239  33.2152534
  28.1517673   8.9177048  50.0234938  28.0290222   9.8445392  49.8182011
  27.5107408   8.4642041  49.4760847  17.2140229  37.5527859  19.6234071
  16.7701530  38.3442044  19.3186617  17.5895154  37.1686339  18.8311553
  10.3610347  38.3249998  62.5560563  10.7535503  37.6575017  63.1187373
   9.9553464  37.8299345  61.8443262  65.1356310  59.3189526  16.1921310
  65.8367759  58.7118244  15.9554362  65.3404492  60.1206827  15.7109785
  76.5484502  68.4056424  10.5399954  76.1749127  69.1555094  11.0030293
  75.9704640  68.2763140   9.7880399  76.8546528  51.0060453  22.3282075
  76.0369503  51.4303350  22.5881600  76.9680071  51.2474060  21.4088988
  67.9876715  10.4918194  48.1577682  67.6349765  10.0857937  48.9495897
  68.5423189  11.2024379  48.4796715  50.6574345  13.6014593  20.6310892
  50.0342512  14.1312301  20.1338792  51.1375284  13.1087756  19.9655056
  58.4249173  38.9159464  62.4671417  57.6806555  39.4346527  62.1617695
  58.5103593  39.1418460  63.3933711  29.8485494   8.8946724  11.0793650
  29.6995783   9.8294431  10.9370875  30.6598639   8.8557941  11.5858126
  54.6371483  57.0468145  17.3636472  54.7583123  56.2194197  16.8978512
  54.2720793  57.6400464  16.7071176  52.0423841   8.5329932  21.6698670
  51.3536406   9.0900546  22.0325661  51.8362713   7.6559985  21.9933319
  38.2374096  33.4597135  33.1913805  38.9212394  33.4491491  32.5216794
  38.0226707  34.3861890  33.2998300  36.6178560   8.8458496   8.0038702
  36.8640661   9.2926145   8.8138163  36.2545848   9.5369053   7.4500567
  14.9735832  13.8878429  43.6765385  15.3395236  14.0446854  44.5470095
  15.3099000  13.0271566  43.4268570   7.4858985  32.6329256  52.5196671
   6.6847215  33.1546063  52.4727749   7.7586971  32.6946987  53.4350883
  80.0109444  43.6214901  56.3584184  80.7839785  43.6219580  55.7939267
  79.2916117  43.3697350  55.7792699  43.7660827   5.8144428  48.8043868
  44.0141489   5.7099774  47.8858113  43.7286570   6.7617991  48.9361214
  22.6730013  34.6701336  56.0393333  22.1196580  33.9054298  55.8803797
  22.1573472  35.4098344  55.7181263  46.4489744  73.4393950  46.8588662
  46.7605350  72.7124329  47.3980212  46.7060838  73.2038279  45.9674441
  60.5806480  75.7747908  59.8992484  59.8314152  75.3086371  59.5283305
  60.3319345  75.9431810  60.8081036  17.7803254   1.8902895  11.9836521
  18.4700656   2.1359342  11.3670909  18.2313836   1.7963968  12.8226769
  59.5230182  17.1392252  39.7782456  59.0555977  16.6057637  39.1354620
  59.7224339  16.5338137  40.4923474  62.9112476  18.1315160   9.4570190
  63.0658120  17.2031844   9.6317834  63.5327059  18.3512843   8.7629557
  13.8211334  24.4508624  37.1908689  14.1403091  23.9879370  36.4162350
  14.3688273  25.2340555  37.2444582  63.0897087  21.3855052  30.8012843
  63.8155407  21.3012886  30.1829743  62.8874987  22.3210835  30.8072686
   4.7709945  46.1347103  23.1175351   4.8830017  46.0539627  22.1703458
   4.5723322  45.2458143  23.4118652  78.6249196   9.3514097  10.5574715
  78.5861292   8.9628649  11.4314055  79.5243660   9.6685904  10.4760790
  10.6328988  23.8871861  22.7511215  10.0147903  23.9228749  22.0211220
  11.4189410  24.3222904  22.4208903   9.7913188  40.3512096  39.9860001
  10.0395417  39.4802761  39.6760058  10.2786088  40.4627800  40.8022928
  12.5714123   2.9206732  36.0829115  12.2629201   2.3206396  35.4039240
  12.2534275   3.7799057  35.8057165  72.3259125  66.3207693  53.8657450
  72.7142058  65.4832406  54.1187393  71.8334685  66.5994186  54.6378099
   7.0274037   2.4675688  39.6630573   6.8633687   2.7557749  38.7651372
   7.7143037   3.0535153  39.9809670  23.8435936  29.6740842  54.6278906
  24.4211793  29.0966558  54.1286898  23.5557032  29.1419172  55.3696108
   8.8071638  10.5620158  10.9395564   8.0416113  10.2360070  11.4127171
   8.8341457  10.0390077  10.1383281  35.7945323  46.9465923   6.3178748
  35.0910068  47.1517324   6.9336700  36.1200738  46.0924768   6.6020232
  70.9584862  15.5542922  28.5614181  70.1638049  16.0802495  28.6513162
  70.7031912  14.8304176  27.9895234  50.3680509  37.5906038   6.1255193
  50.5956548  36.7800069   5.6701505  50.7883853  38.2801461   5.6116289
  65.0809123  12.1352579  55.2891206  64.3418266  11.7215302  55.7350039
  64.7030665  12.5037768  54.4905853  11.2947857  45.4176331  27.6811576
  10.7932854  46.2329292  27.6857257  10.9268272  44.9141645  26.9549632
  67.8326124  48.7012768  44.2603779  67.3358661  47.9966354  43.8444996
  68.7489027  48.4531546  44.1375828  31.8695354  32.0290518   4.1267678
  32.1766520  31.7741895   4.9968001  31.1007500  31.4797139   3.9737168
   0.9518245  30.5969596  26.4451504   0.1021188  31.0155702  26.5829802
   1.4146632  31.1852121  25.8485174   2.4153908  17.5130608  60.2241432
   2.3774942  16.8111231  60.8738195   1.5626653  17.4841358  59.7902637
  75.6638104  48.3488464  19.8450422  74.7567081  48.6218500  19.7076941
  76.1113602  49.1430092  20.1369953  22.5303030  21.8458962  11.9723260
  23.2095909  21.2446880  12.2778594  22.3902321  22.4426055  12.7075469
  48.5463428  66.3252211  19.7478628  49.3649960  66.1498308  20.2118468
  48.7726021  67.0027018  19.1106367  15.6040621  55.2838278  30.3037143
  15.5316556  54.4310760  30.7324314  15.8694351  55.0793552  29.4070554
  15.2901566   2.1889468  25.6488824  14.5885336   2.8211305  25.4929972
  15.0988126   1.4664707  25.0508475   5.0623602  11.6677403  21.5066648
   4.2653942  12.0341241  21.8898630   4.9346650  10.7200384  21.5489221
  44.7144604  48.7737322   6.0981667  45.2526426  48.7983465   6.8893600
  44.0319395  48.1314087   6.2926430  19.3274663  72.5103827  34.8483717
  19.0891616  71.6474814  35.1872646  20.1972363  72.6783032  35.2110493
  25.1838326  73.2660770  26.8545723  25.8285928  72.7720833  26.3481283
  24.3414879  72.8851366  26.6064334  34.4715786  21.2366295  16.7706156
  34.8468256  21.5888190  15.9635317  33.6291146  20.8695412  16.5027940
  11.1811519  42.6911545  13.0680060  10.9192169  43.5872793  13.2791531
  10.5020773  42.1438885  13.4624517  28.0705690  53.1714916  27.5888991
  27.4412441  52.5644350  27.9783416  27.5297713  53.8318205  27.1556187
  12.0394691  69.9284332  15.5258381  11.1655792  69.7744690  15.8847904
  11.9786723  70.7872241  15.1074922  19.7214234   1.9338815  20.5761743
  20.6183267   2.2514778  20.6807208  19.7069943   1.0988250  21.0438323
   7.5014693  12.5722063  37.3974371   6.9432497  13.0331755  36.7712355
   8.2842213  13.1186056  37.4679995  27.1492934  34.3488407  23.0769229
  27.2293091  35.0905704  22.4772000  27.4215603  33.5914493  22.5587940
  17.9308462  42.7487707  65.9075022  17.1375215  42.6153469  65.3887892
  18.1078494  43.6868572  65.8374739  65.1304946  32.5613285  63.8705065
  64.7253380  33.1548871  64.5027779  66.0692892  32.7297033  63.9514194
  51.8937063  13.4435284  25.9853601  51.3801003  13.3015358  25.1902008
  51.4668703  14.1834712  26.4172482  10.3686142  26.1111474   9.4292015
   9.9650478  26.4513302   8.6306775  11.1087251  26.6960764   9.5914525
  71.4300789  53.2938259  36.8443155  72.1405794  52.8903883  37.3429728
  71.5859987  53.0196421  35.9405756  18.4063447  35.3942966  21.1455870
  17.8080165  35.2017879  21.8675137  18.0492616  36.1860013  20.7431865
  17.7191627  29.0756369  24.6755910  17.2213662  29.4459796  25.4044771
  18.6222494  29.0483356  24.9916935  13.6625822  10.3930285  48.2307398
  13.9508923  11.1661532  47.7455723  14.2673977   9.7018101  47.9612135
  68.7970426  52.9040449  12.9917657  69.0592374  53.7748330  13.2904565
  67.9107394  52.7899616  13.3348155  20.2159500   9.2875862  18.2000399
  20.4728317   8.6725295  17.5130546  19.3742371   8.9576006  18.5144567
  33.0070219  58.8015888   3.3214224  32.7956603  59.4567964   3.9864529
  32.3013161  58.8760517   2.6790321  26.4627417  21.8719392  16.1099422
  25.5278285  21.9098334  15.9081162  26.6423281  22.6929431  16.5681255
  14.7096682   3.9976251  62.0456886  15.2421820   3.2601750  62.3437262
  15.0137115   4.7394255  62.5686836  15.2597022  19.1651797  22.2388887
  15.8030629  19.9493039  22.1605325  14.3690217  19.5002961  22.3419309
  73.8790697  43.1267834  30.7020521  72.9751819  43.0814791  31.0137677
  73.8612175  42.6887560  29.8511434  28.5602331  57.5489950   1.9275378
  27.6732922  57.8800058   1.7861129  28.5110617  56.6230822   1.6898483
  22.7504325  33.8639045  15.4292476  23.3691168  34.5767593  15.5883098
  22.6668501  33.8274479  14.4764006  30.0558949  17.8846860  10.4776931
  29.2373586  17.4947202  10.1708424  30.7409906  17.3453009  10.0828016
  36.3671517  37.9764915  12.7839756  36.5074372  38.2553339  11.8791008
  36.6570640  37.0644140  12.8012216   8.5085261  16.6655672  36.1977053
   8.9417118  15.8934879  35.8337307   8.5328645  16.5296400  37.1448922
   8.7241085  74.0600731   7.4545097   8.5084256  74.8262592   6.9228399
   8.2758029  74.2119735   8.2864845  66.3479958  73.9004130  63.4763836
  66.9207464  73.6728663  64.2087852  66.2755547  74.8540349  63.5162848
  36.8333578   2.6778603  17.6613152  37.6444101   3.1855956  17.6864684
  36.5667367   2.6068181  18.5778832  15.9158778  53.2745600  17.2374344
  16.6332471  53.8393879  16.9500637  16.3214886  52.6694012  17.8583205
  30.4732237  72.3388095  54.5509886  30.2541346  73.0776258  53.9832019
  31.1047782  72.6957126  55.1754820  76.5355685  63.4325743  41.8862772
  75.6865108  63.1336594  42.2118282  76.5918601  63.0747128  41.0002756
  80.3826406  63.2915764  22.8480768  81.2076690  63.3496588  22.3662162
  79.7467973  62.9907041  22.1989155  39.6668434  26.4392424   6.2945914
  39.8167944  27.2990894   6.6875404  39.9226570  26.5466595   5.3784841
  14.6160815  57.6879175  31.1840045  14.4389043  56.8853171  30.6934201
  14.9841485  57.3849542  32.0140492  54.6082594  71.3559674  35.4720569
  54.7802672  70.7443058  36.1879587  55.3782387  71.2867062  34.9076390
  67.6458702  61.8847389  60.1660531  67.7614747  61.7429061  61.1056011
  67.8047905  62.8207011  60.0437790  25.5860114  40.9695148  13.8576150
  26.2813425  41.5753174  13.6012125  24.8102760  41.2853193  13.3942199
  33.7084675  41.5247107  22.1901298  34.2431998  41.0284281  21.5704536
  32.8276873  41.5049553  21.8158722  69.4192094  50.0626469  28.8551617
  69.9109906  49.3083191  29.1797781  68.6210197  49.6865273  28.4841347
  81.4146068  34.6651509  59.1509187  80.6315829  34.1570713  58.9388734
  81.8469383  34.8019078  58.3079373  59.4738420  14.8735525  65.9854007
  59.1209074  15.4596617  65.3159662  60.0678196  15.4235270  66.4962355
  22.5446153  37.0157957  12.1323156  22.6121879  37.7019310  12.7963078
  22.6673245  36.1999249  12.6176286  63.2533950   5.8895367  63.2596779
  64.1612655   5.6110090  63.3797836  62.7411669   5.0875378  63.3628893
  10.7728100  11.1869192  16.4497626  11.2978470  11.5583491  15.7408142
  10.9151566  11.7786360  17.1885729  64.7048459  66.6449566  63.0619639
  65.5320940  66.2314744  63.3087927  64.0386615  65.9888287  63.2667243
   7.3701847  28.2534051  22.2386265   7.5687671  29.1843343  22.1378064
   8.0980808  27.9078197  22.7553177  48.0399140  10.5487730  57.9225093
  48.7064828   9.8628046  57.8856217  47.2640683  10.1502945  57.5281637
  17.9805267   2.4870408  25.6831264  17.0418108   2.3306622  25.5802202
  18.3063412   2.5859785  24.7885370  23.1703162  53.4115410  30.6541848
  24.0932631  53.5424995  30.8715582  23.0456495  53.8950396  29.8375368
  58.1739912  53.1870158  60.7780289  58.4115110  53.9651210  61.2823772
  58.9840899  52.9308326  60.3371864   4.3440388   7.4280364  12.1723199
   3.4753416   7.6537807  11.8396962   4.8898027   8.1816299  11.9476652
  27.6698542  38.4183979   8.4975368  26.7970014  38.1147337   8.7468249
  27.5279903  39.3017030   8.1571299  28.1255984  57.5051117  36.2576294
  27.6500010  58.1808138  35.7744479  28.4809542  56.9308519  35.5792618
   5.0400194  16.5346148  58.0133646   4.2460569  16.8488648  58.4459173
   4.7944625  15.6833317  57.6510775  45.0397110  50.7376909  17.2227490
  44.7906685  50.2018261  16.4697146  44.7990179  50.2086353  17.9832768
  26.4454468   7.1628573  60.4314935  27.0655449   6.7015602  60.9962159
  25.9985360   7.7749111  61.0162138  18.3721149  26.3844538  27.8213310
  17.6615047  26.2445045  28.4471726  17.9349852  26.4431834  26.9718003
  25.6478215  65.1770992  55.2495360  26.0120565  66.0564799  55.3507959
  26.2973307  64.7076411  54.7261047  71.9468802  17.0921957  42.3346281
  72.0845234  16.1824274  42.0707941  72.6018554  17.5862801  41.8415546
  11.0784686  16.2361073  51.2450361  11.3856351  16.6398299  52.0567560
  10.4977715  16.8905711  50.8568382  37.9085255  26.7968678  29.2919207
  37.1016788  26.7879248  28.7769914  38.3862329  26.0196638  29.0021229
  41.2777567  47.0461988  15.2775371  41.4186382  47.1837664  16.2142658
  41.2197495  47.9289007  14.9118829   7.9882234  73.6679792  26.9821644
   7.2128260  73.8172960  26.4411545   8.6987895  73.5431814  26.3530755
  17.2822952  23.2114005  31.8994641  17.0073688  22.4156904  32.3549795
  18.2137585  23.0774450  31.7243552  45.8563232  45.6969786  31.5804648
  46.3999081  45.0136185  31.1883354  45.8907795  45.5204010  32.5206065
  24.5948410  34.1118526  10.9636474  25.5377960  34.1925120  11.1070478
  24.5036125  33.3475089  10.3947115  33.5821509  34.1024494  31.5807343
  33.8029003  34.1956139  32.5074601  33.6315846  34.9925280  31.2320924
  34.0792489  19.5750368  27.5884533  33.7404704  20.4541469  27.4192595
  35.0055194  19.7097480  27.7887273  30.8198571  12.5008190  16.4243555
  31.3093638  13.2951820  16.2108111  31.4937711  11.8444550  16.6011548
  38.0658708  75.3245754  59.5959091  38.9598391  75.0378938  59.4091844
  38.1608437  75.9559388  60.3090643   0.3645882  13.0596685  16.3566673
   1.1119115  12.6674223  16.8082011  -0.2002824  12.3180318  16.1395764
  60.5822182  36.9084907   5.7797253  60.1744938  37.3128271   6.5455621
  59.9163055  36.9675398   5.0946659   1.4059040  31.2100172  40.9770679
   0.5165783  30.8579659  41.0143661   1.9084083  30.6550288  41.5734816
  71.2037621  74.6278877  44.7288429  71.7771349  74.4054432  43.9953577
  71.1422120  73.8198895  45.2383339   1.2515827  63.5243225  26.9747353
   0.5535432  62.9124975  27.2084951   1.5018901  63.2737017  26.0854840
   6.4238846  25.1712942  31.5799451   7.3388606  25.2741957  31.8415952
   6.0808009  26.0644674  31.5522099  47.6969544   7.9885299  38.0133271
  47.1178977   7.2776038  38.2881355  48.1879608   8.2162578  38.8028121
  10.1222122  31.3712168   9.2526090   9.7736776  32.1505499   9.6854979
  10.8870041  31.1290240   9.7747856   9.2212301  20.4997230   9.7143239
   9.7865266  20.7167625   8.9729965   8.8100123  21.3304257   9.9532133
  15.6592667  49.2421865  14.6402657  15.8681011  50.1457596  14.4032454
  15.2772772  49.3063593  15.5155933   5.2723134  40.9787989  42.9442072
   5.8733618  40.2866459  43.2197094   5.8020395  41.7759180  42.9590034
  17.1048665  27.4301052  19.1910970  17.5105703  28.0338502  19.8132932
  17.4429357  27.7023840  18.3379829  34.2113805  14.5742321  41.3118458
  35.0595641  14.9500978  41.5475178  33.5703754  15.1455271  41.7348862
  78.4072044  41.7161942   7.0453489  78.4215778  40.8599472   7.4729782
  77.7701208  42.2241354   7.5476956  77.1663405  15.5573227  64.5477452
  77.4023368  14.7096636  64.1708993  77.9322602  16.1100390  64.3925040
  69.2032911   3.2013752  62.3133838  68.7319340   3.9862396  62.5927472
  69.9717547   3.5354664  61.8506991  34.8551869  60.3247452  34.5141125
  34.4124317  59.7654104  33.8758779  35.7493258  60.4056454  34.1821432
  50.4379330  61.3664122  61.0632371  50.6265865  60.4632778  61.3181680
  50.3602086  61.8381090  61.8925100   8.0506285  10.2988961  58.5499209
   7.9396041   9.4204762  58.9136284   8.6903294  10.7175209  59.1259121
  80.4292706  25.3056955  28.4761834  80.5282985  24.3545270  28.5174251
  80.0456086  25.4694295  27.6146555  28.8051915  56.2645626  29.1873980
  29.2044425  57.1057987  29.4091153  28.2437491  56.4564657  28.4362721
  20.1500392  24.3244028   9.4298619  19.9152493  24.5727944  10.3239572
  19.8637664  23.4144163   9.3510765  13.3982837  42.2856045  45.4612684
  14.0274179  42.7329302  44.8953009  12.8681493  42.9901266  45.8338785
   9.5198601  41.0271549  34.0017414   9.5666641  40.3688622  34.6950579
   9.9368417  40.6106806  33.2474828  25.6028700  36.9282937  10.5947042
  25.0062823  37.5263309  10.1445174  25.0655413  36.1630654  10.7994866
  31.1834311  14.1542780   6.5019166  30.6233740  14.1435516   5.7257390
  30.5905437  14.3687785   7.2221279  62.7432108  70.9623384  14.4346988
  62.3505306  71.7933321  14.1673422  61.9970226  70.3809786  14.5811987
  34.2339492  42.3062134   9.9265212  33.7986708  41.7783499  10.5959427
  34.1033959  43.2104254  10.2121603  42.4111223  41.8112516  18.3774030
  42.5243521  41.1906958  17.6574600  42.7784729  42.6310730  18.0469763
   6.2783033  31.1760712  15.2514064   5.8345717  31.6209173  14.5292938
   6.2548733  30.2494669  15.0124705  19.3426808  21.0404780  62.6325207
  19.0477761  21.8534853  62.2223010  20.0472887  20.7277682  62.0650935
  28.5105729  46.6131926  25.4724669  28.5848069  46.5334606  24.5214868
  27.5721645  46.5399981  25.6464291  65.1428781  63.8317342  43.0657780
  65.1686798  62.9771848  43.4962522  65.2916608  63.6382647  42.1402156
  12.0853591  59.7198629  21.7838573  11.5028811  60.1491499  21.1572289
  11.6202104  59.7733355  22.6187301  79.7639023  74.7028303  11.5626764
  80.2989227  73.9557362  11.2946570  79.1503917  74.3409491  12.2021127
  75.5850935  37.6118898  13.6733508  76.1815852  36.8652940  13.6183655
  75.0582629  37.5567698  12.8760779  13.2047137  23.4092476  48.9605259
  12.9782589  23.8344528  48.1333923  13.3632286  22.4952605  48.7244486
  41.8590212  19.4826603   2.8435519  41.5579414  19.9740148   2.0792529
  41.1748600  18.8302541   2.9936066   8.1701887  25.7960320  57.4289751
   7.7413279  25.1060295  57.9351425   9.0064889  25.4136086  57.1632957
  42.2082043  65.7883692  16.7840922  41.5221882  66.0351753  17.4043345
  42.9214811  65.4625702  17.3330200  22.3118401  64.9165058   8.6128509
  21.6075087  65.4794025   8.2914537  22.1583247  64.8554611   9.5556861
   1.7518601  44.5028830   6.7054641   0.9555098  44.1168451   7.0702022
   1.4431316  45.0545692   5.9867454  22.9272413  38.6166906  17.8848135
  22.4562287  38.0984187  17.2323000  23.5565472  39.1278148  17.3759329
  25.7286501  43.8870144  17.0590365  26.2104106  44.3361425  17.7536023
  26.3527703  43.8253784  16.3359153  34.9845386  69.8530960   8.5557938
  34.3761945  70.4420757   8.1094217  35.1697564  70.2865314   9.3888944
  30.8165193  11.3424873  31.6465378  30.6714725  12.2603309  31.4168501
  31.6445255  11.1173940  31.2223101  74.9091381  35.4043698  30.3114247
  74.7717291  35.8187509  29.4595814  75.5501932  34.7141719  30.1414061
  61.2228441  37.6510596  17.3531723  61.1169147  36.7581344  17.0250046
  61.1203718  37.5714278  18.3015347  47.9494762  16.8368566   1.4717680
  47.3094749  17.4070477   1.0457206  47.4251175  16.1368573   1.8607216
  24.7133350  29.0009665  34.7417283  25.1039982  28.1702471  34.4705892
  24.4958138  28.8732719  35.6650996  30.5295587  68.7804461   1.3475773
  30.2547908  69.0013695   0.4576740  31.3693357  69.2266607   1.4566840
  77.9648253  63.1376505  11.1573720  78.2445663  63.4801865  10.3084636
  77.1649078  63.6228848  11.3596332  61.6419246  21.9412424  50.4433047
  60.7170846  21.9143154  50.1979911  61.7251827  21.2858059  51.1359131
  20.1097441  35.0985837  14.9794292  19.4547403  34.5151925  15.3626490
  20.7487774  34.5100784  14.5775211  20.4143977  67.5460768  46.2412357
  19.9308729  67.4106884  45.4263115  20.3857040  66.6962433  46.6807747
  70.3264469  28.0390811  42.1633673  70.7401615  27.3141026  42.6318550
  70.6785017  28.8255644  42.5801849  70.5334491  12.1741521   5.0420547
  70.3360420  11.3211298   4.6552527  70.9318584  12.6738453   4.3294480
  62.2735604   8.2999995  62.4851095  62.4782725   7.7792217  61.7085045
  62.4103542   7.7003100  63.2185193  17.3887765  12.2338867  39.2804074
  17.8283119  11.6355133  38.6762643  18.0629063  12.8694892  39.5208073
  16.2036371  55.0941086  37.2669959  15.3825748  55.5464506  37.4605751
  15.9668458  54.1669226  37.2449136  10.6517506  74.9854803  11.5308774
  10.1496768  75.4641962  10.8713424  10.0318623  74.8415232  12.2458923
  69.0913465  70.3398817  20.0931501  69.4006803  69.4928597  19.7720599
  68.4152295  70.6006913  19.4677901  22.9042101  13.9051843  16.1404431
  22.0811892  14.2366433  15.7812703  22.8461766  14.0860248  17.0786119
  59.7361656   8.8075545  48.2642757  59.7828557   8.2109167  47.5172317
  60.6416150   9.0827896  48.4079349   6.6551566  21.8898106  25.1930285
   7.4460423  21.9364691  24.6558571   6.4746642  22.7986860  25.4330254
  12.4788630  49.7151995  38.4459567  12.1394300  48.8268232  38.5546160
  13.0272508  49.8580885  39.2173743  19.4603097  34.7088170  37.3703551
  19.0455317  33.9603591  36.9413996  19.5354760  34.4474840  38.2881165
  19.4173884  11.8104708  37.1496463  19.5668101  11.0025418  37.6407242
  20.2330017  11.9531691  36.6693950  27.0122933  68.7969398  25.2883744
  27.9507422  68.8011026  25.0998878  26.6577435  69.5084190  24.7551560
  53.1936792   4.4023611  44.2602360  52.9936170   5.1516678  44.8212540
  53.4328881   4.7904351  43.4185659  21.1045623  56.8308640  35.3806305
  20.3447509  56.5227079  35.8745551  20.8167005  56.8214750  34.4677901
  74.4913071  18.5554004  10.2685726  73.6571550  18.4543049   9.8100954
  74.4187212  19.3992019  10.7146239  61.7680889  13.6972845  28.7058973
  61.9281632  14.4470274  29.2790389  62.6394647  13.4265006  28.4167409
  13.9029789  48.7001991   2.2718373  14.3987978  47.9840136   2.6686659
  13.7965834  48.4397173   1.3569275  10.7025957  30.1694179   5.0513214
  11.5686154  30.0388789   4.6650544  10.3321230  30.9061265   4.5652741
  77.6895907  46.6505623  29.9520969  77.1350861  46.8413877  29.1955638
  77.1749198  46.0383224  30.4779410   3.7329799  30.8950949  28.9632702
   4.4231534  31.0860205  29.5984411   3.3072200  31.7388225  28.8113403
  22.1937537  43.2643890  23.1080604  22.0859623  43.8730717  22.3772264
  22.0584297  43.8012791  23.8888717  40.9755373  35.7316327  13.1259429
  40.7304001  36.6374207  13.3148515  41.2218189  35.7380819  12.2009909
  71.6169129  43.3742381  58.8597464  70.8282481  43.1166108  59.3370968
  72.2326384  42.6568372  59.0095752  61.0236647  30.1444437  53.7576985
  60.5419530  29.3683150  54.0437185  61.7426254  29.7986796  53.2287621
  49.0386438  54.9649000   9.5925885  49.1218710  55.8062077  10.0414860
  49.8459244  54.4977331   9.8077404  65.5007301  68.4344382  44.7316110
  66.0251389  69.0322990  45.2643311  65.7593332  67.5613112  45.0265777
  70.9117518  29.1151996  56.8163043  71.6490755  28.5454614  57.0353472
  70.2458630  28.5220809  56.4684027  21.2485456  13.5053146  52.0339108
  21.5521717  12.7905738  51.4742756  21.2229705  13.1270337  52.9128170
  78.8143943  65.3504419   0.2240492  78.0956885  65.5545855   0.8223963
  78.5226309  65.6853914  -0.6238382  55.3699265  52.9440553  61.3531452
  55.2620755  53.5868187  62.0541843  56.1720763  53.2113559  60.9044420
  12.8880215  18.2428741  43.0638361  12.2297311  18.9174843  42.8971386
  13.4805954  18.6391199  43.7026453  11.6906166  43.6945677  30.0227404
  11.9311833  44.1829777  29.2354584  12.0004272  44.2391062  30.7464314
  11.1138757  35.9641840  63.9128437  10.2956613  35.4936936  64.0722079
  11.7709740  35.4771473  64.4100855  26.4728117  20.4740977  35.2644277
  27.1910858  19.8421288  35.2339172  26.8099403  21.1943150  35.7972169
  34.8424792  52.8691006  12.6853454  34.2048502  53.5691738  12.5455070
  35.6735897  53.2391548  12.3877764  27.1757865  36.2452817  29.7917438
  26.7428517  35.7679629  30.4995346  26.4598465  36.5415406  29.2297029
   0.9598263  54.0850449  29.6655035   0.9236364  53.7910032  28.7553048
   0.1674585  54.6098518  29.7793460  39.3202186  60.1861763  12.7207232
  39.2839980  61.0224247  12.2563910  38.9144230  59.5609760  12.1201527
  21.4546680  17.4474788  39.6558714  21.8572545  16.7102504  39.1969037
  21.9448829  18.2129276  39.3558550  14.8565423  67.5158215  14.9339831
  14.2828643  68.1429577  14.4937265  15.5761790  68.0474091  15.2742338
  24.8013568  17.0640290  16.2046671  25.7568836  17.0304489  16.1591077
  24.5387077  16.1629069  16.3923526   3.7901419  66.1342716  33.0380344
   4.0104607  65.2199554  32.8599429   2.8962642  66.2334490  32.7103472
  15.8152580  34.2267585  56.1331367  15.2141511  33.4825397  56.1008692
  15.5061960  34.8143411  55.4435968  67.2198886  15.0376499  33.8346910
  67.7861780  15.4919136  33.2108378  66.7745858  15.7396662  34.3091488
  56.5002203  31.9722724   2.4176160  56.5055561  31.2592077   1.7790681
  55.5809784  32.2320247   2.4789043  63.6202560  62.2910185  64.8306488
  64.0747295  61.9108410  65.5824141  62.9823075  61.6249485  64.5745123
  40.5415678  68.5135412  27.3293424  40.4765511  69.2093277  26.6752124
  40.9205103  67.7735138  26.8550014  43.3458519  64.4225359  39.4400144
  43.5726595  63.5776997  39.0513754  43.8136387  64.4353676  40.2750254
  11.2439036  39.6839952  31.8709397  12.1326768  39.4750547  32.1584415
  11.3652253  40.2059364  31.0777855  51.1076077  71.1699848  10.8769631
  51.3623126  71.2799781  11.7930734  50.1812990  71.4102339  10.8554029
  74.5128161  21.3571262  11.6554141  73.7480813  21.8393755  11.9698167
  74.9468428  21.9621444  11.0539103  71.8336838  47.9257202  14.5639980
  71.3889062  48.7660170  14.6748996  72.5672960  48.1182575  13.9800692
  17.5204778  40.3361082  23.9701247  18.2385778  40.9608841  23.8690257
  17.5809336  39.7746110  23.1972742   8.1843122  17.0690920  61.5073356
   8.7296279  17.4280360  62.2073522   7.9395779  16.1972430  61.8175274
  42.4664402  63.7097216   5.9374148  42.5998163  63.1641674   5.1622903
  42.7767992  64.5767593   5.6763494  13.5365629  52.1762323  17.2188866
  13.9349556  51.4648104  16.7174935  14.2600548  52.7763939  17.3994398
  16.6601014  48.6479282  36.7917466  17.1515083  48.3064842  36.0446405
  17.2845030  48.6309862  37.5170517  29.0605497  56.0414171  33.3926034
  29.0364099  55.1554632  33.0310392  28.1923771  56.3994503  33.2073450
  73.4251175  65.7178564  49.7290194  73.6126481  66.0483975  48.8504946
  72.4803362  65.5641718  49.7304832  74.3875005  10.7083514  62.3750388
  75.0878264  10.8551457  63.0108267  74.1282107   9.7969486  62.5104889
  76.2613291  47.8183699   6.4126438  76.5546846  48.1112003   5.5498433
  75.5294228  48.3971930   6.6259617  20.1889157  65.5413055  26.8891263
  21.1133647  65.7537603  27.0175242  19.9246800  66.0678911  26.1347246
  36.9074988  52.5082779  31.1577415  37.3445559  53.3334208  31.3683534
  37.1361828  51.9246578  31.8811488  68.1051248  36.2178612  19.8817062
  67.4813813  35.5554819  20.1790762  68.0649489  36.9018769  20.5500937
  17.1143711  25.9028029  30.7276821  16.2920392  25.7314348  31.1866307
  16.9902050  26.7631531  30.3269172  33.6881757  60.1048136   7.9121035
  33.1787086  59.8634052   7.1385419  33.9506435  59.2684603   8.2966167
  43.2672977  17.1610463   4.6623862  42.8554821  17.5754523   5.4206109
  42.6272583  16.5139151   4.3660784  73.4041526   8.0437424  63.0398416
  72.8499283   7.5361635  62.4470260  74.2732169   7.6530602  62.9485961
  47.0515108  42.5626755  35.9875441  46.1715412  42.8567743  35.7521915
  47.1060038  41.6710281  35.6437016  55.0238268   8.1155879   5.2521133
  54.7194425   8.4472949   4.4073942  55.5917303   7.3779876   5.0292379
  43.4717989  26.1965036  25.8844924  42.9790592  25.4759622  26.2772512
  44.2590189  26.2704182  26.4239883  24.8929024  59.6938562  13.8023794
  25.0738263  58.7576485  13.8860989  24.8015881  60.0017262  14.7041047
  36.7836928  45.5833244  20.7523012  36.8858528  44.6875429  20.4307842
  37.1351147  45.5598736  21.6423488  59.7496271  56.9681454  18.2614172
  59.9808455  57.8490782  17.9669189  58.8461876  57.0473814  18.5676062
   7.8859836   6.0609317  29.5224619   7.1159840   5.5276477  29.3251276
   7.5831831   6.6834104  30.1835704   2.0333277  27.8613496  48.5772562
   1.9889227  27.3372364  47.7775288   1.3248122  28.4984255  48.4857559
  13.1554163  46.1026907  54.7156477  12.7516794  46.5211630  55.4759836
  13.0770397  46.7509222  54.0157318  60.0260639  26.0527849   9.0091562
  60.8730555  25.7745647   9.3576211  60.0947809  27.0053387   8.9447433
  51.9373796  75.1052175  14.5096993  51.7255977  74.3893762  15.1088250
  51.0926916  75.3715115  14.1466260  57.2605411  22.4459274  19.4054019
  56.8150822  22.5219733  20.2492118  57.3271815  21.5031535  19.2538548
  26.9058394  33.5807776  31.0780358  26.4574623  34.1692328  31.6854143
  26.3218760  32.8263283  31.0004306  34.1198039  16.4934337  33.5523248
  34.3237782  16.4074409  34.4835782  33.1707358  16.6149426  33.5252357
  53.0726371  56.0865481  65.3440013  53.5191570  55.5908771  64.6575894
  52.6016555  56.7749937  64.8744799  51.9818878  65.1278210  12.5192559
  52.0728683  66.0786438  12.5816739  52.2222900  64.9230194  11.6156554
  39.5316291  51.7739153  36.3221383  40.1684046  51.6165257  35.6250215
  38.9585614  51.0075188  36.3005757  46.3509893  56.1383200   1.6399637
  46.0993528  56.7096710   0.9143819  45.5789280  56.1149693   2.2053017
  37.0444878   8.0080225  57.3564481  36.7188652   7.3848631  58.0059659
  36.2716635   8.2457878  56.8441551  30.8123159  46.1815786  31.1171150
  30.2862787  46.2925577  30.3251553  30.3574204  45.5011368  31.6134000
  36.8451023  28.1498146  14.8599648  36.2931633  27.3997712  15.0813925
  37.5441003  27.7815652  14.3195701  13.8446387  22.2131207  59.2189741
  13.9200505  23.0411150  58.7446570  13.4966000  21.5980866  58.5733509
  15.7899402  63.5850282  52.2068810  15.3218005  62.8237219  51.8641173
  16.4409647  63.7882395  51.5352392  77.9656517  13.4229612  36.6357541
  78.0520543  14.3734825  36.5631223  78.7249559  13.0769098  36.1667800
  57.4096700  70.7144152  52.4829721  57.9675033  70.2555971  51.8548441
  56.5274142  70.3909235  52.3007345  14.8202884  44.1207743  60.6089449
  13.9198220  44.3062449  60.3425026  15.3409946  44.2825317  59.8222256
  64.6317063  60.4745169  39.5457828  63.8219676  60.2235837  39.9902880
  64.7003875  61.4185877  39.6880757  40.1133871  10.2510917   5.9456664
  40.9196520  10.7319283   5.7586926  39.7639680  10.6667268   6.7339474
  32.1010184   1.5450744  33.3503795  31.8643594   2.1100140  34.0859532
  31.8545437   2.0472965  32.5736856  44.3844604  39.0643525  14.5309448
  43.8219357  39.1275716  13.7590647  45.1220179  39.6431041  14.3378472
  60.9507575  17.9341986  65.0489537  60.4038157  17.8115322  64.2730408
  61.7121239  18.4194519  64.7310249  63.9208347  35.4127383  11.0864747
  64.5815140  35.5578732  11.7637265  63.9080197  34.4635081  10.9638774
  49.3190479   2.4007307  23.0152893  49.7293282   1.5375113  22.9627800
  49.6135521   2.7552584  23.8542247  20.6262898  26.8659520  44.2580605
  20.2648711  26.0390186  44.5771027  20.5809140  27.4539185  45.0120306
   4.7574219  70.2556324  42.3908281   4.1042700  70.0965881  41.7094135
   4.7081500  71.1974144  42.5546932  71.0426718  49.0435314  36.1224437
  70.8074611  48.1592655  35.8414054  71.8425620  48.9270878  36.6351295
  59.1107651   2.4602177  56.0848307  59.9380269   2.5711205  55.6162464
  58.4916755   3.0172636  55.6129610  23.3965659  31.4276457  33.1959105
  22.4787092  31.6457772  33.3577418  23.6145043  30.7895970  33.8753414
  20.9469008  24.5700479  25.9757042  20.0343847  24.2831731  26.0110259
  20.9596372  25.3895760  26.4701152  37.2008967  40.0308943  14.3517017
  36.6355467  39.4311738  13.8649309  37.0902967  39.7743440  15.2672231
  15.0561929  39.7387505  30.9452271  15.0252962  39.8750424  29.9982834
  14.3291807  39.1427016  31.1252642  51.8975888  58.9118047  66.2936311
  51.6867934  59.7766085  66.6456437  51.5916763  58.9411325  65.3871051
  54.3492460  43.3525467   3.1589317  54.3099928  42.7197170   3.8760227
  55.2829933  43.4396982   2.9672402  21.1132630  12.8950217  54.6779048
  20.4674919  12.2012617  54.5441031  21.0413321  13.1132271  55.6071221
  58.1648922  28.8062716   7.1780103  58.4363842  27.9788947   6.7805541
  58.3821678  29.4694018   6.5228140  73.3166653  33.2228947  32.2966504
  74.2625010  33.0758357  32.2958589  73.2144541  34.1228175  32.6063657
  20.8916529  22.3351671  44.6036589  20.2990349  22.1981909  45.3427636
  21.7255886  22.5764515  45.0068438  39.1530943  39.8814774   7.2439969
  39.7569013  40.5958843   7.0408481  39.5594573  39.4269443   7.9818994
   0.8690932  47.5786448  39.0038180   1.7519072  47.9427958  39.0691257
   0.9563624  46.6803265  39.3226266  35.5978370  59.0380812  21.6520429
  35.7716322  59.4966412  20.8300018  35.9635019  59.6097326  22.3271251
   8.4096082  66.7808967   0.7880902   7.6886209  67.3975371   0.9152229
   7.9840072  65.9671693   0.5180072  14.4315326  35.0293970  44.1361189
  14.6403718  34.1386056  44.4173813  13.6631429  35.2700472  44.6537066
  48.4392023  55.3506899   3.2706651  49.1283512  55.3850079   2.6072481
  47.8860998  56.1085129   3.0808845  77.4181805  69.1038747  62.9790243
  77.0279370  69.4500871  63.7815693  77.2280035  69.7665520  62.3150056
  68.8996182  71.3891144  55.6725060  68.7464867  70.7306285  54.9948763
  68.2002364  71.2441463  56.3097512  54.3439684  68.7082095  63.8270673
  54.9277912  69.0274019  63.1389546  53.7594591  69.4447989  64.0059989
  40.4281902  71.3330030  16.3726032  40.2735806  71.4327812  15.4332566
  40.7005501  70.4210949  16.4749753  31.8319845  56.4016581  32.1273971
  31.2374783  56.0253906  32.7764106  31.2598348  56.8801355  31.5274501
  16.7825067  33.0981731   0.1948149  16.6528666  32.6614213  -0.6470124
  17.3577559  32.5097919   0.6838234  26.3449693  69.2639971  13.8192868
  25.4479480  69.0571070  14.0815496  26.4540744  70.1873636  14.0467179
   1.9275147  50.3923178  28.5141897   1.5101963  51.2322044  28.3227038
   1.4781052  50.0745916  29.2973304  24.5380020  49.6991730   5.6251329
  23.7902904  50.1846743   5.9736222  25.1835895  50.3733587   5.4131770
  25.4846501  47.9875755  19.3772793  25.5502081  47.2082615  19.9291873
  25.6212330  47.6629210  18.4872353  54.5485163  74.6176481  39.6054935
  53.5917330  74.6379662  39.5857525  54.8122883  75.4992533  39.3420029
  40.5964041  56.7186308  14.3939936  41.0882425  55.9018230  14.4785357
  40.9167576  57.1079969  13.5803592  40.8540630  23.8814449   0.5317692
  40.2370548  23.5675049  -0.1292714  40.3105259  24.0681767   1.2972334
  64.1193994  33.9618780  41.8505823  64.7610297  34.3891051  41.2831175
  63.3305540  34.4973852  41.7658197  77.9360906   9.8922736   2.2813500
  77.0958702  10.2757747   2.0299742  78.5857908  10.3976543   1.7927659
  31.2341499  65.0071049  13.2194138  30.4795790  64.4307661  13.0982268
  31.1133957  65.6996012  12.5697219  22.5470543  64.1901779   2.1153209
  23.1189418  64.4867325   1.4073423  22.6086688  63.2353306   2.0889570
  35.5946398  45.1226568  23.4463596  36.5081429  45.1649094  23.1635857
  35.6070733  44.5474005  24.2113161  67.2478972  63.1157823  38.9124071
  68.0885420  62.6608462  38.9632046  67.4007473  63.8335342  38.2978332
  42.9228401  64.6175385   8.3675909  42.6750088  64.0946102   7.6051223
  42.2330093  64.4475794   9.0090567  42.5319052  43.1164408   5.1329237
  43.4884882  43.0890369   5.1121372  42.3109341  43.9976931   4.8316002
   1.6199120  18.0645468  46.6165113   1.2463029  18.2450773  45.7539236
   2.4093636  18.6045840  46.6533863  73.8945272   3.9051106  62.3137575
  74.2895820   3.0549862  62.1202391  74.4759180   4.2965700  62.9656594
  30.5934906  50.3510618  35.8392382  30.7976770  49.7392035  36.5464664
  30.1793766  49.8102427  35.1667404  14.3171823  37.0764422  29.8228645
  13.4816062  36.8288112  29.4269824  14.6591341  36.2613153  30.1901078
  21.4033365  45.7135677  24.6231198  21.3253379  45.9710264  25.5417395
  20.5969977  46.0305786  24.2162347  48.8451338  66.2873173  27.2784424
  48.5812807  66.0367441  28.1637812  48.4228659  67.1339893  27.1332741
  39.6087074  67.1143675   8.6926484  40.5074310  67.3747349   8.8944715
  39.1003108  67.9206276   8.7804526  20.7855127   7.9117210  41.1814022
  20.2380333   8.4964854  41.7053747  20.4960106   7.0319659  41.4231873
  34.3059945  56.7233467  22.4169064  33.4160924  57.0468044  22.5571918
  34.8131752  57.5049829  22.1977234  30.8445096  33.4709787  34.0321064
  30.6481171  34.3927312  34.1995382  30.5148077  33.3126879  33.1475306
  72.8017044  67.8780317  20.3722119  73.5008860  67.2994232  20.0679255
  73.0115223  68.0445194  21.2911725   9.4412263  64.1677096  55.3380155
   9.8793300  64.7552492  54.7223043   9.9912103  63.3844568  55.3542959
  65.9954288   6.6662504  52.3803031  66.8644609   6.4170363  52.6947963
  66.0164656   6.4760115  51.4424335  33.4367204  54.9655771  15.3484881
  33.9180183  55.0249577  14.5232260  32.5530863  55.2634382  15.1323831
  13.8427599   5.5832531  59.3039035  14.6365841   5.8941223  59.7391486
  13.5275801   6.3408043  58.8109368  70.1970730  54.6688743  59.7506493
  70.1343880  55.4258950  60.3330761  69.3504677  54.2304201  59.8357897
  36.6992426  59.8299456  32.4413586  37.5259042  60.1937675  32.7583647
  36.8745065  58.8950634  32.3340631   2.5512012   4.4038012  25.4020178
   2.2556909   4.9356320  24.6630585   2.4775728   4.9843218  26.1595165
  34.3274236  54.9720240  25.4515243  35.0069618  55.5938673  25.1912022
  33.8898993  54.7387028  24.6327639  26.1085486  53.8754940  36.4806390
  25.4007411  54.3781471  36.8838525  26.0095334  54.0331364  35.5417156
  21.8602610  61.9631243  29.6834159  22.7147555  61.7881775  30.0777078
  21.9083452  62.8771639  29.4033217   2.5064429  30.9965422  65.2779749
   2.1967848  30.7134630  64.4176200   3.3503540  31.4132406  65.1036037
  26.1726701   7.8668792  48.6002636  25.4685206   7.2231395  48.5227680
  26.8718403   7.5253494  48.0428171  17.7185249  60.7695532  60.0322342
  17.1178734  60.1990557  60.5117941  17.1494961  61.3089991  59.4831991
  63.4042462   6.5263321  52.8224372  64.3329724   6.5809633  53.0476355
  63.3831128   6.6163494  51.8697142  35.4622316  38.2192349  23.9493704
  35.2893162  38.3558011  23.0178761  34.7291470  38.6448431  24.3939757
  44.8953501   4.7760780   9.8392224  45.1723436   4.4107063   8.9989811
  45.4663281   4.3564803  10.4827666   2.1521266  36.9380810  62.2531813
   2.9832323  36.7810204  61.8050450   2.3871859  37.4676850  63.0150881
  80.4783990   7.3172810  56.2685525  80.0432040   6.4875271  56.0727262
  79.9599340   7.9749205  55.8049452  24.7362924  47.1133518   5.8661133
  23.8277173  46.8361855   5.7481980  24.6914434  48.0684471   5.9109902
  15.5587089  48.9619732  53.6711407  14.6494174  48.6657476  53.6302710
  15.5127835  49.9014044  53.4933901  12.8236365  39.1187048  53.4925413
  13.3804631  38.5156608  53.0000830  12.5041091  38.6005902  54.2312479
  28.2048392  51.5998363  24.0411496  28.9208746  51.8580246  24.6215510
  27.4254131  51.9946861  24.4320679  22.7752805  48.5873270  34.0244389
  22.0967436  47.9156160  34.0924406  22.4382138  49.2032671  33.3738756
  32.3553991  61.3392115  23.4703994  31.5229726  61.4792109  23.9217305
  32.5592947  62.1869946  23.0755281  38.2442141  39.1125154  23.5654235
  37.3803878  38.7344956  23.7301517  38.5642576  39.3650460  24.4314671
  78.0280115  17.7285721  59.7640633  77.5223066  17.6071169  60.5676460
  78.2943990  18.6477091  59.7853237  50.4374131  32.5151398  56.5276253
  50.2814873  32.4944975  57.4718141  51.0363062  31.7857554  56.3677668
  14.9755303  68.3177347  59.3993139  15.9131877  68.1383748  59.4690638
  14.5754639  67.7658124  60.0712966  28.0992277   0.3939082  32.9651606
  28.7771710   0.3735187  33.6405956  27.2993620   0.6286146  33.4356510
  33.6937189  52.6134062  16.7868102  32.9077959  52.0706081  16.7241406
  33.4878612  53.3933353  16.2714791  60.6229401  67.8054333  11.7787480
  60.7275152  67.7813673  10.8275819  61.0596371  67.0117283  12.0878732
  36.0978508  67.3063421   5.0704157  36.6892147  66.5920877   4.8330125
  35.5060339  67.3859835   4.3223214  35.0225329  26.5085864  25.2715921
  34.8046160  26.7510772  24.3716240  35.0511098  25.5518651  25.2616334
  73.5467567   6.2942555  53.0019950  73.5062387   6.8652060  52.2347903
  74.4073894   5.8789875  52.9463279  49.4175959  63.6085272  16.0872185
  49.2489433  62.6699162  16.1696792  49.4048595  63.7722254  15.1442051
   9.7910579   1.8755533  62.7700477  10.5309924   1.5676286  63.2934153
  10.0922521   1.8043186  61.8642657  64.8987341  42.2816658   8.0681878
  64.0778303  41.8261719   8.2549262  64.7438622  42.7213669   7.2321796
  40.1220417  38.3029628  13.1919801  40.6555939  38.6898923  12.4978304
  40.0727463  38.9832425  13.8635600  39.7539425  71.6262007   3.3707643
  39.7622371  71.4656544   4.3143678  39.3972850  72.5099564   3.2813022
  19.0224131  15.8520081  42.7400338  19.5666369  16.3667300  43.3359539
  18.6809595  16.4913990  42.1148765  62.5963106  24.7318127  56.4938998
  63.0807646  24.1662123  57.0952594  63.2735618  25.1638176  55.9733831
  63.1743185   6.6967971   2.4019100  63.9389674   7.2722537   2.4216451
  63.2185880   6.2113292   3.2256770  42.2024155  35.6352806  17.1470392
  42.6184702  35.3474021  16.3344777  42.1412468  34.8418450  17.6789701
  46.3329887  68.4619808   3.1198427  46.4044428  68.2114601   4.0409106
  45.4465103  68.2021904   2.8690466  21.6974219   8.8242342  62.9049190
  22.0768650   9.1032269  62.0716023  21.3667115   7.9423525  62.7341973
  74.1189422  11.3142588  59.6634882  74.2784550  11.1743834  60.5968809
  74.8932077  11.7857649  59.3562060  45.3341246  39.6119070  18.3349121
  45.4149389  40.3657198  17.7505612  44.4079924  39.3738317  18.2920408
   7.3131961  73.5378599  31.3385916   7.2735393  73.1471729  32.2115278
   7.5279111  74.4570971  31.4971256  23.3063459  57.3650217   0.6070666
  22.5323677  57.8210735   0.9375271  24.0135217  57.6394510   1.1908686
  73.6803569   4.0134146  34.7580325  74.5574071   4.3805411  34.6474325
  73.3558728   3.8951781  33.8653051  50.9148725  13.8987305  61.4932560
  50.7798557  14.7378876  61.9335013  51.2792482  13.3288433  62.1705219
  38.3185172  48.3757353   6.3025618  37.6051831  47.7514029   6.1699134
  38.1192517  48.7924957   7.1409142   8.3757985  62.9849195  25.2197862
   8.6716992  62.9766655  26.1300635   7.6475304  62.3640919  25.1990342
   2.5092171  18.5064227  18.0822694   1.6426895  18.2103641  18.3610344
   2.3470257  19.3404109  17.6413918   3.9826926  16.5914585  43.6040556
   4.2402275  17.4938967  43.4156024   4.2684563  16.0956290  42.8367722
   7.0144757  10.0721695  66.3938794   6.9314750   9.9330523  65.4504870
   7.4216398   9.2693951  66.7194559   5.4698579  47.9931332  63.9612467
   4.8499791  47.6166983  64.5859706   5.1097647  47.7704330  63.1027773
  64.6600000   3.1984718  50.0172710  64.6705715   2.2513587  50.1554585
  63.8147704   3.4819514  50.3657770  59.4164334  57.6264651  63.5243436
  59.0758620  56.9154425  64.0671981  60.3142343  57.7531250  63.8311702
  21.6641355  10.2732933  30.7085752  22.5198364  10.0470209  31.0730004
  21.4471221  11.1141741  31.1111403  34.5167875  44.6900558  11.9771266
  33.9077306  44.5000458  12.6906931  35.3690243  44.4059706  12.3076057
  63.7183523  65.8640385  19.0579152  64.6128368  65.9580326  19.3854749
  63.6135435  66.5851927  18.4372830  59.7882700  33.5912037   9.8272997
  60.4100990  33.4628344  10.5435991  60.0466394  32.9475665   9.1675961
  39.0610194  41.0909462  32.5153971  38.4349489  41.2665844  33.2178354
  39.6178842  41.8691063  32.4907708  45.1801920  50.7068872   8.9720851
  45.2561092  49.8367882   9.3637466  44.8400927  51.2579870   9.6769595
  28.8178086  68.4227991  17.6025975  29.1019988  67.7085257  18.1729293
  28.5725641  67.9922581  16.7836213  54.3000793  46.4618349  12.2007382
  53.5797310  46.6732979  12.7945483  55.0637150  46.3762474  12.7714980
  55.2786970  47.7491093   3.2430625  54.8359823  47.2245979   3.9102390
  55.3031921  47.1836376   2.4711347  31.2802887  21.7193031  13.3657062
  30.8566236  22.3171020  12.7497697  32.1664810  22.0669746  13.4657943
  25.2604556  29.7508335  29.5025206  25.1747942  30.3752995  28.7821484
  25.4838014  28.9231563  29.0767312  19.0299904  17.8912997  10.1973939
  19.9155498  18.2498026  10.1382995  18.6353397  18.3490098  10.9396768
  38.9978886  24.2662430   2.4768077  38.5085440  25.0758553   2.6227513
  39.4834852  24.1299224   3.2903463  43.2472038  26.7729592  23.2901239
  44.1820335  26.8559265  23.1018734  43.2122278  26.3463140  24.1462684
  50.3059761  26.9072349   8.5433549  50.4499714  25.9697253   8.6720979
  49.9576441  26.9762046   7.6544571  10.3154087  56.2765980   6.8313223
  10.8878827  55.5099535   6.8037534   9.5444554  56.0181141   6.3262999
  27.5793004  54.4716883  17.8372014  27.5947189  53.5146284  17.8425884
  27.8863955  54.7210884  18.7088227  12.7632411  10.0675585  54.4811916
  12.4344881   9.5839836  53.7233614  13.4681853   9.5202162  54.8271703
  43.6349726  27.0248318  30.3282785  42.8197098  26.5822077  30.5642080
  44.3220425  26.3981223  30.5549860   5.3938468  25.3406384  63.2026213
   5.3085502  26.0969975  63.7830340   4.9007638  25.5833246  62.4189096
  57.2410011  64.4438076  16.5039384  57.8318977  64.9836445  17.0289612
  56.4138556  64.9255323  16.5028775  51.7847443  64.9001789  36.4725280
  51.1831713  65.6299353  36.3248897  52.4362230  65.2464437  37.0823669
  57.7914190  29.9323964  14.4047272  57.2647429  30.1904678  13.6482584
  58.1604052  30.7531810  14.7309089  57.3412948   9.6998980  59.2718183
  57.8891390   9.1006901  58.7648177  56.6875862   9.1355469  59.6846228
  72.5521986  17.5113780   8.4530264  73.0324260  16.6865356   8.3806396
  71.6516964  17.2483642   8.6431509  25.9657860  58.2338667   1.5689902
  26.0492587  58.8738728   0.8621250  25.9737301  58.7586927   2.3694451
  11.2227209  15.9751417  64.2705971  11.4253004  16.2675478  63.3819508
  10.6167944  16.6350796  64.6076039  36.7423034  69.1531420  30.6704092
  36.3310051  68.4782791  30.1303864  37.0294785  69.8183584  30.0449109
  30.0631928  54.0055799   8.8732851  29.7117090  54.8865747   9.0019000
  30.8206248  53.9623308   9.4569427   5.3947729  60.2530718   5.7618767
   4.5660585  60.2663517   5.2830362   5.5568516  59.3256092   5.9344369
  56.2727451  53.0252409  13.9574254  55.8321142  52.2670412  14.3411100
  56.7827606  53.3957291  14.6777380  44.9015339  10.4650738  57.9274857
  44.2696818   9.7518208  58.0183696  45.1855381  10.4185869  57.0145714
  33.3588743  67.2079563   6.2359053  34.1955328  67.0221949   5.8096099
  33.4465551  66.8294716   7.1107149  63.9534767  29.0072157  53.6732947
  63.4960743  28.3473637  53.1521332  64.8348202  28.6521961  53.7891745
  75.0924818   1.6597945  19.4244766  74.7693197   2.0377881  18.6065996
  74.7425548   0.7688768  19.4313037  53.8329546  23.4048564  14.9974525
  54.0090028  23.4509475  15.9371948  54.1509477  22.5406177  14.7363067
  15.1968563  59.7958660  34.7949791  15.6214476  59.9437857  35.6400084
  15.4770994  60.5338907  34.2536736  27.9076346  23.2861712  47.2519206
  27.6154812  22.5858023  46.6685104  28.8586672  23.3056786  47.1452176
  78.0255711  62.1886587  16.0232270  78.6436129  62.3604774  15.3127813
  78.1109592  61.2505722  16.1933315   3.1679383  64.6481991  39.2386508
   2.4829742  64.9281073  38.6314392   3.4012848  63.7669611  38.9467597
  30.2659811  13.1397350  28.6850762  30.5267582  13.9251430  29.1660833
  29.4145482  12.9046542  29.0539002   2.1208692  55.8234453  22.7326965
   2.3130584  56.5602589  23.3126998   1.4281695  56.1465454  22.1564984
  25.4202088  12.1662905  38.7035906  24.5561560  12.0164683  39.0872490
  25.8105811  12.8474381  39.2511975   7.5392246  50.7364893  18.5898805
   7.5181711  49.9383259  18.0619371   7.4917865  50.4267311  19.4943309
  27.8054055  21.7149451  65.4587129  26.9647320  22.1502974  65.6000026
  27.7946766  20.9718373  66.0619597  51.8733258   0.4690244  41.8870794
  52.0313629   0.8807113  42.7366507  50.9520947   0.2104761  41.9138801
  78.6264612  24.1270211  56.0252904  78.3519842  24.8776247  56.5520614
  78.0527904  23.4143164  56.3066959   6.5963314   2.2364719  10.8725488
   6.0174654   2.9773147  11.0522437   6.4334009   2.0225246   9.9539030
  39.2687941  44.1609526  30.2582645  38.6692548  43.7877846  29.6121001
  38.7050653  44.6652603  30.8448744  39.7229695  62.3799372  11.3063359
  39.1946626  62.2149181  10.5253792  39.6947074  63.3301544  11.4182329
  44.5729256  26.5328169  12.4826634  44.9289083  26.8038964  11.6364813
  43.7058973  26.9368362  12.5182748  27.7096438  42.2342920  24.9147058
  27.4599648  42.4429464  25.8149028  27.4261928  42.9935789  24.4054174
  13.9670285  12.7273848  46.3450348  14.9015625  12.7702143  46.5476202
  13.7235220  13.6313488  46.1455667  51.6051531  76.3137960   8.3563644
  52.1313143  75.9347105   7.6523179  51.8428135  77.2410107   8.3603638
  23.5193419  43.5025215   1.8052034  23.5765314  43.8549376   2.6933277
  24.3881583  43.1383324   1.6356307  13.3446860  59.4349766  10.8739901
  12.5797415  59.9809265  11.0557246  13.7873781  59.3540907  11.7188060
  70.3534327  47.8161914  56.0074174  71.0945855  47.2109116  56.0310816
  69.5815955  47.2500939  56.0133445  38.7826157  37.1569824   6.0035866
  38.1464744  37.8687096   6.0743040  39.6252823  37.5985408   5.8978897
  52.2759740  21.3500030   7.0300269  52.4235598  20.6322486   6.4141703
  53.0172817  21.3037784   7.6338136  28.2562327  34.7367263   4.5412236
  29.1939497  34.8089147   4.3631533  27.8372860  34.9399042   3.7049010
  78.3765994  63.1407113  34.8566281  78.3350811  63.6590524  34.0529930
  77.8256474  63.6171455  35.4776704  80.6219387  24.2942452   5.4094660
  81.5672588  24.2030120   5.5289423  80.5165577  25.1369023   4.9678153
  48.1206004  33.4900100   7.3723543  47.4208275  32.9474742   7.7359545
  47.9476468  33.5048015   6.4310253  13.9073217  73.3419371   7.0793772
  13.1957757  73.5229540   6.4652371  13.5964441  73.6895037   7.9153109
  24.5406683  15.3133156  55.9642660  24.2837056  14.6671726  56.6220670
  24.6770724  14.8019268  55.1667022  72.0903722   4.1637904  19.2129803
  72.4704734   3.3220918  18.9613807  72.7586691   4.8078925  18.9790416
  13.2469904  25.8732581   7.7626610  12.5870037  25.5276465   7.1616596
  14.0816975  25.6986165   7.3279244  31.1435032  64.4496202  16.0044587
  31.0789537  64.9682808  15.2025509  30.3002596  64.0011644  16.0681748
  70.2054520  42.5926404  20.4336155  70.2391227  43.0418401  21.2781990
  71.1029311  42.6355271  20.1035870  38.2060184  26.1491873  55.1689410
  37.3179414  26.0816529  54.8182427  38.6986591  26.6060498  54.4871664
  39.8051643  58.8030672  33.4897447  39.6823907  58.4964466  34.3881536
  39.0062475  58.5370159  33.0345774  34.6995687  55.2053881  37.6342249
  34.3365312  55.4665136  36.7879105  35.1200414  54.3623734  37.4646401
  57.8449631  65.0845385  45.3048229  58.3319378  65.7684755  45.7645178
  58.0387068  65.2334309  44.3793344   4.5555075  20.6889059  58.6855059
   4.3911608  19.9700358  58.0752223   4.7142657  21.4479306  58.1243383
  33.0449581  50.9247017  33.4628248  33.3907056  50.0339413  33.4058809
  32.3389268  50.9493208  32.8169560  15.2856588  53.1499100  22.1812439
  14.4133508  53.4878778  22.3839450  15.5190885  52.6178217  22.9419160
  61.7411757  44.7580290   6.7899120  62.1074247  43.8746309   6.8310827
  60.8043861  44.6225262   6.6474581  67.9130602  30.1328969   0.0166932
  67.2774172  30.2054214   0.7286850  68.6480379  30.6792235   0.2952055
  36.8276691  55.3759241   7.9969740  36.9522357  55.6330061   7.0833963
  35.8861089  55.2230549   8.0765229  28.9546156  64.0441751  19.1368735
  29.8702621  63.7765265  19.0582275  28.6676455  63.6737490  19.9715376
  22.2633505  63.1169844  33.3702922  21.6003752  62.4335861  33.4685731
  23.0262470  62.7799034  33.8399696  50.9399223  61.2169027  23.6385632
  51.8287849  60.9376383  23.4190917  50.4334402  60.4051018  23.6648750
  45.7730818  40.1121330   1.1833636  46.0544872  39.2228103   1.3981828
  46.5883541  40.6029272   1.0799907  50.6714487  70.7769585  20.0419688
  51.5728998  70.9581852  19.7759295  50.6248140  71.0766411  20.9498501
  78.3171282  64.6384640  44.0869796  78.9736376  64.0320320  43.7442409
  77.6504240  64.6821423  43.4015405  26.3469124  34.1348410  27.5451684
  26.9967031  34.2988420  28.2286215  25.7935452  34.9158692  27.5484180
  12.0608624  38.5930540  59.1561228  11.4883979  39.1803314  58.6625450
  12.9223164  39.0083744  59.1156387   7.6646694  26.1618330  60.3010612
   7.3498305  25.3532316  59.8969900   7.9518875  25.8968737  61.1748659
   2.8430992  32.2486115  17.5470209   2.8167874  31.3013339  17.4120879
   3.7284809  32.4203563  17.8677177  50.7436895  46.6303921   4.1200674
  50.8679247  47.3317099   4.7595584  50.1748466  46.0005808   4.5627734
  26.9637275  41.1029673  18.3012092  27.5337577  41.8675900  18.3827686
  26.4212990  41.1234188  19.0896165  30.3279924  43.8354015   3.1220809
  30.5805564  43.2026100   2.4497589  30.9282207  44.5704222   2.9967561
  43.3490181  69.9032116   0.9075970  42.9586935  70.7641554   1.0580958
  42.8885508  69.5621920   0.1408444  52.3868213  53.4525628  57.2598147
  53.2721839  53.8053675  57.1709769  51.8882428  53.8783057  56.5623939
  51.4270926  65.4436636  26.4137697  50.6359816  65.9125757  26.6792822
  51.2113094  64.5195961  26.5393233  55.4856239  73.9140720  42.1841466
  55.2732072  74.4108195  41.3939869  54.7985754  74.1501613  42.8074109
  49.0066282   3.5335738  10.2360129  49.2911712   2.6429565  10.0309241
  49.6413914   3.8452346  10.8811259  46.9109815  69.2634821  20.7917619
  46.9397372  68.8552332  19.9264669  47.6909059  68.9338207  21.2381649
  20.5243897  60.6398344  13.7637925  19.9777603  59.8897648  13.9979398
  21.1503625  60.2911663  13.1291103  37.4319172  42.1927214   9.7066063
  36.4798594  42.0996618   9.7405940  37.5850654  42.8371382   9.0155876
  72.3190987  62.2912264  46.9427776  72.6713484  61.4259243  47.1511221
  72.9613262  62.6736450  46.3448381  72.0438111  72.5682020   3.9389646
  71.9401330  71.7528582   4.4295740  71.3655925  72.5298405   3.2645908
  12.9309833  67.5580359   5.9425133  13.0619168  68.4321356   6.3099885
  13.1591260  67.6504564   5.0175047  24.2564249  38.5387278  21.2538719
  24.6767879  38.7931204  20.4324031  23.9131284  39.3578029  21.6109371
  42.8686237  33.0147672   5.5150390  43.5851145  33.4534550   5.9737647
  43.1746721  32.9372215   4.6114051  23.6802030  53.1077242  33.5916877
  23.2813215  53.2564306  32.7343607  23.9608717  52.1928596  33.5698295
  44.6414423  31.9945383   0.6406663  44.2834044  31.3860965   1.2870693
  44.5280170  31.5471768  -0.1979232  78.5167256  55.0149250  39.4128203
  78.1974271  55.8503056  39.7540236  79.2901677  54.8199797  39.9419832
  47.0343224  10.6804282   7.8887564  47.7985827  10.1043327   7.8730506
  46.3192670  10.1214893   8.1929189  10.9095009   5.1886608  57.5059115
  11.3480576   4.9445250  56.6908675  10.7817682   6.1346581  57.4351072
  80.8629157  39.0618946  40.4240930  80.2661707  39.4348290  41.0729730
  80.4482438  39.2489674  39.5819032  41.5540266   2.8159103   4.6215791
  42.0352459   3.4721953   5.1255137  42.1766949   2.0980114   4.5069712
  26.0210228  47.7953577  13.2941806  25.9752655  46.8838072  13.0057013
  25.2369905  47.9167414  13.8297093  58.3218948  23.9284332   7.9725355
  58.9749877  24.3123252   8.5576224  57.9595391  24.6749217   7.4953747
  71.5643408  32.1820118  60.0866580  70.7911696  32.5586655  59.6664589
  71.7857434  32.8024962  60.7810682  18.4854277  35.2356150  56.3295757
  18.7147387  34.3296768  56.5367478  17.5862416  35.3327610  56.6430467
  10.1858795  66.4684820  17.2191119  10.5523300  66.4686680  16.3348353
  10.6485033  65.7621098  17.6699424  15.4187822  76.3486910  34.4380617
  15.5966246  77.1658373  33.9723682  16.1229408  76.2824488  35.0830460
  76.5284350  10.6909325  31.9568693  75.9693076  10.1640370  31.3859117
  76.1620118  10.5662253  32.8323185  49.2067528  50.8583975  14.4824255
  48.9380646  51.4080334  13.7462616  48.7607813  51.2376118  15.2397513
  68.9283329  28.3685851   3.9798185  69.5330507  28.8266087   4.5635685
  68.4174424  29.0660763   3.5690534  31.4146209  48.6910963  38.0729508
  30.7437468  48.0887699  38.3944535  32.1736789  48.1341028  37.9002619
  10.5745888  71.0049343  11.0261714  10.8697033  70.2097750  10.5824804
  10.5524313  71.6693258  10.3374588  22.6184225  44.9755716  20.9414744
  22.6626301  45.9105349  21.1417651  23.0385137  44.8939180  20.0852680
  39.3560219  48.9049482  21.3575602  38.4111881  48.9377308  21.2077308
  39.4454336  48.5752916  22.2517419  60.6366730  10.6946003   0.3138706
  59.8206043  10.5505288   0.7929359  60.3775787  10.6895065  -0.6075819
  21.6102513  27.8681996  62.3758685  22.0387991  27.0218374  62.5033345
  20.7281550  27.6474049  62.0768940  30.2365470  50.0772047   7.8342539
  30.0464344  50.1465654   8.7698168  31.1810470  50.2189827   7.7706206
  57.9250097  70.8631706  35.9963942  58.6229610  71.1086893  36.6036987
  57.3735857  71.6433430  35.9372139  18.7629437  66.1531258  24.6984577
  17.8664899  66.3942719  24.9318004  18.6631489  65.4259586  24.0840459
  24.2710805  73.4478712  16.1267757  24.2649078  73.6692142  17.0580113
  24.1151452  74.2807674  15.6815803  74.4683353   9.8647887  22.5398064
  74.9955217   9.2024429  22.9865742  74.6904413   9.7634132  21.6142678
  50.1503897  50.1381731  10.7608795  50.9454346  50.1861286  10.2300000
  49.5266581  50.7073307  10.3100419  55.4337311  60.6096029  10.2634454
  55.6176662  61.4488268   9.8414260  54.5587730  60.3733110   9.9554628
  15.6825026  36.1085608  54.0987467  15.2711209  35.7370474  53.3183789
  15.3039559  36.9844010  54.1751253  18.2289894   7.6034357  38.7098991
  17.2797068   7.5285675  38.8073480  18.4241351   7.1349385  37.8983223
  20.6063914  48.5665655  43.2282639  20.5505800  48.8359785  42.3114586
  20.4179907  49.3634462  43.7239647  63.9235067  50.8943319  10.0455916
  63.7802267  51.8102074   9.8071110  63.0625772  50.5817270  10.3236341
  24.5214375  41.4581492  64.2989365  24.5406111  42.1603873  63.6487668
  25.4218586  41.1347582  64.3288199  30.7666157   8.2983596   8.2218975
  30.5412529   8.5381324   9.1207588  30.0973270   7.6626498   7.9686111
  29.2053390  71.6268492  12.0826864  28.3471298  71.8829870  11.7448986
  29.7648883  71.5839720  11.3072538  70.6234733  27.2939975   7.9812849
  71.5785543  27.2678001   7.9232699  70.3625003  27.9537780   7.3387712
  26.6193199  72.4234009   0.3097789  27.3209906  72.7133894   0.8927020
  25.8269262  72.4758863   0.8441857  77.9869072  13.1590564  28.6803555
  78.5614387  13.7416179  28.1835866  77.4435321  12.7350147  28.0161548
  36.7514253  74.7992992  25.2630115  36.7660570  74.9000025  26.2147856
  37.0272231  75.6523514  24.9276400  16.6135001  70.4529524  19.9196398
  16.7879927  70.9489012  20.7195258  16.9489849  69.5755911  20.1038218
  59.9547491  73.8883419  57.4907243  59.4003401  74.1952915  58.2081115
  59.4535981  74.0856452  56.6994273  73.3960573  10.9312827  34.0016294
  72.4388878  10.9387977  34.0041375  73.6431877  11.7734248  34.3836761
  59.1942644  39.2714071  12.8890073  59.4690704  38.8326836  13.6941385
  58.2762957  39.4965458  13.0402553  75.1919738   6.8075664   2.4440727
  74.7033970   6.7009933   3.2602638  75.4249708   7.7357585   2.4238557
  14.2163134  73.0237865  14.4434917  14.8042858  73.7151623  14.1393185
  14.2094934  72.3845482  13.7310600  26.8775153  45.6369162  19.5786214
  27.5366044  46.0645962  19.0318811  27.3302865  44.8809242  19.9523890
  45.0278187  73.1442833   7.3682964  45.3485394  74.0016699   7.0885497
  44.6143627  72.7766848   6.5871716  12.5485047  22.5743201  62.5500449
  13.2189186  23.0618050  62.0713642  12.1329554  22.0238068  61.8863543
  27.5289144  29.4635015   0.3553474  27.5201168  29.7744184  -0.5499088
  28.3748951  29.7506433   0.6990040  16.6677960  10.5497553  65.5020733
  16.0649546   9.8227741  65.3461402  16.9380244  10.8286860  64.6271988
  62.8890745   2.7625806  14.8789203  62.5290577   3.2624967  14.1463196
  62.5208561   3.1799943  15.6576467  37.0566797  64.8237610   9.8177403
  37.3757076  64.1385317  10.4050362  37.6801157  65.5418921   9.9265945
  61.0150925  22.3540122  21.1686397  60.5333058  21.5287788  21.1128807
  61.1975781  22.5867946  20.2582860  80.2772085  13.6958320  13.5518086
  80.4363767  13.3714492  12.6654243  80.1900903  12.9051120  14.0841782
  46.6760588  71.2213612  22.6358962  46.2449741  70.7145786  23.3240581
  46.7300081  70.6196547  21.8934226  63.0544297  14.9132068  34.8660088
  63.4404461  15.7368095  34.5678377  62.1659748  15.1481731  35.1337194
  39.5302725  51.2403202  15.7608593  39.4064522  52.0358992  16.2784970
  39.3727016  51.5152931  14.8576474  22.6550698  59.5349646  23.0716109
  22.5869918  60.4749537  23.2389855  22.6880360  59.4633150  22.1176648
  24.6571779  40.5056858  16.6572797  24.9463797  40.7545996  15.7794213
  25.2487755  40.9741449  17.2461665  66.7669596  18.2081368  61.2009459
  66.4014747  19.0837242  61.0744571  67.7134909  18.3309510  61.1286437
  38.6650864  41.6807563  12.5249517  38.2695214  41.5357215  13.3844435
  38.0509774  42.2596080  12.0732546  79.1035414  67.1588564  44.2440271
  79.1756725  66.2296152  44.4620609  78.6930847  67.1708345  43.3793783
  64.2722265   2.9225833  11.4223790  65.0621454   2.9318626  11.9629109
  64.0024201   3.8398368  11.3767886  32.2903991  63.1588507  32.5763869
  32.7077055  63.3425474  33.4180164  32.7657890  62.4021339  32.2334385
  50.1522986  23.4118564  38.6000752  49.6044437  22.9739196  37.9486918
  50.3872959  24.2459876  38.1935883  44.8244143  58.1017876  16.3317549
  44.5988703  57.1923685  16.1360133  44.4836044  58.5985184  15.5878866
  64.9060059  62.3107862  19.0237498  65.8493137  62.2687531  18.8667846
  64.8243999  62.3821974  19.9747884  76.0792152   3.1288488  42.5407743
  76.3967458   2.2671373  42.2708511  75.6436054   3.4779460  41.7632103
  12.5997160   1.6062124   9.9676496  11.9802998   0.9717090   9.6071488
  12.6512335   2.2942168   9.3041551  76.6775123   7.3347480  36.2066007
  76.4830391   8.0841644  35.6437659  75.9862987   7.3466785  36.8686509
   4.2160851  60.1011229  11.4053571   3.7256295  60.8530664  11.7374229
   3.8601261  59.9507999  10.5296123  48.2498219   9.4517090  52.5212943
  48.7861391  10.0396588  51.9894015  47.4189647   9.3929817  52.0496380
   2.7943856  39.7144079  12.3867774   3.2696015  40.5436802  12.4388540
   3.1584030  39.1848016  13.0961716  40.5938244  76.6870785  24.4694614
  40.3189039  77.2434282  25.1982450  40.9769630  75.9161568  24.8879266
  10.5061515  30.5698540  26.6961181  10.4055794  31.2492611  27.3628413
  10.2077874  29.7676565  27.1247088  57.9703283  43.1670761  10.8970296
  57.4878073  42.3781252  11.1439300  58.4693050  42.9098654  10.1217282
  77.7423694  59.5398619  57.6307600  77.2449305  59.3773844  58.4322506
  78.2495763  58.7391569  57.4971914  47.4999380  31.4941812   0.7794630
  47.8095436  32.3115635   0.3892569  46.5726471  31.6503143   0.9583096
  72.7455044  59.0127325   4.8923847  72.7726269  59.9612665   4.7667712
  71.8487453  58.8341665   5.1755166  23.2677420  56.9961836  64.3515634
  23.0529555  56.2253096  64.8767828  23.4251030  56.6509821  63.4727543
  55.5959702  46.2287951   6.8828738  56.2407970  46.8752527   7.1701372
  56.0991096  45.4223204   6.7702764  15.5852278  69.4726565  63.2032060
  14.9756869  70.0834944  63.6174184  16.4493140  69.7587111  63.4994408
  77.5918190   4.2258174  39.6831369  77.7088873   5.1015670  39.3148947
  76.6932146   4.2228133  40.0128841  64.7085190  59.6599817  19.2109323
  64.6063995  60.6039762  19.3320739  64.7003174  59.5380640  18.2615638
  65.3592692  74.3297787  34.4093835  65.5237184  73.3868570  34.4187176
  65.6868229  74.6216197  33.5586369  11.3416439  32.7045059  16.1490464
  10.5853611  32.1641731  15.9203339  11.1751992  32.9802299  17.0504355
  15.0809725  33.6085894  48.0087673  15.2213152  34.3889382  47.4724900
  14.2446192  33.7662508  48.4468197  72.0176172  53.3413744   3.6957270
  72.4890471  53.1591845   2.8828353  71.6778469  54.2289591   3.5817838
  47.4751806  62.8168440  62.0419645  48.3636284  62.6159191  62.3361158
  47.1710253  63.4953880  62.6447058  19.2935753  62.5941753  29.6195936
  19.1434228  63.0674028  30.4379702  20.2231956  62.3670912  29.6413255
  72.2632360  10.3187859  24.1976166  72.8942490   9.9224919  23.5967779
  71.7793798  10.9443820  23.6584091  17.3346194  40.6039860  46.2202990
  16.4574965  40.7187989  46.5859520  17.7346524  41.4715006  46.2805068
  69.8748819   5.3305442   7.9472482  69.4478027   4.8789127   8.6751628
  69.5592777   6.2322719   8.0066013   5.1820882  12.4210837  66.1169744
   5.4686578  11.5078976  66.1312686   4.6573981  12.4950077  65.3198111
  60.5426168  63.2213783  39.4709921  59.8373652  62.5850677  39.3528342
  60.9821320  62.9451990  40.2752209  73.7686197  23.1720836  38.7256312
  73.2141391  23.0030830  37.9639077  73.2414047  23.7439830  39.2834926
  16.1333474  49.6419146  47.7880966  15.2242430  49.3960764  47.6168704
  16.6384037  48.8585284  47.5702619  23.7175727  72.2275400  12.6098824
  23.9684439  71.3105917  12.4981093  24.4798017  72.7226925  12.3097718
   4.2305454  56.9111826  65.3443843   3.7156447  56.3107302  64.8053430
   4.2998250  56.4724161  66.1922735   7.8092049  13.5493190  15.7593560
   8.4737776  13.9226157  16.3383389   7.0748136  13.3447940  16.3382101
  76.6712276  14.4449241   4.9477375  77.1144382  14.0470702   4.1984007
  77.3484222  14.9683196   5.3763372  47.8129482  51.3940811  16.8484974
  48.1927967  50.8098936  17.5047517  46.8676376  51.2748289  16.9401562
   7.7120384  50.1615336  47.5209605   8.0229863  50.0132372  46.6279041
   7.3352702  49.3224146  47.7858328  52.8569078  28.3116865   7.0540726
  53.1017494  28.0328584   6.1717236  52.0488405  27.8337502   7.2407073
  64.6298742  58.1538153  26.2396240  63.7924576  57.7669096  26.4951134
  64.7988367  58.8203716  26.9054937  25.9672211   3.7514598  11.6517305
  26.6677235   4.0809161  11.0887098  25.7083605   2.9215152  11.2512016
  47.9715339  20.2672679   9.1045630  48.4661905  19.4637210   8.9437664
  48.1912319  20.8355529   8.3663094  43.6640072  52.7798700  24.8116088
  42.7515745  52.6793909  24.5403194  43.8355732  53.7182093  24.7321129
  18.5543631   7.3020751  17.0550275  18.4960316   7.7848918  16.2305784
  17.7539967   6.7777927  17.0826983  39.5667934  67.3583698  40.3558588
  40.2800941  66.9372272  39.8761988  39.0110588  67.7371979  39.6747708
  41.7152691  40.9571266  35.1381564  41.1112833  40.2167606  35.1955128
  42.5702953  40.5569983  34.9798489  48.5603873  14.8846538   7.8060079
  49.0685932  14.3062980   8.3747441  47.9880230  14.2951972   7.3149192
  16.6326106  49.2579699  28.1240582  16.1366928  48.5060072  28.4478617
  17.5493288  49.0089941  28.2418275  38.6813362  11.9756653  65.7303388
  38.3732422  12.6521971  66.3333439  37.9902657  11.3134243  65.7400388
  25.2850699  70.1400805  23.4048915  25.8152223  70.0898933  22.6094961
  24.7492218  70.9243488  23.2864833  28.4910057  16.6502387  37.6752090
  29.1192005  17.3027045  37.3655486  28.5552643  16.6898734  38.6294270
  60.6324879  12.5340469  52.1907711  60.0935022  11.7718227  52.4022865
  60.2824537  12.8513248  51.3582802  18.1107052  51.4440825  66.0155715
  17.6163109  50.7331278  65.6077054  18.2237872  52.0886614  65.3170295
  24.6607693  17.2706749  52.3446178  23.7892397  16.8792679  52.2857105
  25.2328738  16.5449764  52.5941944  80.7181644  72.4270058  21.1959434
  79.8523760  72.2116709  20.8491349  80.7898235  73.3755302  21.0891533
  39.8736477  76.7685127  13.8376558  40.7909870  77.0402908  13.8083208
  39.8557067  76.0542536  14.4746351  72.3542253  33.0035789   9.6825743
  71.5420715  33.0318172  10.1883793  72.0701782  32.8471954   8.7819660
  52.3862267  19.6507585   2.1669407  52.1413755  19.7426689   3.0877194
  51.9499493  20.3815794   1.7289940  46.7352152  55.2952242  26.4507174
  46.4139986  55.1341534  25.5635262  46.5374804  54.4888830  26.9271088
   6.2123630  14.1634471   3.0638936   5.7829330  15.0177676   3.0196154
   5.6165550  13.6224658   3.5821450  54.2448012  24.4219882   6.9396847
  53.7063138  24.0986736   7.6619941  53.6156837  24.7811897   6.3140506
  78.0929462   2.1988685  12.3719060  78.6537305   2.7653701  12.9018414
  77.3428527   2.7486474  12.1453309  59.3509388  57.1732712  27.6587939
  58.7967682  56.5460348  28.1232262  58.8811064  57.3504829  26.8438792
  58.0018489  34.7468765  15.4268003  57.3014967  35.2903182  15.7879329
  57.5456516  34.0619666  14.9379182  59.1798917  -0.1749556   6.1257786
  59.4791857  -0.0243228   5.2291375  58.8808958   0.6834085   6.4258635
  39.6801329  35.3099298  18.4973764  38.8743377  35.5430222  18.0362976
  40.3790712  35.6905389  17.9655325  55.1812410  38.4161663  13.9656234
  54.7017288  39.2061472  13.7161589  55.9915590  38.7416124  14.3576682
  74.1046296  68.8036079  62.6566678  74.6369610  68.4057088  63.3455291
  73.8887082  69.6733398  62.9930853  43.9964382   8.4243018  35.9934616
  44.1989175   8.7325484  36.8767619  44.3435971   9.1048915  35.4168272
  15.2173517  46.6581256   4.1947156  14.8336981  47.0519645   4.9782580
  14.6619080  45.9005363   4.0109429  15.0877378  23.8992603   8.8832498
  14.8963259  23.0980975   9.3708390  15.2783916  24.5506484   9.5582062
  17.1952160  38.6865809  57.1870768  17.7484711  39.2482378  57.7299237
  17.3238810  37.8074600  57.5432008  43.3542637  15.5660636   9.9868983
  44.0241710  15.8862312   9.3827879  42.5275771  15.7118327   9.5269263
  44.4949436  74.7442818   4.0607747  44.4943380  75.5150032   3.4931299
  44.5334148  74.0023327   3.4572318  81.3092518  70.9524727  10.6583953
  81.3302803  71.8432570  10.3086925  80.5453777  70.5506659  10.2445328
  44.0275335  66.7556763  23.4215760  44.8498583  66.3586521  23.7085938
  43.7482738  66.2186575  22.6800537  62.9456806  75.4339170  19.2728174
  63.5948706  75.0079155  18.7130821  63.3331347  75.4128218  20.1478386
  41.9736767  44.6246529  34.3434334  42.0427132  44.3158913  35.2468348
  41.2862349  45.2902126  34.3696666  -0.1114982  53.8085651   5.3904915
   0.7917076  53.5751629   5.1760679  -0.0377029  54.3623590   6.1677271
  63.4019677  17.0649535  40.5062485  63.3900849  18.0218894  40.4874229
  64.2397110  16.8437774  40.9130716  40.3409100  74.1427517  20.5851984
  39.8745394  73.7191343  21.3058090  39.7796512  74.0041161  19.8223114
   1.1491330  20.4107382  59.0130066   1.0422643  21.1758997  58.4479087
   1.5553912  20.7552149  59.8083174  23.3460959  20.8499005  58.3440470
  23.5904272  20.4197743  57.5245821  22.5213106  21.2931158  58.1452566
  52.2770071  32.0044541  17.2261226  51.3990021  31.8581724  17.5781763
  52.6844358  31.1383080  17.2311246  28.6901520   0.7228143  45.9972715
  29.0617035   0.3676278  46.8047523  29.1560505   1.5479524  45.8619308
  50.6224108  66.7214823  17.0265341  49.7994566  66.2627363  17.1954441
  50.3551197  67.5899792  16.7257106  15.3556210  68.3949518  11.4723718
  14.9098545  68.8669777  12.1757293  14.7978836  68.5253191  10.7054508
  11.1106926  60.1495266   2.7860790  11.4210278  61.0531521   2.7278817
  10.3272301  60.1294851   2.2365069  41.3498068  51.6142559   6.2947851
  41.1603403  51.3122177   7.1831024  40.6300688  51.2697744   5.7660639
  43.2735586  37.8828788  18.3220994  43.0185747  37.0697260  18.7579882
  43.1510353  37.7035213  17.3898709  42.1376562  67.0119858  33.9047956
  41.8821764  67.8536701  34.2823243  43.0210495  66.8576145  34.2394853
  68.6740208  61.7383862   9.2000788  68.8024426  61.5974426  10.1380956
  68.2605743  62.5997162   9.1416925  65.5828800  26.0572006  62.4365031
  65.3563191  25.6868555  61.5834236  66.1210026  26.8215468  62.2305083
  46.6409969  51.9813442  34.5257926  45.9733629  51.7633867  33.8754129
  46.7416334  51.1821127  35.0428367  27.2735071  48.3419275   3.0085209
  27.7424955  48.8269377   2.3295152  27.7600074  47.5223160   3.0967507
  42.3287503  72.5352020  50.6810390  43.1912343  72.1459360  50.8253800
  42.5143830  73.3980865  50.3106248  62.8120271  17.2358615  13.8903689
  63.0945961  16.5195567  14.4589567  62.1860711  16.8319137  13.2893395
  51.6412592  64.1965151  18.3742452  52.0623875  64.8914194  17.8682828
  50.9184647  63.9013958  17.8204381  69.9752140  26.2073922   2.6443362
  70.4963732  26.4674020   1.8847194  69.8022366  27.0267749   3.1079373
  67.4914026  41.6175699  26.5529370  68.0058527  41.7254543  27.3528981
  68.1094551  41.2561703  25.9176183   4.4340261  63.5486605  43.0788195
   4.5238527  64.2607500  43.7121403   3.5354193  63.2390787  43.1923615
  23.6737450  12.3937037  43.7657392  22.7599200  12.1248581  43.6714828
  24.0253886  12.3631480  42.8759944  76.3322308  41.3388397  56.1437606
  76.3278081  40.3953364  55.9824824  77.2599461  41.5733292  56.1680507
  26.6742373  68.4252739  11.1797905  25.9821773  67.9260015  10.7461846
  26.2628436  68.7642336  11.9748342  38.0058146  67.9804564  28.0529642
  37.4676108  68.7425280  28.2670045  38.9003611  68.2546043  28.2550979
   0.9367416  21.5868671  18.3155572   0.5656765  21.0496623  19.0155244
   1.7659185  21.9055278  18.6721516  81.0250179   6.1859042  33.7619805
  80.9918348   5.2912242  33.4233356  80.7664148   6.7325885  33.0200243
   8.0393656  45.6863024  61.1344540   8.1474312  44.9073889  61.6802024
   7.0915039  45.7938959  61.0556167  45.5437231  69.0651846  35.1179242
  45.6602716  68.8093615  34.2029381  45.7004738  70.0094366  35.1244473
  44.7558498  74.1207695  -0.0724756  44.2853069  73.7972498   0.6957386
  45.6339979  73.7489843   0.0103997  33.2460570  55.5185127   7.7993089
  32.5548935  56.1636162   7.6497644  33.0579543  54.8170519   7.1757680
  68.6196987  18.2717902  10.6164694  67.8184930  17.9748542  10.1850402
  69.0725271  17.4650581  10.8621621  66.4473200  74.0977716  25.9382629
  66.9993973  74.8560429  26.1292219  66.7056322  73.8294077  25.0565124
  45.7138101   5.6630523  20.1429129  46.4202348   5.3374774  20.7007623
  44.9140851   5.4711063  20.6326365  72.6443386  61.3055944   9.5507091
  72.6320124  60.9137344  10.4239368  72.8538895  60.5782938   8.9647478
  62.1280106  10.7370713  53.5296618  61.2679871  11.1357643  53.3968746
  62.7434548  11.4670470  53.4619009  53.6120939  60.9727907  23.4351277
  53.6973858  61.6680717  24.0874600  54.0349960  60.2139950  23.8371444
  24.6293447  11.9832618  30.9049916  24.8863981  12.4198539  30.0928736
  24.0377233  12.6022727  31.3328171  76.7975187  72.8158092   0.8718254
  75.8921862  73.0677080   1.0539190  76.7250252  72.1080732   0.2314449
  17.1618994  50.9321501  57.1272605  17.9892500  51.0385039  57.5967359
  17.1019371  49.9920275  56.9575607  47.9876900  72.9007864  29.5749283
  48.7702370  72.4215412  29.3025708  47.8356647  73.5310984  28.8707805
  13.6149404   4.0476997   8.2893687  14.3145273   3.4739501   7.9769266
  14.0190599   4.9141032   8.3369821   8.3483464  31.8713093  36.2215352
   8.2895047  31.0361075  36.6854382   8.2768494  32.5329757  36.9095159
  61.9086790  47.3361063   9.7144866  61.1992741  47.4752235   9.0870887
  62.6721668  47.1371794   9.1725087  21.9327829  23.4843833  14.3600273
  22.3116444  23.4375770  15.2378106  21.3971231  22.6943786  14.2879176
  16.6060722  72.0544767  22.3148561  16.6989374  72.8246498  22.8756118
  15.6783664  71.8260670  22.3733568  72.0583010  54.9157429  30.4767060
  71.7235804  55.8040810  30.3540468  71.3165045  54.4274712  30.8338594
   2.6252323  60.7252359  26.5890837   2.1781689  61.0531521  27.3693633
   2.5847393  61.4514780  25.9668589  59.4598786  13.0971439  36.8470073
  59.2775885  12.1817596  37.0593166  60.2919547  13.2828338  37.2822046
  16.2229955  67.5157356  24.6638703  16.3130438  68.4686708  24.6697354
  15.3526211  67.3596525  24.2973733  58.7495653   2.7491052   3.2042643
  58.9903466   3.6579234   3.0245060  58.8583604   2.6552016   4.1506135
  77.1843330  12.2549827  43.0133724  77.5372974  11.8639762  43.8125992
  77.6704113  13.0733497  42.9122257   9.3533800  28.4645660  13.7202108
   9.5674656  28.2517154  14.6285570   8.3976887  28.4250076  13.6837935
  47.7338854  16.0294540  25.6298041  48.3798377  15.5729110  26.1688256
  48.2429830  16.4019401  24.9098659  54.9230281  16.2317664   0.1741385
  55.1031677  15.2923877   0.1373157  54.7780625  16.4116103   1.1030478
  15.7367371  31.0572536  20.4870057  15.2725742  30.4224403  21.0327125
  16.6311882  30.7202632  20.4356718  42.4765158  63.2068443  15.7438874
  42.5662041  64.0188646  16.2426925  42.8409290  63.4130144  14.8831141
  37.3523545  76.2072897  29.3864822  36.7508483  75.5420828  29.0519357
  37.0401931  76.3883257  30.2730584  41.7094755  60.6620407  26.7336845
  41.8902731  60.4981756  27.6592612  41.8691206  59.8207760  26.3058710
  38.4473999  20.9130480  62.4633008  37.6171358  21.1712172  62.8636017
  38.7971123  20.2415612  63.0489954  70.3766495  24.3663907  23.1638622
  70.7050294  24.1099000  22.3021126  69.7112983  25.0292563  22.9790688
   3.6073240   6.2370064  51.6911876   3.0984243   6.7590143  51.0708951
   4.3604763   5.9313442  51.1856544  28.8706541  26.3843799  28.9014459
  28.4576821  27.2479033  28.9051604  28.6892223  26.0358715  28.0286026
   5.9644707   7.4827196  54.7412014   6.2668999   6.7786553  54.1675579
   6.6180929   7.5201657  55.4394912   9.5864540   2.2025946  26.8897104
   9.6463263   1.2835498  26.6289353   9.8067331   2.6913989  26.0967541
   0.8919589  33.0893345  56.7078119  -0.0428756  33.2876260  56.7625445
   1.0733144  33.0473090  55.7688891  50.2821255  30.4740667   4.1246483
  51.2310171  30.3489423   4.1111204  50.1511383  31.3517380   3.7658042
  31.9252690  20.8417990  42.5574481  31.5423878  21.6253855  42.1629631
  31.6957529  20.9038546  43.4846508  18.3277214  22.7001977  26.4562988
  18.6060333  21.7843699  26.4621329  18.2610381  22.9243517  25.5281067
   4.3481318  49.9127431  43.2703125   3.9873664  50.3884442  44.0185034
   5.2793996  49.8206038  43.4715139  70.6998175  40.2640581   5.2338994
  70.9021252  40.5189371   4.3337095  69.9306923  39.6996164   5.1559138
  15.6693590  25.8723474  10.6889570  15.6673050  26.8192983  10.8286381
  15.2384555  25.5147910  11.4653003  78.3765843  71.0502403  20.9287167
  77.8157713  71.2084757  21.6881132  77.8617885  71.3576614  20.1825881
   8.3652600  45.8604901   2.3314506   7.9785832  46.0952847   1.4878970
   9.2391666  46.2505048   2.3111965  42.7148151  23.4429312   9.1577804
  43.3264875  24.1543508   9.3474334  42.7676201  22.8711152   9.9235940
  20.9453058  30.6950212   9.1386992  20.5535460  30.0228548   9.6963263
  20.2122664  31.0409832   8.6295897  15.3310990  40.5695486  28.3750439
  14.5430839  40.6751156  27.8420162  15.6032932  41.4640713  28.5799050
  31.9434977  35.1485634  17.5239134  31.6528130  34.3742013  17.0421481
  31.3219690  35.2277279  18.2475615  50.7045364  12.5162601  23.3151031
  50.5739450  12.7522922  22.3966980  51.0891247  11.6402400  23.2849073
  61.3892184  65.9273810  40.8272063  60.9880219  65.0847645  40.6144344
  61.6206680  65.8554335  41.7532122  64.1553364  37.4599538  48.3512067
  63.8332305  36.9592938  47.6016616  64.7377358  36.8551206  48.8107955
  12.7361333  18.3821154  15.0993502  12.8547251  19.3315268  15.1273906
  11.8547976  18.2405210  15.4449391  26.4814401   6.7157412  16.4449537
  27.2577810   7.0803148  16.0199678  26.1970568   6.0122699  15.8614421
  75.7278444   0.9002616  65.3151322  76.1059477   1.4998176  65.9584065
  76.4844586   0.4874685  64.8987549  35.7148266  41.6030025   6.3495648
  35.6546712  41.2510347   5.4614586  35.5322123  40.8540010   6.9169158
  73.4954109  69.7121762  15.0997400  73.8359298  68.9193671  15.5141461
  73.1247713  70.2195900  15.8218133  73.9472723  42.0948076   7.8523904
  74.6740961  41.4765930   7.9283530  73.1652784  41.5433216   7.8283948
  28.1040192  17.8122103   0.7677745  28.3570433  18.6005819   1.2480681
  27.4243236  18.1083834   0.1623615  38.4292150  30.2114105  20.7085609
  39.2692423  29.7645259  20.8128738  37.9543424  29.6822095  20.0677228
  45.8352137  19.0316820  20.8667636  46.2246466  18.7806046  21.7043400
  44.9346209  19.2724872  21.0839605  57.8841672  57.1952589  43.3778131
  58.6408601  57.2249753  43.9632737  58.0860482  56.4916785  42.7610075
  23.7494206  57.5999641  28.3481240  23.2202959  58.2775450  27.9272413
  23.6630940  56.8381929  27.7749872  37.3991118  71.9395514  53.3578455
  37.6186488  71.2083192  53.9351975  38.0934391  71.9412990  52.6989543
  20.8454712   4.5648434  50.0731396  20.0319155   4.4674208  50.5679833
  20.9908732   3.7045243  49.6795153   6.6890105  10.6257679  63.1175154
   6.3419565  10.3174307  62.2804293   7.3108228  11.3137057  62.8801932
  22.3629475  49.8918581  14.9925983  21.4269590  49.8053026  14.8118711
  22.6582289  50.5836248  14.4005692  30.6679201  22.8159380   0.8156923
  29.9429297  22.9512286   0.2055156  30.3126669  23.0653405   1.6688192
  52.4711619  47.4623675  61.2378728  52.0858083  47.6264198  62.0985820
  52.2137080  46.5648068  61.0273188   9.6053886  29.8674226   2.1854240
   9.2990917  30.7050920   2.5328791   8.8453043  29.2891693   2.2496437
  48.3889723  70.6446171  13.8035476  47.4510336  70.5199766  13.9483476
  48.6946535  71.0970545  14.5897377  78.7059643  -0.1719353  64.0640175
  79.0126993   0.0234940  63.1786066  79.0651776   0.5328657  64.6029563
  14.1118916   4.5008948  65.8907263  14.4941243   4.5111086  66.7682379
  14.7411784   4.9779989  65.3498009  12.3376572  39.5649219   6.2778872
  12.5210619  39.8601913   7.1697450  13.2013440  39.4358993   5.8859318
  33.9340711  32.0035028   9.9611330  34.0250897  31.0510731   9.9324149
  34.2434001  32.2995877   9.1050488   8.9203584  65.0785303   4.9180350
   8.5108268  64.2559099   5.1860207   8.9155114  65.6173611   5.7091522
  62.7673912  41.5651417  16.4078307  62.7885532  42.3725271  15.8941007
  61.8468142  41.3029337  16.4040911  64.2818832  21.5344810   5.6366265
  64.8503542  21.1914039   6.3260990  64.8851585  21.8790340   4.9781612
   7.4747068  36.9808984   3.7999269   6.6442001  37.3548245   3.5055313
   8.1390262  37.5910616   3.4795928  18.5925007  35.5741835   4.9801576
  19.4087160  35.4585838   4.4936809  18.4442496  36.5198302   4.9779755
  21.9437480   9.4011837   6.8651724  22.0522356   9.2898810   7.8096694
  21.3137174  10.1166475   6.7791194  57.9396667  30.4474785  62.7254694
  58.3871009  30.1738121  63.5261833  58.0221008  31.4011004  62.7190086
  80.9522655   4.5165255  62.8566113  80.6798484   4.7734120  61.9756850
  81.5809228   5.1891281  63.1185901  18.0437338  23.6202240  23.9249301
  17.1444535  23.3824849  23.6990809  18.5709667  23.2743955  23.2047486
  52.3678541  19.8917937  12.3064411  52.5889015  20.8071208  12.1345437
  52.0046329  19.5738149  11.4798880  81.3442375  22.6387455  54.3229269
  80.7173326  23.1782915  53.8411462  81.3149740  22.9784777  55.2173304
  12.9871213  22.5951862  12.3009682  13.0056882  23.0806446  11.4762151
  12.4111068  21.8505955  12.1277010   2.8158291   3.7406685  64.6372963
   3.6819275   3.4237149  64.8935149   2.9082688   4.6929457  64.6080470
  53.9861522  32.6141889  64.1191372  53.4084187  31.9007785  64.3902459
  53.5647974  32.9814811  63.3420988   8.4402329   6.7109072  22.6307154
   8.9569241   7.3564816  22.1485376   8.2151848   7.1489513  23.4515095
  13.4893950   4.4297602  38.3321535  12.8132995   3.9393904  38.7997686
  13.3938845   4.1583874  37.4192082  30.2489377  60.8355064  65.9236903
  29.6942900  60.2026958  66.3799237  29.8135782  61.6771216  66.0592583
  64.8620749  36.5254354  18.2967913  64.5928240  37.4076962  18.0411458
  65.7683134  36.6264987  18.5879052  43.5706749  16.0831454  61.8789696
  43.8996687  15.2914002  62.3045629  42.9108383  16.4233353  62.4832195
  61.2573814  19.9381840  16.1773205  60.7121944  20.3234100  16.8633270
  61.2293863  20.5750251  15.4632604  26.0435343  17.2355902   3.8969797
  25.6435347  18.0282760   3.5393745  26.1386108  17.4162352   4.8321590
   2.3703734  60.1349945  58.0966901   1.4838473  59.9524493  58.4081166
   2.3313252  59.9725790  57.1541786  27.7015686  26.1161828  21.6235709
  27.1420741  26.5945315  22.2354388  28.0603838  25.3950620  22.1407437
  53.1758308  40.0347376  10.5233252  52.8958893  39.2341852  10.9671485
  52.8228569  39.9533463   9.6373135   9.1076773   0.9941259   3.8631037
   8.3355814   1.3947555   4.2625976   9.4098395   1.6404811   3.2250166
  36.1814793  16.1865380  59.1389423  36.1243733  15.3703263  58.6421865
  35.4412230  16.1505368  59.7447085  47.1607208  29.1034389   6.2276351
  47.9005241  28.5040188   6.1295772  47.0204639  29.4565320   5.3490651
  65.0991831  60.5641027  57.2093909  64.3854032  60.9928675  56.7372560
  64.8736725  59.6340222  57.1912580  34.4708975  25.2754881  34.5250928
  33.8949402  25.2552416  35.2893531  34.9237164  26.1164047  34.5886456
  12.3167006  49.6604497  55.6501066  12.9452531  50.3437026  55.4170405
  11.5040127  49.9256308  55.2194654   9.1630250  27.1525359  42.9939222
   8.5200894  26.5770650  43.4082890   8.9385331  28.0282497  43.3085012
  80.3616629  62.1064777  46.3517510  80.0069533  61.2545152  46.6058599
  79.9387274  62.7282972  46.9439470  37.0043993  39.3434644  16.8650949
  36.3904619  38.8806868  17.4353147  37.8624058  39.1862345  17.2592211
  41.8780192   7.8659632  65.4603248  41.5292271   8.0530550  66.3318590
  42.7977999   7.6486590  65.6120216  68.9393892  22.0246413  60.2900213
  68.6763110  21.1251929  60.0950521  68.3238353  22.3135426  60.9637147
  39.6480703  20.6135082   9.8738176  39.6873426  21.3422894   9.2544889
  39.1044378  20.9382296  10.5916286  64.9454641  13.5231888  13.2657099
  65.7838726  13.0618858  13.2881403  65.1562166  14.3858421  12.9084349
  37.5406313  44.2636347  12.0659077  38.3973098  44.4974184  12.4232280
  37.5714707  44.5601892  11.1563289  48.4528480  74.6724887  54.8018527
  47.7752815  75.2358527  55.1756930  49.1486774  74.6662660  55.4591310
  16.9091713  25.5014729   4.0114594  16.0365069  25.8085871   3.7657535
  16.7497492  24.8428059   4.6874574  77.5960122  73.5081358  63.9797170
  78.3965550  73.1389279  64.3526048  77.7557717  74.4516130  63.9560702
  66.3219581  57.5491769  54.0582180  66.7718730  57.7327104  54.8829150
  66.0789500  58.4113855  53.7209153  23.3634138  22.8401351  16.5868402
  22.8447127  22.1813297  17.0485294  24.0999484  23.0181050  17.1717107
  17.8277502  75.1350160  64.6180739  17.4922578  75.8765359  65.1218852
  18.7341670  75.0376625  64.9099001  71.1473989  62.2569656  19.8969734
  70.7423735  63.1195164  19.8064482  70.4093361  61.6487312  19.9363220
   3.1803481  71.2064500  63.7445324   2.7755133  72.0675178  63.6401268
   3.7805192  71.1324043  63.0025461  71.2005260   0.4909231  33.0711567
  71.9148531   0.4329540  32.4366414  70.7339098  -0.3401873  32.9830944
   3.1080516   7.5595762  59.4439792   2.2753008   7.9955771  59.2632544
   3.6479243   7.7465584  58.6759895  34.0830334  16.0960486  60.9396868
  34.0022906  15.1471903  61.0365772  33.8540991  16.4451029  61.8010693
  80.3140070  59.1873102  26.1365771  80.4117300  58.2617347  25.9129906
  79.3847110  59.2869644  26.3432479  44.6103573  19.7456014  24.2818570
  44.8293972  19.0043724  24.8465109  43.8911963  19.4269025  23.7364507
  56.8959522  58.9889908   8.1393790  56.8228006  58.0373955   8.2124996
  57.6199675  59.2190075   8.7217236  74.9233733  70.0998302  26.0528099
  75.5949030  69.4177575  26.0455524  74.5064745  70.0163741  26.9104039
   3.1071830  21.4554954  16.5483046   2.4122271  20.8527231  16.2838507
   3.1712568  22.0792627  15.8250904  13.5914421  35.9606028   0.4743409
  13.7196565  35.1250863   0.0252233  13.3597398  35.7176065   1.3707219
  41.0366631  50.3313589  25.6006622  41.6052294  51.1007404  25.6325245
  40.5773020  50.3380632  26.4404082   3.7870270  20.1989722  12.7014637
   3.2574546  19.6274507  12.1454513   4.6168011  20.2874327  12.2325480
  22.1691108   2.8374845  21.7039108  21.9591832   3.7706369  21.7411804
  23.0409217   2.7723601  22.0937014  54.8728418  37.1516466   9.6332872
  55.6650686  37.6446271   9.8467761  54.7498608  37.2908688   8.6942846
  46.5909386  31.1988926   7.9119980  46.8406248  30.4204965   7.4140149
  45.6691647  31.0590506   8.1287956  79.9206839  50.5628593  56.7261898
  79.7565566  51.4914985  56.5621131  80.4535685  50.5506392  57.5212484
  25.8084965  67.2490788  20.2679896  26.4496207  66.7674828  20.7907319
  25.0156140  67.2516632  20.8042383  59.9303832   0.3605916  57.3286807
  60.6393017   0.3727033  56.6856259  59.3992360   1.1274459  57.1140950
  25.3301009  26.3200667  61.1174130  25.9911116  26.3106682  61.8096610
  25.6737383  26.9318869  60.4664015  66.0382638  74.4518013  55.1395833
  65.9328113  75.3950639  55.2635478  66.6851149  74.3732138  54.4384145
  62.3042403  75.2285547  44.0904295  62.1366916  74.5258207  43.4624755
  62.8854523  74.8347874  44.7411024   4.6854685   6.5434558   3.8423073
   5.2706669   7.2168834   4.1891205   4.1086195   6.3270290   4.5748612
  52.4585305  66.3489647  32.7615296  52.9866467  65.5610199  32.8898608
  52.8830705  67.0129485  33.3047807  40.6979179  54.0544128  36.9610286
  40.3624868  53.1663799  36.8380666  40.6234598  54.2103434  37.9025030
   1.8894839  58.4199238  12.5832665   2.5454521  58.9304256  12.1085835
   1.2597498  59.0699005  12.8950322  74.7539006  50.1058753  60.3114694
  75.1796732  50.9556623  60.4246544  74.6143876  50.0317342  59.3673980
  81.0973130  71.9672294  58.8289183  81.3306389  71.8915243  57.9036825
  80.6856165  71.1296268  59.0414190   9.1619871   1.4218194   6.9697380
   8.8410232   0.5669934   7.2569418   9.7846315   1.6840465   7.6478136
  79.4220076  70.3622932  48.5222554  79.4926272  71.3168831  48.5211181
  79.8096476  70.0924583  47.6896941  76.3642575   5.1097586  63.8632902
  76.6282250   5.9252312  64.2893913  77.1283056   4.8503783  63.3483302
  37.2963436   2.1012642  65.2704630  36.4425000   2.5297787  65.3301249
  37.7958210   2.6461556  64.6623149  29.2312964  28.5584357  64.8471932
  29.5230683  28.7463333  63.9551204  28.2816084  28.4639742  64.7736756
  44.4101095  41.8661880   8.4444243  43.5729790  41.5398645   8.7745118
  44.8093987  41.1097717   8.0147320  67.2565889   5.6267929   2.9488555
  67.6404428   4.9837404   2.3527268  66.4231873   5.2387041   3.2154387
  46.8947935  42.4961138   9.9218971  46.1247110  42.5797749   9.3595707
  47.2621822  41.6407394   9.6992195  76.8823460  64.8014545  16.0005355
  77.2759247  63.9337778  16.0925114  76.8346301  65.1388550  16.8950284
  57.2533655  49.6229553   2.2342405  56.7872953  50.4560757   2.3043564
  56.5945721  48.9614439   2.4454948  50.0719128  25.7401271  46.1098110
  50.8173190  25.7317586  45.5093705  50.0689755  26.6246493  46.4756572
  36.4446354  48.5348892  21.6876459  36.1939716  47.6749563  21.3501334
  35.8097696  49.1381693  21.3013411  44.2633533  13.7777066  16.0388088
  43.9072323  13.6883891  16.9227946  43.6014891  13.3806145  15.4726970
  64.5554219  44.6044911  65.3973365  64.4006071  43.6775560  65.2155253
  64.7353325  44.6374871  66.3368976  61.0578680  32.2482300   3.8176727
  61.2244177  32.6707411   4.6602744  61.7812967  31.6303182   3.7124395
  49.4517503  45.1425053  62.1683543  48.6383043  45.3978456  61.7332249
  49.2089401  44.3897100  62.7074033  24.2363938   9.8553850  53.7208354
  24.1076716  10.7554962  54.0199363  25.1055153   9.8582461  53.3197724
  80.3487788  73.1753869  54.4766438  80.9957514  73.3471627  53.7924265
  80.8211289  72.6572032  55.1282584  42.6851797  16.3133907  26.9068551
  41.7781830  16.2640369  27.2087622  43.1146669  15.5615163  27.3148465
  53.0944477  69.3513055  49.8367798  53.9552365  69.5402808  50.2103650
  52.6360331  70.1914115  49.8543953  37.5395465  36.0850406  32.7324033
  37.6690626  36.6187906  33.5163474  37.0587182  36.6544390  32.1317220
  22.2840595  25.5195141   6.0364532  22.5007892  24.5914268   6.1254007
  22.2834182  25.8524013   6.9339049  32.3877597  72.0763445   3.8447154
  31.9101143  72.2945452   4.6450120  33.2204890  72.5408411   3.9286032
  61.6456236  38.4179022  49.2214357  62.5948157  38.4398701  49.0998506
  61.4976658  37.6854422  49.8196351  48.3681393  66.6846609   9.8555446
  47.5570011  66.7635441   9.3534863  48.4209299  67.4995565  10.3549314
  25.3649720  23.6502840  51.4748156  26.0724171  24.0994026  51.0121631
  24.5849284  23.8267138  50.9488558  18.2608048  55.7393582  22.7359783
  19.2108409  55.6858678  22.6320374  18.1119029  55.5722542  23.6666405
  57.5621748  19.3365932  12.6854479  56.9012737  19.2115831  13.3664870
  57.0938826  19.1794956  11.8655360  11.7313560   2.7535584  40.4647696
  11.7314919   2.5825693  41.4065730  12.1209725   1.9690230  40.0788486
  77.0171642  22.3772430  21.4858317  76.9378757  21.4511251  21.7144060
  77.6979399  22.4005342  20.8133459  78.6286547   2.5413611  59.3756812
  78.2162001   3.1698277  58.7831103  77.8991820   2.0357229  59.7340518
  73.7567300  28.4407616  44.4098186  74.0131319  29.3180346  44.6942139
  73.9623952  28.4223175  43.4751558  52.3110867  27.2434354  11.7287600
  51.5434504  27.6740456  11.3525414  52.8519392  27.0147586  10.9728396
  37.0040298  23.0421162  12.3313880  36.3847017  23.6321616  11.9018412
  37.7124119  22.9349899  11.6966045  46.1992979  15.1601243  20.9471607
  45.4771185  14.7913110  21.4557505  46.7756510  15.5552506  21.6013217
   5.7943924   0.4006936  55.0943374   5.7366927   0.8756521  55.9233844
   5.3826078  -0.4446409  55.2734315  11.1166775  20.6282878   7.6094550
  11.6158760  19.9124777   8.0027092  10.9826231  20.3562975   6.7015553
  39.9062490   7.8636235  12.6438963  40.3861094   8.5515702  12.1827066
  40.5800247   7.2365755  12.9067028  64.0332947  64.0942616  49.9815189
  64.0973506  64.7706361  50.6557929  63.1435357  63.7523527  50.0690090
  74.6318557   1.1669733  62.7317681  74.8661449   1.3528659  63.6410450
  73.8471152   0.6223204  62.7931815   5.8360142  38.0155611  16.7200720
   6.4731407  38.6282444  17.0873880   6.2106001  37.1509314  16.8883896
  64.8218155  40.2948904   3.3421826  64.2390156  40.6861544   2.6914251
  65.7018614  40.5277634   3.0463487  42.8845249  54.4645352  65.4201583
  42.4356947  53.6191030  65.4253929  43.7725625  54.2661018  65.7172183
  48.4248924  44.9495697  23.8007307  48.3927631  44.5260859  22.9429102
  48.0937624  45.8338642  23.6438394  48.1480169  27.1358562   0.2243141
  49.0780973  27.3503780   0.2961599  47.7332354  27.9555416  -0.0445724
  38.0617523  22.2942185  20.6637454  37.6675916  21.8732381  21.4277101
  38.5501742  21.5945005  20.2300739  70.5332766  61.9172592  54.1641581
  70.9399996  61.3243527  54.7960340  70.2715502  62.6776643  54.6833074
  76.1503607   8.1601399  23.7677526  76.7601699   7.4806070  23.4803510
  76.7054668   8.8197571  24.1836786  11.3724454  10.0080492  57.8846609
  10.9331115   9.4191792  57.2711074  10.8379157   9.9697973  58.6777848
  32.4854088  18.1198442  29.4563007  32.8203845  18.6939883  28.7675500
  32.5787067  17.2369301  29.0985441  63.2105050  70.7915325  60.3767949
  63.6377368  71.4140673  60.9651440  62.9488216  71.3172407  59.6208947
  63.3524595  74.7188444  52.4645948  63.9678488  74.3936105  53.1216740
  62.9552875  75.4899855  52.8693473  53.9611731  74.4921036  62.4523118
  53.3755742  75.2485437  62.4190735  53.3791528  73.7444229  62.5881704
  28.1138245  76.1725040  34.5675504  28.2626931  77.0746107  34.8508751
  27.3152081  75.9069486  35.0235354  15.7934674  62.9239636  19.7064722
  16.6199025  63.3943289  19.5969737  15.2610596  63.1981664  18.9597547
  50.6334591  31.9762754   6.7678487  49.9490786  32.6028609   7.0028925
  50.3651762  31.6377926   5.9136319  78.1188975  76.6778417  56.7219740
  78.3297310  76.5342064  57.6445531  78.8332472  76.2559433  56.2445437
  28.8969517  52.3812199   2.3000123  29.3975663  51.5721083   2.1953568
  27.9945993  52.1321154   2.1001735  19.1370161  32.6190951  49.7459280
  19.4874247  31.8903734  50.2581882  19.5998581  32.5683596  48.9096045
  15.8966788   2.4445154  60.1351481  15.2094134   3.0327370  60.4480302
  16.6937407   2.7591469  60.5616867  21.4601533  70.0909061  58.8219213
  22.0638100  70.6286235  59.3344521  21.2884061  70.6076784  58.0347234
  52.0986996  74.6227832  53.1912529  51.6612683  74.0573163  52.5547528
  52.0791922  74.1239805  54.0079843  78.6442375  45.2591419  27.3687840
  77.9856968  44.6939564  27.7726698  78.6318779  46.0569906  27.8974700
  47.7596903  36.8670583  11.8901706  48.5270786  37.0229721  11.3396835
  47.7855825  35.9286141  12.0769417  22.7555227  35.8601332   7.5636852
  23.4222078  35.1733255   7.5559855  22.0676875  35.5198431   8.1358010
  36.6276002  30.5135655  24.5859694  36.3458586  31.0591626  25.3202558
  37.1381211  29.8122883  24.9907017  37.1995457  43.5363962  35.8004939
  38.1188877  43.3270838  35.6354963  37.2127589  44.4391920  36.1183154
  10.0017246   0.8573725  65.8112806  10.5925592   0.3365614  65.2673106
  10.5208310   1.6200664  66.0663459  24.1021307  14.1765024  63.9909504
  24.2899903  13.8337757  63.1171774  23.1570061  14.3280651  63.9906823
  13.1723839  44.1566086   3.8407692  12.3640114  44.2480087   3.3363906
  12.9321343  44.4220734   4.7284836  70.8956029  22.0589306  53.9827251
  71.6555109  22.4832203  53.5842919  70.2595880  21.9891550  53.2707917
   7.0963462  72.9571917  65.1421323   7.7676614  72.7053835  64.5079675
   7.1626433  72.2999003  65.8348137  12.7843606  52.5105858  37.9280305
  12.1482122  51.8050671  38.0454636  13.3737028  52.4289513  38.6778593
  44.7061680  71.8273635  57.6730698  44.7894535  71.6546912  56.7352640
  43.8253544  72.1885438  57.7728086  43.3133316  11.0985458   0.6479333
  43.9561319  11.6628826   0.2183273  42.7110767  10.8456445  -0.0517550
  29.0913055   4.2182834   7.1422160  29.9500130   4.5240695   7.4343640
  28.7445972   4.9414356   6.6196448   1.6830595  22.2469713  52.1124744
   1.5189966  22.9896023  51.5312564   0.9765895  22.2867014  52.7571082
  78.7837601  42.1897364  20.1914310  79.1928434  41.7233849  20.9204054
  77.8675604  42.2846651  20.4518104  63.1887875  74.8139758  60.6147664
  63.7860594  75.2790923  60.0289654  62.3180638  75.1208944  60.3620445
  59.5424177  76.0059400  12.0720053  60.0632920  76.3168985  12.8124285
  58.6712228  75.8549122  12.4386680  22.1040773  40.4337072   6.8426913
  22.5230575  41.0243797   6.2167537  21.5980315  41.0107136   7.4147207
  21.4414549  46.8828917  27.0085859  22.1444774  47.2739458  27.5273037
  20.7254100  47.5160551  27.0597386  53.0728817  42.7441454  10.7514524
  52.9344416  41.7992496  10.6863689  53.8272619  42.8361654  11.3334072
  36.5883396   6.3070590  32.9805446  36.2732075   5.4033191  32.9672217
  36.4544247   6.6206176  32.0861268  63.3782244  67.8245544  16.7498910
  63.2099056  67.1832991  16.0594618  62.5097036  68.1368065  17.0036650
  53.5974131  64.8608990  62.1466806  52.6957498  65.0998087  62.3615270
  53.6416493  64.9261065  61.1927294  47.6603651  33.4133410   4.6817780
  48.4784508  32.9673958   4.4624621  46.9888258  32.9343390   4.1961586
  23.0391844  22.7148010  46.1397588  23.6880167  23.4179785  46.1117112
  22.8767308  22.5758841  47.0727884   0.0464265  54.2273231  50.1420319
   0.9335677  53.8765199  50.0636529  -0.5197271  53.4561498  50.1105225
  72.2830629  23.1906962  24.4500804  73.0094004  23.2388258  23.8285089
  71.6027308  23.7442923  24.0667868  35.8453282  14.4806769  50.1890099
  35.0147160  14.0831282  50.4503047  36.4428004  14.2831137  50.9102785
  26.9879206   3.8166430  60.2812242  26.3618525   3.9262678  60.9969419
  26.5338333   4.1589739  59.5112591  53.7385688  70.9128256  54.9554169
  53.6865316  70.2249570  54.2918205  53.0006419  71.4903636  54.7601032
  74.0058329   8.7005141  56.7657715  73.2726147   8.0971052  56.6452664
  73.6006012   9.5115711  57.0727074   6.9444907  64.5093441   0.8507618
   7.2572261  63.7543392   1.3491532   6.4665216  64.1286516   0.1139769
  46.5519480  12.5124938  14.3919611  47.3906414  12.8094585  14.0389228
  46.3584487  13.1277759  15.0992250  71.6287613  56.1501074  17.2691822
  71.8961859  56.8037844  17.9152656  70.7719278  56.4499664  16.9656110
  53.6556633  19.6164706  64.4094057  53.2488068  19.8240378  65.2506031
  53.7308796  18.6622336  64.4086995  55.7599163  71.2407494  29.5701075
  56.1751986  70.4927683  29.1408157  56.4537382  71.8973255  29.6313453
  35.5131443   8.1042435  55.0375425  35.5680664   7.1962120  54.7397255
  34.8534354   8.5029509  54.4700503  56.6338382  58.2676120  65.9286301
  55.8835993  58.6445351  66.3883076  56.6559086  58.7270470  65.0891870
  55.9968289  21.9823363  21.9083893  56.2500294  22.5991776  22.5951445
  56.5223034  21.2013867  22.0822727  62.5879536  67.9897399  59.2961180
  62.7472196  68.7658854  59.8332053  62.4647031  68.3322568  58.4108364
  34.2980695  42.1297979  31.6995144  33.6374784  42.7572775  31.4060521
  34.1878033  41.3768101  31.1189270  10.8515356   9.3140228   6.8057364
  10.8860586   9.4934566   5.8661389  11.3469646   8.5020549   6.9128746
  17.4239039  70.0902033   2.2949690  16.8969977  70.7502842   2.7454078
  17.2370768  69.2754698   2.7613765  10.8398396  66.6588926   7.8157997
   9.9057156  66.5327549   7.6492697  11.2212998  66.7962456   6.9487047
  37.8241396  45.5925608  31.8870807  36.9609594  45.4310322  32.2679472
  38.3901715  45.7625198  32.6400447  32.0854004  18.8612702  40.0136125
  31.2523325  19.1912606  40.3502643  32.6088198  19.6473076  39.8573696
  57.5103140  46.1932278   4.3589312  56.6514778  46.5893412   4.5063436
  57.3597336  45.5434656   3.6723703  25.5492735  59.9811554   3.7889388
  26.0431480  60.4317474   4.4739851  24.6749496  59.8651886   4.1608843
  49.1477966  39.3034673   1.1562695  49.2381096  40.2453613   1.3008974
  49.0088034  39.2182207   0.2130593  40.9928417  17.3541725  19.6177089
  41.7023563  17.0625401  19.0451932  40.6374836  16.5466881  19.9890852
  31.2810467   7.6122195  23.9042759  30.8122013   6.9446571  23.4035087
  32.2041843   7.4576099  23.7039161   2.0552508  58.7937303  43.7525498
   2.9660336  58.5399408  43.9018738   1.5567605  58.2838638  44.3911254
  66.2677908  27.0509458  10.7381821  65.9904242  27.8881192  10.3661036
  67.1787167  26.9553280  10.4601598  38.3081579  24.7005463  14.3560731
  38.3887863  23.9445853  13.7744749  38.8762069  24.4934869  15.0981498
  26.6266608  31.4898729  13.8519800  27.0532870  30.7558107  13.4099698
  26.6766882  31.2709785  14.7824717  75.8960295  44.5516539  16.0508168
  75.4872274  43.8385344  15.5603397  75.3650284  44.6326208  16.8431008
  55.4069424  60.2635193   2.7756599  54.9742746  59.6496248   2.1822290
  56.3010645  59.9309254   2.8541517  51.1957312  48.5829258  13.8326013
  50.5211115  49.2583323  13.7622678  51.9675636  48.9715433  13.4209156
  70.3381491  17.1220398  18.8917696  70.7801247  16.9178855  19.7159123
  69.5186281  17.5397742  19.1565657  17.5972088   2.5872566  65.0566819
  17.9749163   3.4382536  64.8344951  18.0128630   2.3497870  65.8855804
  78.5987769  68.0301662  57.7378249  77.7713499  67.5631614  57.8540444
  78.7827549  67.9619617  56.8009513  75.6374886  12.5233795  50.4566204
  76.3867476  13.1164601  50.5122876  75.8513643  11.9345572  49.7328960
  37.0344647   7.5981190  64.3768949  36.5648325   7.8362181  65.1762602
  37.1622332   8.4283020  63.9178758  62.3624712  58.7389421  16.7432296
  62.1317130  59.4991159  17.2771907  63.1862932  58.9835453  16.3216639
  41.1678600  42.8767014  12.2583330  41.2407112  43.4055471  13.0528414
  40.3337240  42.4167109  12.3524439  62.4979448  41.9705725   6.4616275
  62.5730610  41.2505150   7.0878088  62.4030209  41.5401554   5.6119442
  35.1916409  66.9069719  22.6664424  34.7715759  66.6552591  23.4888887
  36.1207342  66.7240047  22.8062248  35.3693628  64.8228312  16.5455770
  35.7825541  65.6454945  16.8077326  35.9451175  64.1432476  16.8961596
  27.8432965  42.3969889  13.0556023  28.2865334  43.1752396  12.7178049
  28.0272007  41.7165613  12.4079692  16.9024666   1.9293740  57.4781221
  16.3951643   2.1737387  58.2521784  16.7500075   0.9896400  57.3786926
  79.3524625  22.1677687  61.8840932  80.1245977  21.9927456  62.4220582
  79.1190459  23.0734875  62.0876193   4.5531615  11.2519171  54.8591923
   4.9522622  11.2946083  55.7281720   5.1935967  11.6661885  54.2808747
  56.1439357  69.0306706  33.0109870  56.4456687  69.9023719  33.2665741
  56.9073806  68.4668798  33.1355655   6.3232191  26.3583901  54.4405829
   6.5129670  26.6731121  53.5567402   7.1733578  26.0848858  54.7850990
  22.0518589  65.1170731  11.4510715  21.4158416  65.7992887  11.2359154
  22.2644424  65.2695894  12.3718202  22.9159888  20.4265978  49.2897236
  23.4507759  20.3593352  50.0807404  23.5354670  20.6698992  48.6017668
  44.9197249  -0.2560752  14.0144944  44.7886352   0.5812795  13.5696530
  45.7608525  -0.1608079  14.4613290  20.1506535  58.4762068  57.5927907
  20.9764878  58.0375881  57.3882478  19.9259631  58.9494391  56.7916679
  43.7345934  30.7752085   2.8874424  42.8386736  31.0979581   2.9843691
  44.0234232  30.5977964   3.7826154  10.4947615  49.4857264  29.2719698
  10.5827248  49.3803024  30.2192712  11.2930655  49.0985584  28.9127421
  27.9925156  62.8977871  21.6649938  28.5470581  62.1179438  21.6885400
  27.3318243  62.7423382  22.3399401  58.4975576  26.3485169   5.5885530
  58.8391542  26.2636089   4.6984211  57.6112604  25.9902358   5.5401641
  46.1574898  69.4351764  61.7846363  45.9594963  68.5040326  61.8846541
  45.7461105  69.8502917  62.5427114  28.6759257  66.6562510  11.4650857
  28.2755327  66.0611629  12.0989525  27.9799366  67.2754717  11.2451029
  72.6123850  25.2739532  20.6080747  72.5288860  24.3308360  20.7487440
  72.9541771  25.3539569  19.7175634  49.2815941   4.7129538  55.3653991
  49.1131165   5.6544831  55.4023289  49.9760242   4.5685055  56.0081541
  49.3434477  47.0734549  11.1130726  49.6649408  47.8353500  11.5951455
  50.0828123  46.8059778  10.5671573  21.4960297   9.8781016  20.5871689
  21.2120922   9.5070507  19.7517454  20.8332976   9.5899155  21.2148392
  59.6266413  58.9192390   8.8426358  60.2796125  59.0778828   8.1609493
  60.1312923  58.8896894   9.6554619  32.3955397  11.7660243   8.8685566
  31.7203991  11.6058643   9.5279247  32.4562589  12.7197749   8.8146931
  31.6611298   8.0752518  48.8447582  31.3917883   8.5568812  48.0626308
  32.2645815   7.4075081  48.5188794  33.9237984  25.8443691  61.5637180
  34.2622574  24.9653055  61.7338061  33.0390890  25.8352186  61.9290116
  14.0795096  15.9329750  55.3769469  14.1894921  16.0804560  54.4375932
  13.4441956  16.5946152  55.6505036  35.0233698  45.5685139  18.0363321
  35.6403375  45.2102661  17.3981774  35.5215883  45.6127167  18.8524532
  16.0238942  21.0560086  24.7276413  15.9765728  20.3047898  24.1363155
  15.6263932  21.7740156  24.2350065  36.8999505  63.8683367   5.5855924
  37.5152135  64.5636129   5.3526336  36.2910032  63.8303423   4.8480463
  16.5693784  40.1044941  13.1196141  16.8041348  39.8323727  12.2324443
  15.6255591  39.9546576  13.1742454  72.6902628  70.8691549  17.4510527
  72.5155497  71.4250040  18.2104862  72.4147320  69.9946308  17.7258658
  70.7193756  40.4661560   2.5866440  70.0233984  39.8867679   2.2765516
  70.8519506  41.0863209   1.8696718  65.3461123  32.3314071  14.3944526
  65.7300186  31.7024231  15.0053740  64.9930811  31.7926812  13.6863744
  29.4379640  14.7890484   8.4594852  28.5811019  14.3881464   8.3135539
  29.2633057  15.5171478   9.0558046  13.0562409   7.7736809  52.8812408
  12.3184093   7.2940256  52.5047230  13.4515580   8.2277205  52.1370601
  11.4169919  56.3584709  10.9002078  11.7611599  55.4652882  10.8972776
  11.9108212  56.8076897  10.2142286  79.6466519  27.6405051  56.5239560
  79.7497251  27.2764971  55.6446921  78.7198736  27.8733399  56.5796637
  81.1869121  54.0236235   2.3359251  80.9604987  54.9456596   2.4576655
  81.3445576  53.6967421   3.2216606  42.9510880  73.1578112  39.6513867
  42.0263052  73.2820559  39.4379210  43.3996677  73.8710260  39.1971469
   0.6176172  26.3687086   2.9928958   1.2690201  27.0391297   3.1989053
  -0.1588481  26.8623042   2.7288944  24.7777613  24.9437620  45.3045451
  25.4208048  24.9457981  44.5955169  23.9382275  25.0847437  44.8668920
  45.5785275  48.5069323   3.3423802  45.3789043  48.5794687   4.2757183
  45.9134007  49.3706131   3.1012461  19.8738335  71.2680597  62.5215026
  19.1704325  71.6162820  61.9735983  20.1867030  72.0238490  63.0186191
  17.4864662  70.2326107  34.9949861  16.9392323  70.8811712  34.5521140
  17.6612973  69.5701694  34.3265247  67.1912537  69.4596119  59.2585092
  66.6066752  69.0738053  59.9109286  67.5701485  68.7082572  58.8022917
  68.3439030  30.2155545  41.5851175  69.2420604  30.1429322  41.2622058
  68.0024948  29.3221476  41.5464174  37.0350194  35.7602549   1.6109249
  37.9439139  35.9624243   1.3889603  36.7209387  35.2323151   0.8768500
  74.6072270  15.4276898  62.5063219  75.2666571  14.9327614  62.9925632
  74.6450593  15.0698807  61.6193187  65.0473022  55.6947088   5.3088200
  64.7887611  55.3090477   4.4717705  65.4953480  54.9861336   5.7707888
  23.2295521  19.2416241  55.9207940  23.9374169  19.5502712  55.3552043
  22.8121813  18.5400727  55.4209339  58.2379909  13.8936903  42.4121153
  59.0949239  13.8698056  41.9862902  57.6399504  14.1988852  41.7298853
  73.4161188  22.4864008  53.0809295  73.4851386  22.6732256  52.1446788
  73.7594773  23.2713606  53.5077476  15.5914791  27.2328141  58.2056587
  15.3842791  28.0124190  57.6903814  16.2948092  27.5128367  58.7914407
  27.4682148  17.6148989  60.4108858  26.7017086  18.0788996  60.7476401
  27.6986798  18.0836632  59.6087771   2.9739936  18.6951973  57.2693824
   2.8055890  18.9931586  56.3754630   2.2726353  19.0881159  57.7889442
  10.7078034  26.5383387  12.1040320  10.3075463  26.3707447  11.2508380
  10.4662091  27.4416709  12.3086309  57.8861809  71.6147041   5.4095715
  58.7223577  71.6996193   5.8676416  57.8175640  70.6816387   5.2073008
  69.9215851  55.3514380  54.0306830  70.0074969  55.5441339  54.9643421
  69.1048584  54.8569531  53.9623403  80.6214406  28.9629318  47.7865266
  80.0199344  28.2569077  48.0230593  80.5527165  29.0270712  46.8339538
  16.2592928   6.8691642   3.7538543  16.3556186   7.6627357   4.2803547
  17.1527175   6.6439254   3.4944507  17.7485236  10.5017950  41.2528741
  17.6611718  10.9982397  40.4391515  18.6169966  10.7328894  41.5823781
  70.6698666  75.3589768  63.3360835  71.2023602  74.9663014  62.6443535
  69.9287138  75.7510943  62.8743830  48.6000905  72.2713394  60.9448146
  47.9837594  71.9399066  60.2917289  48.6252270  71.5908213  61.6174912
  18.8692053  22.1693804  46.8105649  18.4184655  22.9814532  47.0420944
  19.2890032  21.8882754  47.6235723  71.4986714   3.2956507  51.5965306
  71.5694817   4.0390398  50.9977090  71.9297036   2.5754788  51.1363196
  31.2141275  39.1212344   6.9821405  31.9104815  38.8658667   6.3770700
  30.5016041  39.4177198   6.4158905  18.8008593  12.5130756   3.2783040
  18.7254951  13.0531795   4.0649712  19.3615578  13.0209739   2.6918834
  13.7859543  62.3022752  24.7452068  13.1789978  61.6237550  25.0409222
  14.4288452  61.8332510  24.2132831  25.4634961   5.3484442  52.2065103
  25.7134732   4.8339083  51.4390468  24.5501526   5.5869105  52.0478701
  25.4609696  58.9887519  65.3441313  24.7725550  58.3313293  65.2435911
  26.2570779  58.5496206  65.0447709   4.9614483  41.7059135  17.8418171
   4.3349892  42.3384142  18.1935656   4.5906502  41.4449978  16.9988108
  35.7792902  48.8823509  15.6013453  35.0810838  48.4268951  16.0717714
  35.9704638  49.6496964  16.1406636  27.2245979  33.5468268  11.9011986
  27.1866965  34.4432807  12.2346187  27.2634268  33.0007005  12.6863539
  49.2120838  63.8803053  13.2884669  49.8313904  64.3892193  12.7653027
  48.3628845  64.2876244  13.1176555   1.0389326   6.1066730  23.9521527
   0.7741402   5.9838207  23.0405474   0.3160761   6.5935237  24.3479967
  31.6118240  16.5487134  32.8776598  30.7921386  16.2706220  33.2863355
  31.3422966  17.1594584  32.1916747  15.5008554  58.7091303  18.7194073
  15.2650535  57.7973843  18.5480845  16.4215326  58.7703180  18.4647691
  31.4236450  29.3208694  28.4307837  31.5514588  30.1220179  27.9227924
  31.6053557  28.6134315  27.8121185  25.9668231  42.3999119   1.5697731
  26.7519236  42.9238844   1.7288300  26.2449121  41.4977264   1.7277838
  67.1435080  27.7519043  35.3032004  67.2605954  27.9896147  36.2229931
  67.6938687  28.3712132  34.8238337  46.0999441  41.5515661  13.8816249
  45.6757689  41.9262218  13.1096554  46.6640997  40.8610773  13.5335076
  50.4734455  72.7715487  51.8971157  50.0396548  73.5808439  51.6267514
  49.7594939  72.1999259  52.1795248  24.4949675  44.2612505   4.4842270
  24.1389966  45.0138855   4.9565151  25.2355361  43.9723110   5.0174302
  24.9580240  49.3658876   2.6232147  24.4523454  49.4158363   3.4344023
  25.7308650  48.8504791   2.8541017   9.9983962  23.9478400  60.3920596
   9.6415981  23.9845612  61.2795156  10.2136668  24.8567106  60.1826691
  30.2596126  73.1067438  41.7373168  30.5808652  73.2449837  40.8462965
  31.0183639  72.7737327  42.2165167  19.0881213   0.5970886  50.9965312
  19.3917950  -0.0555299  51.6274845  18.1365116   0.6051304  51.0994994
  24.9567374   7.2342541  58.0985844  25.2645787   7.3358919  58.9992159
  25.7297762   7.4049809  57.5605350  24.7519739   0.1919987  59.4145137
  25.4764660   0.8084895  59.5207428  25.1584109  -0.6710575  59.4930982
   6.9712909  21.8087675  64.4101625   6.1327966  22.1116688  64.7586043
   7.4293264  21.4470675  65.1688504  37.0106959  67.0145082  16.7127585
  37.5275874  66.6086817  16.0167992  37.6421642  67.5384903  17.2056293
  62.7297115  53.9049149  15.7687652  62.6160622  53.0017185  16.0646641
  63.5251045  54.2031908  16.2099111  75.1938878  74.2286773  56.2747824
  75.1572667  75.1851745  56.2768101  75.9041701  74.0174646  55.6688797
  24.4437575  63.6583662  18.8877118  24.3700552  64.0202284  19.7708070
  25.3233051  63.2820606  18.8557041   5.4166840  21.7523582   7.2244608
   5.3349922  21.3613899   8.0943453   4.5956705  21.5316684   6.7846179
  66.0404406  60.2242656  53.5421788  66.4239679  60.9712858  54.0016341
  65.9279619  60.5289216  52.6417529  30.5477214  41.3181067   1.5155053
  30.0800323  41.4534855   0.6913877  31.4181280  41.0204840   1.2508442
   1.8958622  68.0656004  31.8194866   1.4967781  67.4236631  32.4067497
   1.6301304  68.9135170  32.1753740  79.6398737  31.9123175  49.0018725
  79.6170427  32.8688433  49.0295386  79.0071442  31.6771652  48.3232045
  47.0932082   2.6850183   3.2792586  47.0323936   2.0714814   4.0114504
  46.7614702   3.5111816   3.6308724  75.1592398  51.9602299   6.9621593
  75.4710531  52.4850655   7.6994187  75.9508514  51.7473650   6.4679241
   0.5231808   5.3629501  21.3009906   1.3544939   4.9293239  21.4936471
   0.4998205   5.4225547  20.3459334  33.0819178  66.4125776  16.8286538
  33.8200641  65.8951998  16.5066385  32.3190475  65.8498335  16.6960537
  64.1916895  38.9003682  23.1436062  64.2875719  38.2499838  22.4478769
  63.2969284  39.2259502  23.0454564  11.7235478   0.1114490  29.1225254
  10.8180698   0.0599386  28.8164365  12.0479472   0.9410956  28.7722647
  15.8898123  23.4168103  65.7055994  16.5154417  23.9366724  66.2101396
  16.0503586  23.6659291  64.7954376  46.1735916  68.3055830  38.4063363
  46.3403225  68.1270313  37.4808359  46.8984127  67.8821611  38.8663173
  53.5544697   0.5625446   9.7619468  54.1230432   0.4503972  10.5237734
  52.9037849  -0.1346724   9.8440027  70.8889484  57.7923775   9.2926306
  71.5646553  58.2853794   8.8272309  70.0690699  58.2236576   9.0517306
  53.0240822  73.6931038  32.5524235  53.4493923  72.9304647  32.1603465
  52.0894957  73.5485983  32.4044514  20.8187016  35.8041670  52.9841542
  19.8669728  35.7683422  53.0798256  21.1021336  34.8935988  53.0663704
  32.5681162  58.8908100  22.4996209  32.4942088  59.7694921  22.8720212
  33.0302668  59.0197945  21.6713619  59.4243336  61.9247007  16.9897294
  59.0900993  61.2919807  16.3539732  59.1007710  61.6098595  17.8337777
  25.6900547  14.7073848  10.8577263  25.0699327  15.4275901  10.9716249
  25.6527231  14.2261893  11.6843402  81.1926438   4.2589476  58.5405808
  80.2535703   4.0871050  58.6101680  81.2818625   5.1892712  58.7474054
  77.4591541  66.9475651   2.5762555  77.2901535  67.1390104   3.4987625
  76.8964291  67.5567150   2.0982310  68.8721506  32.7746112  15.1025939
  69.0657131  32.8361137  16.0379994  68.9631120  31.8435485  14.8999012
  62.1893740  49.0179443   0.7475194  61.3116884  49.2462683   1.0537374
  62.0469713  48.6154175  -0.1091745  78.7154627  33.1438160  20.1002526
  79.0711498  33.3971119  20.9520507  79.4491768  33.2465887  19.4941676
  61.7577314  74.6358061  16.2833023  62.3678637  75.1459980  16.8159103
  60.8911848  74.9007702  16.5917206   6.3666302  31.2205195  34.6567202
   5.8625847  31.9850612  34.3780708   7.1582085  31.5863729  35.0514126
  21.2286766   1.9353916  49.2598521  20.8560809   1.9763710  48.3791005
  20.9355553   1.0920384  49.6049177  44.3791254   2.4120667  62.2093331
  44.3373497   3.3669855  62.2604861  45.3151997   2.2146561  62.1772393
  68.8908052  12.8671837   0.2473372  69.0884781  13.2990479  -0.5837170
  68.4611654  13.5426998   0.7720480  54.7450113  65.6401539  16.3287115
  54.1770411  65.4461908  15.5830455  54.2080545  66.1859226  16.9032049
  11.3109605  69.2034502  63.5584640  11.3032262  68.4995146  64.2070363
  11.2283532  68.7547512  62.7169916  75.1072655  30.9708030  58.0038470
  74.5867167  30.2397974  57.6708453  75.8201132  31.0646535  57.3719656
  29.4316157  19.6472265  45.4683840  30.0834616  20.3460696  45.4140913
  29.7074850  19.0106203  44.8089468  47.3756218  24.7578573   0.7508131
  47.5667143  25.6405616   0.4337170  47.9933167  24.1962099   0.2825882
  18.2044896  70.7238435   5.5453002  17.7865513  69.9561321   5.9354043
  18.7062605  70.3749620   4.8085919  25.9029579  25.1695848   7.8537655
  26.3082457  25.9884405   8.1391561  25.5905867  25.3530097   6.9677573
   2.3650606   6.2711956  36.4166867   2.7549847   5.4915621  36.8121230
   3.0247935   6.9547274  36.5340220  75.2099180  13.2652140  25.5106044
  75.5399656  13.5955119  24.6750188  74.8292685  14.0325046  25.9379244
  39.8117789  13.8192656  59.2418563  39.5002182  14.3749430  59.9562692
  40.0331887  14.4321968  58.5407656  56.3403545  65.2737112  62.4436658
  56.5344105  66.0769935  62.9266858  55.3843961  65.2408881  62.4076715
  34.0719414  40.1287174   1.8057455  34.7151160  39.4278836   1.6990253
  33.2407856  39.6728635   1.9384395  57.7516174  19.9909723  18.3690333
  57.4310446  19.6338832  17.5408101  57.6101065  19.2883921  19.0035331
  23.7375275  45.8524717  62.6224523  22.9809014  45.4186530  63.0168503
  23.7125079  46.7429591  62.9726490  33.5371566  11.8423676  15.7067919
  33.4170771  11.0618639  15.1658440  33.6389732  12.5565076  15.0776112
  67.6653554   6.3241579  39.6352112  68.3621587   5.6703570  39.6921646
  66.9791402   5.8986809  39.1210997  38.2297858   7.5697424  50.4824566
  38.8833769   7.3226454  51.1366689  38.5439547   8.4037163  50.1331436
   0.9335946  57.2937489  10.3464663   1.3952829  57.3622179  11.1821628
   1.2354575  58.0500793   9.8433995  19.0180453  12.7504160  30.6323206
  18.3707388  13.1555130  31.2094891  19.5450171  13.4825852  30.3122222
  74.5541573  62.4979067   6.7140037  74.9721575  61.9327164   6.0643375
  75.0824451  62.3858261   7.5043082  59.0196133  10.1845944  17.1351802
  59.6083355   9.8172104  16.4758873  58.1646538  10.2097261  16.7054725
  61.0524474  71.8367953  46.3256084  61.5854679  72.6265354  46.4174175
  61.6453586  71.1200686  46.5514171  51.5786219  68.3226490  11.7472517
  51.8827868  68.9861631  12.3664975  50.6262970  68.4189653  11.7415929
  79.0324475  15.5062678  56.7814701  79.1145017  14.7839262  56.1587977
  79.6113016  15.2658036  57.5048905  52.5732279  25.9362006  14.6061754
  52.7753258  26.4715219  13.8388300  53.1146622  25.1537895  14.5017123
  53.5455751  13.6804914  13.1029868  53.0540752  14.5010507  13.1396103
  54.1794968  13.7489414  13.8169110  49.9332865  14.7555115  54.1017293
  50.2824362  15.5925562  53.7956571  49.2681797  14.5222332  53.4540820
  66.8303347  21.4274931  -0.1651859  66.0481215  21.6854334   0.3225080
  67.4877167  22.0810533   0.0734343  76.2759234   1.5169050  60.6823742
  75.7630183   1.1402514  59.9673277  75.7285859   1.3974836  61.4585125
  21.2763935  26.8155241  15.3255689  21.1817223  27.6855206  15.7133496
  20.9462506  26.2172890  15.9959054  63.0897713  74.1251230   3.6082199
  63.1006670  74.9639130   4.0692449  62.4627876  74.2513752   2.8960502
  75.3825768   1.9977000  46.7711746  75.9907254   2.0006277  46.0319983
  75.3516396   1.0832264  47.0522618  23.9008872  73.6636348  18.8359606
  23.2132975  73.1387396  19.2457640  24.2982117  74.1460009  19.5610010
  75.6573496  61.0183330  65.6465721  75.0433360  60.2867694  65.7100941
  75.2396594  61.6296072  65.0398504   5.4716937  54.5334072  59.7979015
   6.4150540  54.4714386  59.6480280   5.0846354  54.4480176  58.9266222
  10.8301791  69.1611674  58.5227185  10.5779847  68.9369776  57.6269674
  10.2277811  69.8616984  58.7729322  74.0506077  12.2033370  11.2587500
  73.7711859  11.3150752  11.4804399  73.8214827  12.3028982  10.3347254
  19.8679602  41.6095018  23.2231402  20.7388377  41.2485170  23.3889651
  20.0296307  42.5183487  22.9699874  55.5733126  45.3956366  60.8828497
  55.9893626  44.5523024  61.0615301  55.0746125  45.5896139  61.6765118
  62.4234039  20.9163594  33.6432600  62.0660061  20.5718613  32.8248358
  63.3721083  20.8407354  33.5409260  14.7228301  61.8134737  48.2327890
  14.3044627  61.2554836  48.8884211  14.0648913  62.4781561  48.0289650
  42.1875781  61.9286394  24.0628028  42.8150576  62.6139116  23.8328028
  42.1196336  61.9763565  25.0163937  37.2274737   6.7536933  48.0546999
  37.6951925   7.1168716  48.8067436  36.4786247   7.3374755  47.9336548
  61.6715974  60.1563883  39.5800066  61.3256532  60.6730080  38.8522315
  61.3338655  59.2735863  39.4288969   6.0016092  23.8087036  52.3383998
   5.7745250  24.5999195  52.8269100   6.5407379  24.1220572  51.6121888
  21.0266374  14.5518977  29.4019651  21.8010990  14.1375835  29.0214586
  20.5664269  14.9321658  28.6537433  28.0284796   4.6481712  56.4041424
  27.5115383   4.4970424  55.6128359  28.4448768   5.4978473  56.2595654
  55.1567904  15.9432227  46.6114902  55.9357325  16.1629016  46.1003876
  54.4738428  15.7978923  45.9567404  10.0738096  52.4350977  51.5072680
  10.9149373  52.7699947  51.8180370  10.3049076  51.7927504  50.8362865
  49.6366471  62.7457333   1.9601859  49.4635695  63.5534477   1.4765863
  48.9761060  62.1301270   1.6424629  34.7206865  19.4540317  51.9485950
  34.9362938  19.7218997  52.8419018  33.8179062  19.7460372  51.8222904
   9.2716962  47.0490170  39.6294785   8.9128238  46.6632986  38.8303161
   8.9233488  46.5046263  40.3355408  73.4316975  41.5107918  28.3613443
  73.6269248  40.5866909  28.2059073  72.5828570  41.5051508  28.8036895
  72.0902491   9.0571660  49.9397850  71.3724101   9.6887386  49.9851131
  72.2145879   8.7705487  50.8445597   5.0319378   3.1392629  33.0151153
   4.6658174   3.5591609  32.2367382   5.5413000   3.8282878  33.4417653
  63.0083126  55.8412457  37.4727297  63.4243292  55.4633904  38.2475781
  63.4410638  56.6871595  37.3570180  73.2713320  26.2295487  53.0735194
  72.6587905  26.8140700  52.6270222  72.7848162  25.9069636  53.8321185
   8.6337763  53.3704948  37.2580552   9.0241492  53.4322882  38.1298494
   9.1073936  52.6550579  36.8337131  21.1557770  58.9810658   1.3268588
  21.1755109  59.5577192   0.5631120  20.2873945  59.1157913   1.7063244
   2.1652441  50.4465675  41.7773485   2.4053216  50.4538631  40.8507729
   2.9634714  50.1733065  42.2294474   6.3183147  60.9641552  40.6826210
   6.2215739  61.7709160  41.1885929   7.2350985  60.9625101  40.4074192
  28.7082566   7.3049743  14.8609960  28.7927427   7.3276813  13.9078021
  29.4296671   6.7472942  15.1521730   6.9091743  43.1526041  43.9815283
   6.0813725  43.6313629  44.0235424   7.4662137  43.6865997  43.4151459
   7.9900610  53.8214540  27.7187586   8.8072079  53.3380365  27.8404474
   8.2320219  54.5660925  27.1681213  78.9463093  27.3420002  62.3334997
  79.7412254  27.7237942  61.9612473  78.2846834  28.0272915  62.2393870
  33.5589743  76.3007212  66.1912441  34.3002772  75.8029747  65.8463621
  33.3103085  76.8864441  65.4761744  29.3489028   2.8835876  14.0881085
  28.8001085   3.3134515  14.7440612  29.3694798   1.9653327  14.3575752
  39.1041702  59.6588278  30.1880670  39.8231882  60.2467489  29.9565649
  38.3130974  60.1738930  30.0294733  14.2814553  66.0955906  17.3633420
  14.4680619  66.7018127  16.6464722  14.7838509  65.3094864  17.1491587
  58.7662594   3.0900247   5.8983445  57.8930418   3.3660133   6.1768317
  59.2720811   3.0412204   6.7095131  40.2056217  72.9276943  26.2840748
  39.9583554  73.1892824  27.1710157  41.1247492  73.1834412  26.2064004
  62.8290218  62.2732878  52.0627880  62.3171538  62.6154089  51.3298655
  63.2639271  61.4971876  51.7095804   0.2140520  10.9595878  32.0361209
   0.9530971  11.5650470  31.9772696   0.2495382  10.6247146  32.9321313
  61.7500822   9.4667251  23.9557266  60.9158365   9.2818267  24.3870926
  61.5054623   9.8877818  23.1316471  38.0380630  68.4950352  19.1921520
  38.5077047  67.9559326  19.8285794  38.3089995  69.3912601  19.3911588
  14.6068168  67.6897860  35.2210617  14.3509436  67.0409346  34.5655036
  14.0000057  68.4178305  35.0870347  70.3928202  28.9573097  20.1335406
  70.3890413  29.7570658  20.6594753  70.0364310  28.2861829  20.7156134
  38.4973860  75.6784058  10.5525970  38.1207418  75.3007746  11.3474345
  37.7539492  76.0795116  10.1024354   1.5740901  32.9126382   5.5442941
   2.2406784  32.4718523   5.0174177   0.7633683  32.7998781   5.0480616
   9.0822566  22.1263862  34.9282908   8.3489013  22.3137164  35.5142331
   9.5527279  22.9572034  34.8602343  26.2454033  26.9076014  31.9040918
  25.9968019  26.6506028  31.0161829  26.8745351  27.6183271  31.7804337
  45.0030645   1.0930731  51.1004412  44.6076103   0.7066371  51.8817961
  44.3578108   0.9476545  50.4085361  58.0976864  60.7375520  38.8584518
  58.5863759  60.7299834  38.0354333  57.4113895  61.3910167  38.7234950
  13.1647527  41.9261217  20.1804161  13.3027220  42.1345139  19.2564189
  13.6999726  41.1473131  20.3328061  66.7063238   5.6874707  48.2799041
  66.6912927   6.5969994  47.9819738  67.4850394   5.3132870  47.8678119
  46.5989560  53.3296204   2.5369596  47.1109027  53.8708782   3.1379437
  46.6292876  53.8014698   1.7046908   8.6754572  37.8729677  57.0243502
   9.4886017  37.8617692  56.5194702   8.4632266  36.9490814  57.1571159
  58.9632576  38.8695242  65.1605471  59.7550442  38.3503964  65.3013123
  58.8126697  39.3084767  65.9977284  77.8344750  30.5303335  36.4062262
  78.3161941  30.0191355  37.0564985  78.4979910  31.0888338  36.0011888
  16.9575727  53.6503172  12.6345265  16.2295425  53.8985682  12.0648122
  17.4873984  54.4443083  12.7058685  35.7073869  21.3856032  63.3095070
  35.7384779  21.5320160  64.2549319  35.1489892  20.6152584  63.2046747
   1.3285337  44.5339586  47.2290062   1.6449342  43.8675566  47.8389489
   2.0386944  45.1741929  47.1842432   2.6778309  12.5205333   1.2817246
   2.6150195  12.4510391   2.2343293   3.5594551  12.2093303   1.0764849
  56.1540351   2.6677997  24.3260956  55.5502353   3.3881480  24.1451120
  56.8931232   3.0811555  24.7723222  27.9697776  55.3543663  24.1691661
  27.3991108  55.3860140  23.4013319  28.8487411  55.5032730  23.8206244
  78.8809811  54.1713810  25.3334975  77.9402184  54.3167114  25.2331114
  79.1572510  53.8026857  24.4944692  50.7513857  29.0467525  14.0025270
  50.4753637  28.6867762  13.1596386  50.5110931  28.3746052  14.6402657
  54.6999751  64.2502399  35.6300938  54.1826830  64.1467233  34.8313915
  54.2226444  64.9034853  36.1416184  29.5881629  68.9443350  24.1960502
  29.3285155  68.6651134  23.3180666  29.9570656  68.1579256  24.5981741
   6.7193401  62.1982384  21.8821430   7.1262032  62.0482588  21.0287976
   6.2307256  63.0142546  21.7744207  59.0105096  -0.0354951  15.3228462
  58.4720008  -0.3977769  16.0264027  58.5673062   0.7761152  15.0756741
  13.4759390  47.3346996  42.4963903  14.3738961  47.0416307  42.6513577
  12.9316771  46.6024065  42.7857971  73.1831115  72.2982883  41.3464975
  73.1427199  71.8715000  40.4906654  72.4296164  72.8885365  41.3555908
   5.9408289  75.2473354  48.4665155   6.7503273  74.7586298  48.6152124
   6.1154228  75.7668877  47.6817799  66.0413927  34.9373412  21.0127997
  66.3008350  35.3985262  21.8104386  65.1256174  35.1828790  20.8812761
  79.6651843  68.2678318  34.0364003  79.1716284  67.4478579  34.0530396
  80.4148078  68.0847216  33.4700370   4.7200704  48.8585377  24.0839863
   4.5141220  47.9477644  23.8734818   3.8949391  49.2227602  24.4045043
  47.9284541  12.8160484   3.6217749  47.2926895  12.3924072   4.1984642
  47.4775354  13.5969932   3.3007953  20.6844322   0.1903970  18.2963657
  20.5106894   0.2960736  17.3610163  20.1895658   0.8958537  18.7131000
   7.1896613  67.3768044  14.5781064   7.3069406  66.6524363  15.1927352
   8.0796313  67.6633835  14.3730235  33.2607102  45.2336550   5.9280723
  33.5821557  46.0142708   6.3792282  33.4258938  44.5175123   6.5413314
  10.3626668  27.3595691  50.2814913  10.5680299  28.0878544  49.6952677
   9.6500009  26.8936825  49.8441267  74.4579536  57.1667147  13.1559217
  73.5257357  57.3162270  12.9982913  74.8966628  57.8802538  12.6926470
  71.6168749  61.2228870  42.3094893  71.6600078  62.1785593  42.2769880
  70.8160478  61.0029507  41.8335295  37.4838996  42.9984665  20.1318002
  36.6894007  42.5415611  19.8556828  37.9476213  42.3637867  20.6780362
   1.3737890  40.9112835   2.2132622   0.4678950  41.0296631   1.9276497
   1.6120186  41.7501211   2.6080245   8.2281709  67.9013157  18.4184647
   8.8449246  67.3632383  17.9221606   8.2053107  67.4999428  19.2871475
  68.4843208  10.1887324  65.7520052  69.3867328  10.4370453  65.9525636
  68.4741475   9.2352106  65.8352284  64.9695796  55.9685183  55.9530115
  65.4678386  56.5403223  55.3690481  64.4575864  56.5680647  56.4958143
  27.7457963   4.9378211  -0.1924786  28.6516903   5.0034053   0.1096583
  27.4164882   4.1344459   0.2104718   7.6013231  70.6138325  22.8643441
   7.6404589  71.2244987  22.1282792   6.9722039  71.0074472  23.4689188
   9.4960850  59.2968130  13.0315769  10.2514970  59.7481108  12.6548600
   8.7629801  59.5462751  12.4689424   4.6614179  27.2840428  25.4696822
   4.4753626  27.4310637  26.3970447   4.6713242  28.1606936  25.0854707
  56.1400509  76.8087482  15.8280587  56.8656778  76.9241714  15.2145648
  55.9335613  75.8752298  15.7818949  13.6598357  10.7440474  44.1152131
  13.9077099  11.3433506  44.8192203  12.9209479  11.1735155  43.6841237
  40.5466666   9.8716881  54.9994814  40.1517024  10.6848767  55.3140652
  41.4667096  10.0926115  54.8547577  79.3917181   0.2858355  61.2424296
  79.3721010   1.0948565  60.7312232  78.9952757  -0.3697465  60.6686049
  11.0061789  76.4260387   2.8381222  10.9091341  75.6366014   3.3706674
  10.6810331  76.1734819   1.9739877  55.0138990   1.7910726  13.4387100
  54.9424044   1.2044580  14.1917074  55.8678691   2.2108609  13.5423601
  16.0300303  42.6866817  21.3431287  16.3413370  42.9902363  22.1958733
  16.6365921  43.0770302  20.7138896  25.6143213  73.6742110  58.0376625
  25.2894435  73.0457897  58.6824679  26.5331457  73.4364409  57.9133248
   9.2156857  74.9266243  21.6640949   9.9129564  74.4539404  21.2095428
   9.5725679  75.8037472  21.8037939  36.0658622  49.4553375  18.4813643
  36.2610006  50.2779055  18.0324364  36.9235158  49.1025543  18.7184405
   5.8988903   3.3654887   6.4501548   4.9851082   3.4615333   6.1818194
   6.0227249   4.0353400   7.1226102  12.8964853  57.9380178   8.7421340
  13.6253071  57.4388742   8.3734798  13.1972980  58.1922054   9.6145630
   8.2758125  50.2826407  62.8847673   9.0223583  50.7054713  63.3091631
   7.5166615  50.7866862  63.1777787  67.0558264  12.3055603  61.0525715
  66.7260446  11.4107325  60.9703940  67.1041622  12.4572708  61.9964355
   6.4279461  50.7134008   9.8840284   5.8191425  50.2060461   9.3472052
   6.2786037  51.6218185   9.6219116  15.3740764  20.8659863  36.9642472
  14.8215926  21.5486097  36.5834332  16.2680924  21.1851454  36.8413401
   8.3256692  19.1557598  39.5393729   7.4316466  18.8547349  39.3770814
   8.2573521  20.1103401  39.5577717  59.0152605  25.4905655  62.8590869
  59.9298133  25.7151129  63.0305585  59.0597176  24.7552159  62.2479242
  56.7721788  10.3074462  35.4794741  57.7069942  10.1910979  35.6492114
  56.4238922   9.4168956  35.4365039  27.8066111  39.4786358  32.6243901
  28.3376813  39.6742177  33.3963633  28.0409932  38.5796452  32.3939300
  80.8807685  18.1962206  59.6503943  80.0041892  18.0838063  59.2826992
  81.1405708  19.0783837  59.3848276  13.1698453  51.6216326  34.2060328
  13.4913349  51.3200283  33.3563781  13.6105669  51.0586452  34.8424625
  22.5843501  65.6430149  24.7289562  22.8360558  65.7275534  25.6485915
  22.7238297  66.5156984  24.3612599  79.2304656  41.0728216  63.8348866
  79.8049445  41.0944128  63.0695486  79.2190008  40.1531124  64.0998936
   0.7083773  61.3797045  37.4127626   0.0830080  61.4950609  36.6973329
   0.2614550  61.7348099  38.1811333  38.3496660  31.4912748   3.0315533
  38.0361122  32.0039105   3.7766162  37.9880708  31.9365859   2.2652775
  17.0272040  43.2076025   7.0433021  16.7616177  42.6057482   7.7386177
  16.6793716  44.0567398   7.3157209  33.0820107  55.0726414  20.1789832
  33.0188537  55.1481199  21.1311102  33.7792492  55.6818390  19.9361527
  71.1707491  67.5098562   8.9377409  70.9496254  68.1715155   9.5931351
  72.1258122  67.5389242   8.8808197  61.2121004  50.6601763  35.8489227
  62.0853084  50.5537081  35.4715633  60.6141919  50.4869652  35.1217818
   0.6456291  64.7747755  35.1550460   0.2815914  64.5691538  36.0161066
   1.1370742  63.9909601  34.9093890  22.6310468  62.2030258  12.0066571
  22.2981453  61.9917059  12.8788686  22.5816941  63.1576204  11.9562495
  28.9331412  75.7647419  40.5958128  28.8371062  75.0030565  41.1675119
  29.8708296  75.9566402  40.6079769  18.2524441   4.3643958  16.6049135
  19.0744744   4.6539504  17.0007122  17.7919571   3.9129741  17.3123038
  18.4224653  36.6275191  48.6608410  18.2048631  36.0046816  49.3543482
  17.9445827  37.4231815  48.8948965  26.7156506  57.9229689  11.2766218
  26.6868186  57.8422499  10.3232670  26.1835265  58.6953211  11.4678001
   6.7925972  50.1371145  22.7481890   6.1678225  49.6178722  23.2544255
   7.4210203  50.4546881  23.3966208  68.4990603  68.9452887  48.4207153
  68.3407444  68.0064487  48.3220005  68.0897099  69.1706753  49.2560959
  19.1904044  48.9825010  25.8417249  18.7834549  48.1206703  25.7529974
  19.7725010  49.0515661  25.0850058  13.0783939  69.8498774  34.6335793
  13.7556481  70.4804373  34.3887234  12.2553790  70.2804470  34.4023061
  46.3885897  73.4536552  13.9910972  46.5608710  72.6937056  14.5469987
  46.0578603  73.0821276  13.1732845  24.2914726   1.4407613  45.9568297
  24.2248776   0.7679083  46.6343736  25.1780393   1.7890122  46.0514390
  71.1233443  41.9642544  23.9175153  70.4828364  42.6240683  23.6517644
  70.5957180  41.2079096  24.1740108  36.0308895  15.5305202  13.9219201
  36.5500007  16.2964637  13.6767840  35.6210510  15.7745654  14.7518027
  55.5850330   7.8348305  60.0121480  55.8853676   7.0158388  60.4062056
  55.1386482   7.5649121  59.2095798  15.6950974  45.5559731   7.4141234
  15.9877431  46.4520216   7.5805223  14.7899461  45.5380106   7.7249449
  56.9107717  73.4134912  35.5266619  56.0738367  73.7978840  35.7874608
  57.5169677  74.1538525  35.5017281  23.1198812  69.5005226  39.0978312
  23.2034969  69.6248817  38.1524348  22.4770308  70.1555777  39.3696404
   9.6564561  57.7756214  46.9744825  10.0909877  58.1319857  47.7493477
   9.2460680  58.5344505  46.5597582   3.3335739  46.9125366  61.8996859
   2.5492814  47.4042177  62.1433401   3.2091123  46.0507298  62.2972202
   7.3691690  12.3907697   5.7572460   6.4286780  12.3353624   5.5880153
   7.4758238  12.0299208   6.6373849  16.6830814  59.4858027  25.5292034
  15.9420609  58.9133930  25.7278705  16.3748920  60.0351429  24.8084545
  63.8342541  51.7168903   5.5637079  63.2906038  52.5011158   5.6389880
  64.4961613  51.8177414   6.2477690  69.9702541  12.5903804  24.7881222
  70.0876180  12.6843364  25.7334423  70.7416002  13.0108649  24.4080472
  62.6040332   4.2125327  28.8301611  63.4154479   3.7098701  28.7582874
  62.7653639   4.8266227  29.5464659  26.7065525  17.4257660  19.5796049
  27.4186468  17.5130594  20.2132702  27.0493817  17.8210700  18.7780845
   3.8748240  38.6248755   9.8083013   3.4489810  37.7846313   9.6383661
   3.4197411  38.9733195  10.5749297  22.2600150  58.5113239  12.7102661
  23.0155778  58.4982061  13.2977927  22.6303053  58.3608866  11.8405032
  10.7148218  76.8583202  38.2925844  10.4269052  76.4873075  37.4585080
  10.1214707  76.4791203  38.9409494  68.8629490  58.0394506   3.0297798
  69.2628509  58.4248066   3.8094008  69.3750399  58.3887243   2.3003957
  64.2763883  54.2680836  27.4146724  63.3696383  54.3465900  27.7111053
  64.2168087  53.7962294  26.5839887  52.8439659  49.5146227  17.7623177
  52.5201648  48.6564636  18.0360818  53.7968963  49.4246674  17.7699959
  10.5881536  69.2491722  26.6651630  11.3398242  69.5847654  26.1766934
  10.9670103  68.6403608  27.2992325  30.6915021  67.4257040   4.9763486
  30.3090525  68.0446005   4.3543106  31.4142966  67.9068422   5.3792214
  72.8556704  42.7740765  21.6323137  72.2935045  42.2972345  22.2429061
  73.5756677  42.1707010  21.4485312  29.9722981  20.2999997   9.6540344
  30.6350970  20.2254176   8.9674711  30.1252413  19.5418310  10.2179694
   9.6554512  49.7419024  40.6601429   9.3533367  48.9610577  40.1962042
   8.8516825  50.1914310  40.9211206   8.6108333  59.2718649  20.7903099
   8.2801002  59.9921083  20.2535653   8.8575995  59.6839046  21.6182971
  69.3347494  11.4693649  22.4412799  69.6229021  11.9738109  23.2020259
  70.1163189  11.3940246  21.8938303   4.5868236  47.2347927  42.5119734
   3.9300978  47.1292400  41.8236399   4.5055947  48.1494284  42.7822828
  41.8003178  48.5988665   3.7254509  42.0884037  49.4942093   3.9032087
  41.7352962  48.5531139   2.7715588  11.0715234  33.5395050  30.2078295
  10.7471228  32.7245760  30.5910873  10.5483556  33.6561227  29.4147801
  61.3229336  17.3199465  32.4544727  61.2407019  18.2675745  32.3473632
  60.4808935  17.0460369  32.8180325  74.9511323  28.6891563  25.8910251
  74.8634944  27.9770190  26.5245938  75.6067143  28.3759792  25.2678370
  38.6850548  74.3052340  18.2091939  37.7302647  74.3403101  18.2673359
  38.8721156  74.4078255  17.2760737  35.0212407  37.6013446  21.2254381
  34.8105001  38.3261895  20.6368661  35.8172607  37.2177005  20.8574700
  15.1096161  20.3040459  43.9806520  15.2921875  20.4527714  43.0528700
  14.3562039  20.8635618  44.1691911  53.5428905  63.3205652   2.5337800
  53.1059790  62.5312090   2.8535587  53.1748629  64.0287781   3.0621964
  20.0701809  56.2530327  15.7958913  20.9984875  56.2680387  15.5629718
  19.6453452  56.7825699  15.1211071   0.1530585  15.5962467  20.2962804
   0.1400975  14.6392846  20.3131700  -0.0408709  15.8223903  19.3866193
  33.0651951  46.8757582  10.9879267  33.4897494  46.1234713  11.4002931
  32.6930761  47.3706388  11.7178965   6.1068646   1.7054422  28.3362293
   5.1593248   1.6837604  28.2023168   6.3814704   0.7922609  28.2530284
   6.4022857  67.1492052  32.6513124   6.6710722  66.8904305  31.7698240
   5.4456192  67.1310568  32.6250148   8.4189308  71.8947744  61.0269833
   8.8166177  71.7733622  61.8891525   9.1580814  71.8858004  60.4188633
  36.2013022  73.5137151   1.1742294  36.2141399  73.3808277   0.2263821
  36.2035094  74.4647358   1.2828005  28.8912582  60.3517723  32.2744131
  28.0762982  60.1242113  32.7219534  28.7310958  61.2239218  31.9139481
  10.0701511  72.1899891  48.8202238  10.1317036  73.0417061  49.2526770
   9.1376853  71.9752932  48.8456440  53.9810268   3.1801564  11.4635122
  53.1124035   2.8110511  11.3038707  54.3513719   2.6309068  12.1544540
  43.2561398  44.7767782  31.3538408  43.3321619  44.8831463  32.3020697
  44.1383457  44.9445868  31.0225105   7.2828448  53.1077290  32.7671671
   7.1909243  52.7229834  31.8955278   8.2116574  53.3290911  32.8345299
  76.6094257  10.2106907  48.8224613  77.3646714  10.1564076  49.4080281
  76.0868218   9.4369461  49.0332543  23.3364892  36.6537476  43.1427002
  23.5278010  37.3371935  42.5004148  24.0387797  36.7288494  43.7887478
  32.6136684  56.1447144   3.0820826  31.7609382  56.1522150   3.5168573
  33.0175209  56.9756269   3.3325243  63.1158145  35.4537966  46.0706174
  63.7234344  34.8776581  45.6068336  63.0422314  35.0705340  46.9446480
  43.6133865   3.4330375  52.0154524  43.9728526   2.7725274  51.4232206
  42.6647047   3.3520133  51.9171095  20.0555134  73.0199289  27.3867297
  20.9054852  73.0459929  27.8261638  20.1559925  73.6051369  26.6359520
  38.9941982  21.0990436  14.1363871  39.8568563  20.8300025  14.4520843
  38.5330335  20.2769859  13.9697409  14.1224110  75.0146866  21.0893512
  13.5591173  75.1586771  20.3289580  14.9404728  74.6804333  20.7215428
  16.6968107  38.1884718  28.7609959  15.9146273  37.8457713  29.1934061
  16.4806604  39.0994143  28.5617638  36.4476393  16.0584457  21.6502476
  36.2917320  15.5461223  22.4436259  35.6679128  15.9133155  21.1143398
   0.1122650  36.6216566  65.3785432  -0.3080193  35.9466316  65.9113986
   0.5971845  37.1559050  66.0075598  14.1304413  20.0432975   6.1330104
  13.6971466  19.8482330   5.3020841  14.4710986  20.9310252   6.0228848
  73.8342418  47.2952273  60.2985608  73.9357581  48.1763937  60.6583791
  74.7138145  47.0514776  60.0101649  47.6186228  45.6573391  19.6717906
  47.9616451  44.8898649  20.1295662  46.6873121  45.6714201  19.8924398
   9.6626431  47.4890089  27.4996924  10.0640559  48.1768608  28.0306935
   8.8542241  47.8817225  27.1703506   2.6486999  66.1229134  21.8209696
   2.0627223  65.3681946  21.8780589   2.2161791  66.7160320  21.2066674
  52.5275171  33.5390713  60.7308769  51.8836166  34.2420723  60.6447821
  52.0452376  32.8215363  61.1417025  59.9447536  64.6572971  17.5851047
  59.5696306  64.6971750  18.4648335  59.8039913  63.7527418  17.3054814
  72.7199817  56.1404133   1.2508605  72.4689281  55.9122658   2.1459317
  71.8887585  56.2356710   0.7858592   3.3954016  68.3739657  55.3124141
   3.4966580  68.5058208  56.2550663   4.2914550  68.3102460  54.9818682
  51.0638253   7.8794200  16.0571682  50.1712433   8.0005939  16.3809657
  51.6217271   8.1240566  16.7954946  31.8327546  47.4337101   5.2850449
  32.3080540  46.6032791   5.3117776  32.2766614  47.9420042   4.6062097
  18.2894707  46.9634867   8.4350032  18.4983575  46.3556051   7.7257252
  18.5923207  47.8144312   8.1181288  75.8346693  27.3050029  23.8880038
  74.9718229  27.3265083  23.4741664  76.2657158  26.5416820  23.5035968
  14.5768762  58.6159229   4.6034202  13.9158261  58.8454723   5.2565289
  14.1282845  58.7146807   3.7636322  16.4710009  59.0297651   9.3459046
  17.3200738  59.0729046   9.7857285  15.9738612  59.7609138   9.7126502
  43.9744520  55.5272388  24.5149946  44.1430569  55.5116129  23.5728908
  44.2209578  56.4110041  24.7878027  22.3420251  18.8732154  26.1907148
  22.3752506  19.2623336  25.3168058  22.9277117  18.1178863  26.1390018
   1.0571669   4.5353706  18.6139929   0.2741383   4.4457919  18.0707848
   1.4390133   3.6577804  18.6303270   2.3294505  28.5893442  38.3680808
   3.1441100  28.8299181  38.8093125   1.6502531  28.7243225  39.0289175
  15.2718258  64.7497034  23.0123520  14.7657847  64.3707514  22.2936392
  14.6634436  65.3501797  23.4430885  34.1296387  52.5556803  19.4790149
  33.9899921  52.7068138  18.5441947  33.8980269  53.3869457  19.8932505
  48.6147404  58.7252617   3.6315426  48.9785576  58.1116581   2.9932937
  48.2829094  58.1690359   4.3363366  25.7904696  37.1716189  23.3698797
  25.5857706  36.6455197  22.5968647  26.0408115  36.5313506  24.0359235
  16.1162758  65.7032967  12.0452917  16.0924006  66.6562080  12.1325970
  15.2057374  65.4297256  12.1562445  25.5644965  55.7025385   2.3280369
  25.4548192  55.0547934   1.6318831  25.6510234  56.5370512   1.8672448
  76.6606404  26.7482617  64.6320700  76.8419506  27.5049546  65.1895377
  76.9689061  27.0104744  63.7646323  42.1204424  74.3967724  14.1474736
  42.2143078  74.0761375  13.2504702  42.8925657  74.9447918  14.2879665
  57.3124536  21.3342764  62.9416733  57.3336711  20.3880408  62.7987891
  56.4010408  21.5800717  62.7831059  49.8418789  34.3326189  63.4259736
  49.6709951  33.4819748  63.8302466  49.1234877  34.8892596  63.7264668
  79.6627179  53.5115433  47.8738594  78.8605219  53.5464287  47.3528051
  79.4033039  53.0723667  48.6838341  16.7776537  67.4261999  30.6156468
  16.5807211  68.3110189  30.3081632  16.7567825  66.8875694  29.8246503
  18.2692361  28.3001113  16.8721688  17.7491724  28.5651731  16.1135471
  18.6986840  29.1052341  17.1612823  46.2423543   9.2064769  50.6493998
  46.5070061   9.9833209  50.1567411  46.5522710   8.4708125  50.1212215
  30.4510377  11.5812213  10.7840610  30.4665328  11.4505203  11.7321694
  29.7458599  12.2124393  10.6407952  62.4673168  16.6468436  18.9063728
  62.0445959  16.6949088  18.0489171  63.4029977  16.7145927  18.7162578
  10.4514253  65.0969887   0.3153419  10.6290185  64.4353771   0.9838980
  10.4680407  65.9278870   0.7902740  11.4021468  40.9096527  29.2421889
  11.6951430  41.6240311  29.8079157  12.0297849  40.9036064  28.5195112
  15.9655436   1.6725852  63.2443290  16.5907582   1.8213513  63.9537018
  16.4691122   1.2103750  62.5742456   4.8862305  38.6389542  22.5576830
   4.6109879  38.7168384  23.4711409   4.5499527  39.4307280  22.1378660
  48.1812588   4.3304355  21.3125825  48.5826866   3.6923225  21.9024110
  48.5152189   5.1761920  21.6115928  59.8337334  54.0180016  51.1468887
  60.2863377  54.4815874  50.4422808  59.7734803  54.6589470  51.8552589
   9.2239650   2.7332451  58.3133155   9.6927770   3.5604861  58.2032543
   9.4830211   2.4248221  59.1816455  14.8776750  15.8076102  17.3360085
  14.0455643  15.4651935  17.6624656  15.4228667  15.0311668  17.2089839
  55.9140221   5.4566200  14.6019900  56.7086140   4.9600227  14.4064260
  55.6299893   5.1279170  15.4549313  38.8032055  65.8971930   5.9233004
  39.1190410  66.5508270   5.2994084  39.1425371  66.1898327   6.7691416
  21.5364114   8.8711269   9.6482933  22.0168767   8.1691081  10.0871062
  21.3726507   9.5158488  10.3365827  44.0055704  51.6702271   1.6275211
  44.9423552  51.6136980   1.8158469  43.5834074  51.5737820   2.4811655
  23.7838364  51.0582829  37.1416855  22.9509664  51.2960720  36.7342377
  24.3742251  51.7775345  36.9173074  38.3053088  58.4201765   0.0364303
  37.9457951  57.7703905   0.6403846  37.5385666  58.7919569  -0.3995948
  77.0040506  50.6925821  34.5653272  76.6797259  50.5091763  35.4470348
  77.3271170  51.5924406  34.6113253  68.7619176  37.3341896  53.7389135
  67.9346003  36.8916991  53.9286017  68.5719730  38.2632735  53.8691413
   4.5900390  31.0826755  26.2240338   4.2980233  30.6260705  27.0130014
   4.5551005  30.4181838  25.5359507  35.0454259  61.5844822  14.5734274
  35.5550766  61.6261101  13.7642574  34.3419719  62.2210836  14.4464374
  40.4642026   7.1711833  16.3765574  39.8334448   6.7431838  15.7975984
  41.0223750   7.6798541  15.7883966  29.7766924  52.7274895   6.5464693
  29.6970034  51.7787170   6.6450191  29.7705865  53.0627680   7.4430096
  11.0181725  70.5854225   7.1934348  10.8729315  71.2058592   7.9077137
  10.2814651  70.7276964   6.5990835  70.4447691   0.1880700  13.7475669
  70.5009405   0.6257350  12.8981411  71.3538925   0.1074941  14.0360701
  15.7579525  42.0656588  56.7396360  15.3570946  41.7013838  55.9504294
  15.0456818  42.0948794  57.3784232  18.8090777  63.3024073   4.8048303
  19.1297722  63.2350349   3.9054704  18.4358442  62.4408960   4.9911952
  30.9663177  55.5076885  18.6663377  30.2252674  55.3376245  19.2478502
  31.7242241  55.1597452  19.1361725  46.3154296   1.9791658  43.6790848
  47.2100059   1.9923074  44.0193653  45.8165316   2.5143821  44.2962360
  15.1562870  47.2409248  29.1570497  16.0333264  46.9451952  29.4011378
  14.8270142  46.5576744  28.5731149  56.2854481  67.5363922  15.0448775
  55.7777166  66.7461348  15.2290893  57.1678925  67.2160101  14.8581207
  31.4381838  50.1490736  27.5255919  31.4316344  51.0226488  27.1343708
  30.5793834  49.7844315  27.3117518  76.0057348  72.3703861  29.1178060
  76.2018812  72.6920986  28.2378840  76.8498418  72.0738983  29.4581151
  43.6943197  50.3111887  21.4788055  43.3233166  49.9728632  22.2937441
  44.3104124  49.6349001  21.1972022  56.9023897  31.9162705  49.9479091
  55.9533148  31.9811871  50.0540900  57.0911427  30.9830525  50.0464606
   1.3451656  70.1366236  60.7952392   1.7239006  69.9698546  59.9321174
   0.8340844  69.3506911  60.9884560  21.3607740  58.7783194  17.7667093
  21.3280249  59.2562103  16.9379902  22.1344328  59.1238308  18.2120252
  69.0952770   1.2791021  28.5340071  69.6191494   1.8373019  27.9593778
  69.3847267   1.5063722  29.4176364  17.5038195  57.7446318  29.8757982
  16.8402255  57.0569277  29.9300361  17.0545375  58.4784603  29.4564271
  68.9970471  37.9010155  42.2587263  69.6146454  38.5207178  41.8704354
  68.7591447  37.3169663  41.5386402  60.7207886  14.0234763  47.6881409
  60.0300852  13.6239249  48.2168388  61.5350167  13.7014110  48.0748415
  17.9308188  50.1292229  16.6957271  18.2261324  50.9853506  17.0056713
  16.9780338  50.1585865  16.7827404  65.5327984  10.2244525   4.6647871
  65.8792420   9.4162183   4.2866791  65.0858100   9.9430566   5.4630650
  22.8033257  68.9399290   8.1783980  23.1391668  69.0997601   7.2964138
  21.9317913  69.3357372   8.1781989  40.6577627   4.0221698  29.4999290
  40.5971734   3.3355863  30.1641250  39.7573964   4.1442401  29.1988111
  41.0553789  43.0068254  32.1295643  41.5774393  43.4738827  32.7819014
  40.7434320  43.6913538  31.5376663  28.6672163  74.4290495  14.8798752
  29.6185303  74.3233967  14.8881328  28.3801484  73.9532757  14.1004765
  18.9276465  57.9929068  46.4417564  18.9053257  57.5206663  47.2740519
  18.1939562  58.6054327  46.4941704  36.8904136  16.6246707  38.8371992
  37.3824469  15.9024150  38.4467053  35.9849451  16.3148410  38.8564324
  65.9861761  66.3356304  25.2052379  65.5190927  67.1639347  25.3146529
  65.2942127  65.6818676  25.1051617  24.9833727  73.0799818   5.7803839
  25.3793120  72.3216963   5.3508896  25.0876594  72.9068422   6.7160004
   5.8139408  68.3805132  43.8088799   6.5983641  68.6870432  44.2638016
   5.4991710  69.1476870  43.3307600  44.9327795  10.9351928  25.3469753
  44.3708984  11.2244136  24.6280384  44.4336824  10.2404220  25.7764316
  49.9098436  14.5996482  40.9769917  49.6745602  13.6734874  40.9213305
  49.5568577  14.9850566  40.1750612  70.6541681  41.5941334  14.7248864
  71.0961151  40.7566118  14.8644352  69.7263050  41.4004898  14.8583317
  45.4163074  70.5782890  30.7450151  45.9493685  70.4452562  29.9611902
  45.6732082  71.4428902  31.0654759  13.0776083   0.6717119  39.3268454
  13.2638800  -0.1270476  39.8203217  12.4937475   0.3879842  38.6234009
  79.4347407  15.2820494  66.4185642  79.7685315  15.7989123  65.6853054
  78.5383775  15.0599911  66.1666616   1.4974058  74.8933983  21.0605931
   0.9021408  75.2861166  21.6990805   1.9549738  74.2090797  21.5490270
  53.5207081  70.8186531  31.8383908  54.3047428  70.9419441  31.3033032
  53.8553524  70.6676054  32.7223754  48.6268036   6.5166671  27.0828462
  48.7705866   5.8075340  26.4561915  47.8450958   6.2526519  27.5680900
  14.5987175   2.1370561  12.2817004  13.8152788   1.9412000  11.7677999
  15.2732513   1.5634353  11.9181097  10.9169161  72.2596312  14.0301776
  10.4552531  72.3108006  13.1932294  11.2660456  73.1405735  14.1653800
  14.3475874  58.9425664   1.8692657  14.7358855  58.1354051   1.5317062
  14.0288742  59.3989365   1.0905614  24.9658561  65.5030060  12.4517417
  24.9127221  65.8520937  11.5620518  24.1863275  65.8444071  12.8899348
   2.2825140  39.2042208  30.5117559   1.7301026  38.4739900  30.7907438
   1.9266532  39.4625545  29.6615458  29.5858788  69.3231773  13.5963655
  29.3268228  69.9707985  12.9408467  28.7633824  69.0544415  14.0056503
  24.2481041  20.1800942  13.4445143  24.3962812  20.4783678  14.3419039
  23.8399744  19.3198109  13.5423696  69.7087365   1.7484902  31.0624766
  69.0899354   2.1454486  31.6754532  70.2676707   1.1969643  31.6098738
  47.1543312  23.1747508  29.7269940  46.8284369  23.1431198  28.8275385
  46.5121365  23.7076783  30.1958275   4.1988787  62.1662760  38.6316276
   4.5320296  61.6900826  39.3922043   4.9828830  62.4110889  38.1400633
   6.9799137  43.5746813   9.8452497   7.0199233  43.9769840  10.7128811
   6.0845345  43.2434416   9.7758901  18.4520674  53.1986952   0.2433618
  18.3756697  54.0645456   0.6442371  18.4523392  52.5913858   0.9832334
  16.2777638  70.6106806  38.3833647  16.2174284  69.7196293  38.0389595
  17.0454204  70.9835434  37.9498816  58.5666863   8.6746890   2.4632281
  59.4183461   8.3679778   2.7744168  58.2807223   8.0015571   1.8456917
  17.2758653   1.5377810  54.5139980  18.2327106   1.5546562  54.4942164
  17.0548060   1.5771653  55.4444897  13.7964463  18.2806981  39.8597741
  13.6868942  17.7482140  40.6476116  12.9253614  18.3044374  39.4636917
  79.7947048   1.0797152  16.7408085  80.3126104   1.7173500  16.2494564
  78.9640960   1.0302093  16.2676597  12.3768214   6.8992622   7.0802581
  13.0708818   6.8592078   7.7382159  12.2731105   5.9943015   6.7861247
  17.3924625  21.0323071   4.4745201  17.2915387  20.4380512   3.7309423
  16.5129685  21.3786483   4.6254224  63.4316470   7.9794314  59.8486632
  63.8217105   8.5443833  59.1816449  62.6513090   7.6170780  59.4291347
   9.4759758  11.0133602  48.0934774   9.1316017  10.1468088  48.3096551
  10.2761491  11.0895922  48.6132287  73.4442343  19.5359089  49.0441632
  73.3473112  20.4601004  48.8145816  72.7458264  19.0945246  48.5608029
  27.3384531   1.1205985  59.6510046  28.1795700   0.9135225  59.2437285
  27.3567446   2.0703461  59.7688043  71.8787458   5.2595856  58.9360910
  72.6572182   5.7357886  58.6472177  71.2067380   5.4868891  58.2934635
  18.4218729  62.1728611  12.9200840  18.6587834  63.0713129  13.1500697
  19.2586565  61.7115498  12.8633952  26.3024807  49.4891644  34.8819542
  26.7070532  50.1267433  35.4702091  25.4086328  49.8091984  34.7601032
   4.1046794   8.0740454  56.8411809   3.3238109   7.5351717  56.7143273
   4.4637593   8.1863453  55.9610211  56.8797742  25.2005913  57.2144430
  57.1599673  24.4051983  57.6672935  56.9602512  25.8915379  57.8719758
  36.3380480   7.7689528  23.5781932  36.2738109   8.6825264  23.8565612
  37.1388292   7.7337331  23.0549884   5.1382446  63.4862375   3.6064667
   4.2232326  63.2277584   3.4961426   5.6310809  62.8494930   3.0888766
  17.9641998  65.8283949   5.4608768  17.1515143  65.6129074   5.9184116
  18.2578135  64.9964666   5.0895005  20.8483791  27.1180820  26.8780661
  20.0196838  26.8829250  27.2954321  20.6439304  27.8980994  26.3623095
  22.4361873  41.8542862  29.6497536  22.7916431  41.0231638  29.3349266
  21.5361023  41.8684387  29.3243670  30.2574364  66.6109939  65.2001566
  30.8864374  67.1659036  65.6613104  29.9469424  67.1527190  64.4746512
   6.5351772  69.7633457  17.3061121   6.4785326  70.2684164  18.1172395
   7.0275295  68.9784861  17.5465620  81.2040342  38.4858775  29.1362906
  80.7827092  39.0317178  29.8002005  81.6240532  39.1099763  28.5444140
  56.9102478  33.0929208  10.1200092  57.6471090  33.7023664  10.1629674
  57.2761822  32.3022461   9.7235805  29.7829159  13.1925728  62.6828250
  29.2196043  13.0829050  61.9167417  29.2893322  12.7975895  63.4015712
  41.3519287  56.1751938   1.6560885  41.2322474  56.9457340   1.1009496
  41.1198235  55.4363298   1.0935578  44.1985321  57.2724342  12.8774583
  43.5134697  56.7064524  12.5216675  44.9763346  57.0604706  12.3613894
  63.8713708  17.5797226  33.8455879  64.1432919  18.4858610  33.6999833
  62.9447522  17.5662710  33.6059463  23.4948277  23.2499194  19.4377327
  24.0034628  23.8278270  20.0065446  22.5882578  23.3749247  19.7183371
  22.1418191  19.4078929  23.4128976  21.4343272  18.8216407  23.1445932
  22.9023085  19.1095073  22.9140496  20.0711465  11.9585943  18.0305207
  19.4871938  11.6040087  17.3600745  20.6939936  11.2526059  18.2033634
  67.6294794  33.8948443  30.8353745  67.4098303  34.1619923  31.7279088
  68.5771753  34.0154173  30.7756435  65.0812584  73.9077902  18.1576705
  64.7764498  73.1847572  17.6094544  65.9102470  74.1759300  17.7612996
  38.2149245  24.9878361  59.9999588  37.8029360  24.2882492  59.4929325
  38.5361900  24.5536234  60.7901990  54.4475698  16.6719343  50.2251958
  54.2327799  17.2692539  49.5087444  55.3992118  16.7312910  50.3093779
  77.9334738  28.3656361  47.2884547  77.6169278  28.0712797  48.1424951
  78.1817963  27.5603487  46.8344974  17.4311741  40.3376629  52.9218900
  17.1971854  41.2606194  53.0200111  17.8889616  40.1190283  53.7335920
   7.1882637  20.4634335  50.8617568   6.5059527  21.1288121  50.7725763
   6.9272908  19.7700312  50.2556908  65.7310694  16.9834173  42.0200205
  66.4038795  16.3454497  42.2578382  65.3601128  17.2634876  42.8567886
  57.4872845  41.0052013   2.6731011  57.2021574  41.4964342   1.9026302
  58.2189673  40.4730272   2.3605877  29.8884559  47.4018860   7.3992467
  29.9477577  48.3570719   7.4176276  30.6276441  47.1264124   6.8570817
  51.9223581  71.4794941  35.3688085  52.8779660  71.4862342  35.3140079
  51.7364941  71.2837310  36.2871563  16.5885361  31.6538908  49.6043479
  17.4607762  32.0481016  49.5991694  16.0249003  32.3141386  49.2010831
  18.2420421  33.2484341   8.5169989  18.6382735  32.4349928   8.2046765
  17.3758876  32.9880452   8.8303757  16.9862421  18.9665463  52.6791870
  17.8323754  19.2953493  52.9828000  16.5697296  19.7227957  52.2658550
   8.9052010  41.3792133  25.2729750   8.0167961  41.7337322  25.3088093
   9.0288675  40.9565258  26.1228418  36.5181067   1.6265824  61.1055976
  37.0293655   0.9350970  61.5259480  35.8944704   1.1591985  60.5498445
  63.2882049  19.1089060  64.0158203  63.7047585  19.8462488  63.5696798
  63.9132853  18.3897354  63.9247372  39.4419932  36.2253523   8.7968844
  39.3278575  35.2911091   8.6225444  39.2621779  36.6493106   7.9577434
  76.0995104   7.7496435  62.0626735  76.1530187   8.1040814  61.1751234
  75.9216358   6.8174174  61.9379818  70.7245074  62.2098012  57.2731459
  70.3448162  62.7729411  57.9476386  71.6307126  62.5078650  57.1945184
  11.6641458  17.3065951  34.8373830  10.9494813  17.8544333  34.5127880
  11.3810380  16.4106276  34.6548354  39.3403792  54.6583652   8.5428721
  38.4081125  54.7945309   8.3738416  39.4331837  54.7826004   9.4874269
  34.9185852   6.6502959   3.1781179  34.4970677   6.3527591   3.9843583
  34.6217296   7.5541122   3.0721089   0.2565380  19.4836438  20.2061582
  -0.6985626  19.4484091  20.1534986   0.4773344  18.9093542  20.9394193
   1.9798091  38.8313866  22.3111415   2.1242470  37.9359698  22.6170826
   2.2721508  38.8231707  21.3997149  70.0725724  34.6723034  64.5156438
  70.7631173  35.0800469  63.9930281  69.9338498  35.2780964  65.2436587
  21.2966681  61.0416365   5.9764504  21.6735864  60.1713848   6.1061841
  20.3510809  60.8935690   5.9632897  54.3478966  21.4535117  49.2340660
  54.3655825  22.3432398  49.5866346  54.9053812  20.9497619  49.8270893
  22.6854491  12.6757312   8.0145729  21.9340014  12.6372790   8.6062485
  22.9766679  13.5866070   8.0561501  16.9784033  63.0556345   1.5866224
  17.8571320  62.9732323   1.9571310  16.4504421  62.4282598   2.0804748
  77.5389196  53.4145834  34.4936883  77.5443008  54.0755942  35.1859796
  76.6715934  53.4912493  34.0960705  12.8315938  50.5412483  12.7547014
  13.4629202  50.5773258  12.0361221  13.2331526  49.9562693  13.3971786
  69.2398276   2.9010298  53.0838203  70.0386514   2.7523377  52.5778532
  68.5500207   2.4785998  52.5720083  23.1834650  40.6396914  23.0410624
  23.9209986  40.6347418  23.6511874  22.8904390  41.5508270  23.0269098
  48.0413008  55.1774597  29.3717480  48.9678240  55.3772926  29.2381310
  47.6722622  55.1509809  28.4889460   2.2241735  55.8517981  31.0037875
   3.1667185  55.6851959  30.9946084   1.8468615  55.1201820  30.5153179
   9.5484503  26.9870379  53.3422827   9.5443233  27.0701983  52.3887109
   9.3112572  27.8583576  53.6597228  69.3438937   8.6320164  51.3279354
  68.4922757   8.4355404  50.9375822  69.1339781   9.0698769  52.1528267
  70.4039305  47.3047066  28.9764833  71.2465483  47.2976828  28.5224128
  69.7680229  47.0573759  28.3051562  39.4174051  40.1042175  10.4507387
  38.6611176  40.4327059   9.9645698  39.2238736  40.3132200  11.3645756
   3.2868870   8.2701113  63.6707752   3.0449231   9.0227415  64.2104318
   3.4528883   8.6404564  62.8038734  22.5764012  53.6768007  36.0322428
  22.8961086  53.6260080  35.1314449  22.8928995  54.5218945  36.3514304
  43.9333318  62.4458118  62.2196108  44.7620247  62.4461455  61.7405480
  43.5700832  61.5730805  62.0692119  20.2524853  13.2869303   9.7014457
  19.7315907  12.4951589   9.8356026  19.7480536  13.9804041  10.1267374
  33.6503895   9.3558838  53.4917533  33.7257965   9.1799309  52.5538909
  32.7091702   9.4386389  53.6450016  25.7180422   0.8601625  11.3437939
  25.8856816  -0.0724738  11.4791477  25.4670004   0.9271533  10.4225326
  40.1707220  42.8957033  36.3296413  40.7751083  42.2076797  36.0511255
  40.3693104  43.0281258  37.2566032  26.9048715  28.8303661  12.5785768
  26.4936924  28.5757160  11.7525518  27.6592994  28.2469583  12.6604414
  24.3592405  23.3044410   9.1538268  23.6144400  23.7337399   9.5747846
  24.7514153  23.9860034   8.6080199  38.4800792  18.5371065  12.9635704
  38.3641267  18.1036866  13.8091075  38.8973379  17.8762782  12.4109101
  33.3665667  71.1384840  61.2128674  33.4500543  71.6629739  62.0092168
  34.2459915  71.1352129  60.8349347   1.7082188  57.2503233   6.5435380
   1.5172897  56.5284109   7.1423846   1.0138326  57.8882217   6.7083019
  34.8109492  11.5574457  54.3656396  35.7455500  11.3517954  54.3441402
  34.4028767  10.8732035  53.8350510  49.7421598  47.6788044  35.5201030
  50.4013491  47.1939850  36.0167408  48.9909649  47.7352571  36.1106539
  17.7037346  57.3237753  20.5073619  17.3707294  58.0956364  20.9651494
  18.0496597  56.7638063  21.2023425  46.9074200  61.5630550  59.7503095
  46.9944463  62.2417970  59.0810042  47.1599470  61.9966931  60.5654299
  76.5653374  27.1338751  59.4189065  75.6493737  26.8921044  59.2818492
  76.6221048  27.3378756  60.3523910  51.7727183   1.1904742  51.2789010
  52.4556649   1.5961530  51.8129801  52.1338356   0.3381374  51.0352849
  19.7725308  62.8983879   2.3669697  20.0100136  63.7138224   1.9254963
  20.5597281  62.3568630   2.3094986  19.2671919   3.7242568   5.6840765
  18.7133443   4.3434978   6.1594981  19.4352651   3.0219677   6.3123870
  48.8719082   8.7966478   8.5021847  49.0004206   8.0028069   7.9830188
  49.7103405   8.9325327   8.9435446  32.3290853  72.9387350  46.6839420
  32.7030818  73.7694902  46.9775462  31.3839133  73.0534096  46.7825925
  23.0819233   3.0244448  63.5137522  22.7022751   2.3721030  64.1024410
  22.8341492   2.7293541  62.6375299  15.6132376  20.3107595  16.1512089
  14.7375190  20.6858778  16.0582817  15.6100571  19.9071825  17.0191646
  48.9971656  61.1333466  12.9836333  49.3160433  61.9774342  13.3031094
  49.0155953  61.2156534  12.0301569  40.4708242  62.4866676  17.4971282
  40.3299952  61.5398979  17.5020993  41.1052322  62.6307678  16.7949963
  36.8765259  31.7466903  22.1413422  37.4124575  31.2465024  21.5258551
  36.8420506  31.2011814  22.9271293  30.6821775  33.3041286  15.7157028
  31.1201787  33.6402893  14.9337935  30.9638906  32.3911977  15.7742250
  16.7770155  12.7396919  45.7449901  16.6644820  12.0413973  45.1000511
  17.4804791  13.2828858  45.3895866  39.4277287  47.4690390   9.1391468
  39.2615938  47.9349852   9.9586129  39.6618295  48.1567144   8.5158271
   0.6608097  70.1978254  19.3446779   0.0504115  70.8336544  19.7179961
   0.3878000  70.1114368  18.4313142   0.8990524   7.6915652   6.1396992
   0.4476736   8.1177814   5.4111165   0.3842543   7.9276187   6.9113839
  30.2091646  42.2087908  23.3595252  30.3892207  41.2827969  23.1972027
  29.4257569  42.2076321  23.9095259  29.5627546  50.2397156  11.4932871
  29.2719793  50.7535315  12.2467279  28.7775445  49.7761631  11.2020922
  65.3077104   2.8564026  40.9562957  65.2335455   3.8105633  40.9387290
  65.8268418   2.6422074  40.1811492  34.4136405  33.6267352  12.1019912
  34.2391372  32.9003882  11.5034926  35.1323366  34.1077590  11.6917229
  26.7820790  52.2714896  63.6392655  26.0119277  52.8398974  63.6428430
  26.5139535  51.5080793  63.1278520  49.6340171   6.5225417   7.1808630
  49.3696658   5.6026561   7.1682113  49.8721377   6.7158038   6.2741232
  53.6884795  69.5471187  52.7236449  52.9729948  69.9015255  52.1957135
  54.3045412  69.1905994  52.0836496  38.0424857  67.1302986  25.2894759
  38.2990217  67.8901052  24.7668743  38.3083773  67.3525047  26.1817527
  17.9537773  44.7431898  35.3888154  17.7671278  45.0465107  34.5003390
  17.1678257  44.2620611  35.6477118  17.2661519  43.3608341  46.9999123
  17.7852440  43.5427809  46.2165403  17.5742340  43.9977264  47.6446486
  16.2752283  76.4010286   5.7047653  16.1850119  76.5147638   6.6508925
  15.4541039  75.9906721   5.4334831  10.0851973  36.7577030  60.2043235
  10.8502825  37.2501137  59.9069857  10.2560838  35.8581450  59.9253582
  12.9047799  65.0881338   6.7785764  13.0599046  65.9787703   6.4640355
  12.1416950  65.1658583   7.3511952  63.2028451  22.2047426  54.6578919
  62.5250628  22.7717688  55.0257551  62.7687087  21.7495730  53.9363801
  50.9468333   0.4739864   5.0584912  50.5429880  -0.1459258   4.4511610
  51.3908521   1.1071641   4.4944328  61.4523818  13.0833008  65.5254174
  61.8748273  12.8118422  66.3403304  60.6973131  13.5995772  65.8074855
  31.3362265   0.5451352  21.0316324  31.9715881   1.2536880  20.9291482
  30.8508706   0.7715411  21.8249798  70.0950303  23.7387659  65.5254007
  70.2490129  23.9294197  66.4506967  70.8568599  23.2253315  65.2566421
  35.8481789  72.6005268   7.1105444  34.9164391  72.4833202   7.2958964
  35.9305143  72.4209118   6.1739594  21.0941752   4.3967249  59.4421821
  21.4283474   3.8781788  60.1740765  21.5151604   4.0197184  58.6696106
  69.1636147   9.1046097  57.7428525  69.9112179   9.4719651  58.2144123
  68.6332430   9.8651268  57.5050520  49.2122984  41.5104485   3.6395669
  50.1198101  41.3668871   3.3711639  48.8405275  42.0548296   2.9455435
  80.1896169  32.2288086  61.4776775  79.3013837  32.5831272  61.4360702
  80.5339982  32.5432446  62.3135975  73.9605298  42.7724364  50.4374504
  73.6005666  43.0713084  51.2725150  74.8656251  42.5343134  50.6382811
  67.3659269   7.1497638  25.2165318  67.4725238   8.0983550  25.1454377
  66.4851848   6.9819267  24.8813391  18.9661368  28.6810686  58.4373331
  18.8109740  27.9213383  57.8761160  19.8735340  28.5841086  58.7262296
  30.7966423  40.5755568   9.3402731  31.0566592  40.0808382   8.5631776
  30.7677722  41.4859581   9.0460521  43.7232304  30.5301547   9.1410357
  43.2890129  29.6840143   9.0327317  43.0116796  31.1698055   9.1133130
   9.0515125  53.2792234   8.2542574   9.2601895  52.9639053   9.1336101
   9.7297943  53.9275885   8.0650699  19.9401522  47.6453018  29.5807910
  19.9710214  48.4900141  30.0299430  20.8525229  47.3575735  29.5487785
  20.0093087  27.6154520  51.2832033  19.4342574  26.8947747  51.0259604
  20.1965483  28.0761101  50.4652988  25.7812214  45.1772308  12.4070561
  26.1159110  44.5273352  11.7891121  24.8583627  45.2769566  12.1733427
  24.5856619  51.0788536  11.1640179  24.6559620  50.1361132  11.0139370
  24.4529319  51.4509439  10.2921426  19.1623886  28.2363798  42.2059261
  19.7392567  28.1496479  42.9648268  18.5526951  27.5025513  42.2834169
   1.5646323  23.7582257  63.1573891   1.0045393  24.5344069  63.1487187
   2.2543748  23.9676096  63.7871861  18.4167822  23.2079842  60.7689714
  18.5086687  23.8074877  60.0284415  19.2416724  23.2902767  61.2475329
  53.1108284  64.4889784  20.7535410  52.1686077  64.3293476  20.6990480
  53.5010099  63.8100815  20.2030015  11.8250974  33.7933638  52.7594339
  12.4986060  33.2096340  53.1085395  11.7267521  33.5261061  51.8455779
  25.7710030  63.9084120  65.9620941  26.4073412  64.1770453  65.2994161
  26.2466764  63.2864900  66.5127097  34.5032287  49.6810675  24.7535753
  34.4117332  48.7603140  24.9986672  34.4358253  50.1570845  25.5812836
  24.8189747  69.8102422  64.3993656  24.9780818  68.8748593  64.5257619
  25.6452848  70.2285643  64.6411308   3.5384908  60.7529402  16.0495114
   4.2433599  61.0227919  16.6382158   2.9789793  60.1923084  16.5869784
  36.3380957  76.1484385  31.9904947  36.6907358  76.1023855  32.8791761
  35.9980559  75.2696991  31.8219090  44.8730755  73.7104177  10.2553964
  44.9073267  73.4920120   9.3240750  45.6137562  74.3015623  10.3901768
  54.8299946   3.7923863  51.8866634  54.0993117   4.3190291  51.5626537
  55.3561092   4.4039681  52.4018383  70.1767677  50.0805187  24.8381591
  70.5453426  50.9572172  24.9467039  70.7881910  49.5050621  25.2977681
  26.4285048  27.9853823  64.9213112  26.0599287  27.6302387  65.7301716
  25.8988007  28.7610819  64.7370913  35.6848550  52.5387621   2.0132472
  36.0351324  51.6865063   2.2724602  36.3007331  53.1726789   2.3807758
  75.6963422  10.5299141  52.7712476  76.4538862  10.9578516  52.3722159
  75.3697207  11.1658623  53.4077370  40.1661587  74.8839617  16.1148536
  40.7293177  74.7762060  15.3483868  40.7387352  74.7025871  16.8601668
  37.9303322  76.7311878  54.4623982  37.6708816  75.9511991  54.9528384
  38.8863836  76.6914458  54.4375002  41.3769088  74.6630068  53.1157934
  40.8362387  74.2488952  52.4431729  41.8408320  73.9361019  53.5312616
  34.7715378  73.1066608   3.6241183  35.2826548  72.4042559   4.0261352
  35.2651525  73.3427238   2.8387213   3.4566763  72.3575115  34.2812324
   3.1897956  72.9574203  33.5847330   3.6296520  72.9246902  35.0326419
  78.8128545  52.3983195  38.2382094  78.8793184  51.9578459  39.0854370
  78.6045100  53.3067705  38.4562575  37.3998094  55.1374960   2.2354162
  36.5647268  55.4740286   1.9104330  37.7211475  55.8212328   2.8231901
  65.5154671  50.3562834  64.6923214  65.7697739  51.1412718  64.2071840
  64.6715798  50.1054194  64.3166163   4.5548709   2.0573475  52.6649343
   5.0320061   1.5485742  52.0094013   4.4360240   1.4527251  53.3974218
  79.2289903  20.3966429  44.8024427  78.3952047  20.7653954  44.5107996
  79.1933157  20.4496147  45.7575118  45.6023238  65.4022474  26.7381012
  45.8486531  66.2141438  26.2949573  45.9530411  64.7085686  26.1794960
  14.5648392  13.8532259  39.4591653  14.4202813  14.5031979  40.1468217
  15.4462012  13.5194304  39.6265494  66.3528874   8.6728527  54.7590589
  66.1010089   8.3482363  53.8945281  67.3058977   8.7517836  54.7169506
  31.6305550  27.4041464  60.6241905  30.9607275  27.7956345  60.0635683
  31.2562140  26.5658285  60.8949834  18.9334071  71.5976095  15.4497778
  18.5991549  72.4605370  15.6944382  19.8438656  71.6008282  15.7452214
   9.5966705  23.4414103  65.3535531   9.2947253  22.6164582  64.9734106
  10.5293139  23.3022024  65.5179525  40.6140212  13.2978637  32.4726605
  40.4183880  12.5466735  33.0327201  41.3951759  13.0362231  31.9852448
  70.6957819  29.5512535  59.6158885  71.1233928  30.3820231  59.8237437
  70.8935859  29.4049170  58.6908525  21.0474022  50.8306124  51.1948478
  21.0298403  50.2269842  51.9375145  20.5244454  51.5790941  51.4821314
  65.4164735  16.4188583  12.6792908  65.8041779  16.3931949  11.8044996
  65.0260059  17.2904880  12.7427447  62.2958344  51.8350267  30.1804566
  62.5845665  52.7474403  30.1612830  62.3647445  51.5812922  31.1008382
  55.6272840  63.3584213   0.7737552  54.8306704  63.2739067   1.2976815
  56.3244152  63.0339193   1.3437895   8.4598142  49.8606730   8.0041832
   7.9975939  49.0515280   7.7853924   8.0845290  50.1318598   8.8419473
  12.7920063  43.4846022  55.1929652  12.6849230  43.6683752  56.1262357
  13.0428751  44.3254568  54.8105216  36.2818384  45.2841568  15.0668967
  36.1544251  44.3454790  15.2042973  36.9970107  45.3385353  14.4330168
  27.7159047  65.6283379  21.7208314  28.6179543  65.9261751  21.6032362
  27.7449751  64.6923161  21.5227079  68.0082208  53.4752703  26.5456104
  68.2323605  54.1710472  27.1635818  67.8002959  53.9351416  25.7322717
   2.8114078   1.8958862  34.6730447   3.5136459   2.2777564  34.1464806
   2.1057699   1.7308480  34.0476894  21.0229786  36.0363295  66.0541512
  20.8391150  36.8874552  65.6566443  21.7237862  36.2116530  66.6821355
   5.4935050  37.8574872   2.2493210   4.9456325  38.6190724   2.4392103
   5.7985049  37.9993105   1.3531664  25.3325558  43.5989952  21.7248034
  25.8578992  43.6184502  22.5247192  24.6399260  44.2417955  21.8774438
  73.6785597  55.8301687   9.0200549  74.2220515  55.0428534   9.0513617
  73.5888642  56.0223293   8.0866414   8.4273654  66.6050434  20.9551215
   7.7472758  67.1566010  21.3417625   9.2264467  66.8462324  21.4236617
  60.5771081  10.8250530  11.3051212  60.8434598  10.7110793  10.3928173
  61.2421886  11.4035232  11.6783202  38.2094622  45.3259039  23.0118680
  38.8013744  46.0473824  23.2247972  38.6357999  44.5505905  23.3770514
  49.6704435  65.4085302   1.1532258  49.7394037  65.7780409   2.0335302
  49.2129326  66.0797453   0.6468836  80.8354332  18.2009604  44.9690592
  80.3207304  17.5083973  45.3833854  80.1854350  18.8391163  44.6749627
  43.8626766  49.2482328  15.3716826  43.2000875  49.3396330  14.6869528
  44.0936518  48.3194065  15.3590107  61.0892765   9.2109020  19.1555464
  60.4951779   8.9797313  18.4415174  61.9071476   9.4491203  18.7190032
  53.6541168  14.6076591  18.1207943  54.2753855  15.2262313  18.5050166
  52.9353944  15.1551921  17.8047550  33.9161015  39.8322439  19.8704135
  32.9953742  40.0795841  19.7848916  34.0416169  39.1459656  19.2150521
  48.8290348  36.2856724  50.9509873  49.6203362  35.9103300  51.3372409
  48.8145347  35.9453633  50.0564432  12.8689659  52.2260141  19.9536824
  12.7986419  52.0816135  19.0100539  13.6618388  51.7547798  20.2096605
  34.1905379  65.9450150  25.4210067  34.0110588  65.0951433  25.8231759
  33.7082148  66.5717936  25.9602189  71.1783886  74.1059017  17.9126644
  70.3214979  73.6799049  17.9349005  71.0338402  74.9564743  18.3272314
   8.3700832  28.3583262  26.3884794   7.7021798  28.5269024  27.0530974
   8.6488160  27.4573567  26.5521705   7.8561813  45.7074261  34.7675824
   8.7547684  45.4865360  34.5226741   7.7433389  46.6115475  34.4742179
  34.1307902  46.9809246  26.6414618  34.0590906  47.7164841  27.2497725
  33.2343459  46.8295527  26.3419533  62.5946003  65.7210112  14.9336421
  61.9742805  65.5037308  14.2377818  62.4706453  65.0336981  15.5882180
  24.8682332  35.9571409  20.9361982  24.3812847  36.7632747  21.1072540
  25.5466461  36.2149739  20.3120899  70.8817440  49.0820456   7.3304218
  70.4813379  48.9236927   8.1853086  70.6000882  49.9657965   7.0940244
  12.8717911  36.9350982   7.7310520  13.0961025  37.8309202   7.9828805
  13.7150359  36.4874268   7.6620466  41.0918782  72.3899336  64.7424422
  41.7619739  71.7364354  64.5420850  41.4843080  73.2231207  64.4816137
  26.4348817  54.6444082   4.5667866  26.0833979  54.9679613   3.7373257
  27.3831129  54.7414732   4.4792369  63.9292679  66.2371798  55.5900943
  63.6693631  65.4548330  55.1036632  64.3891559  65.8995576  56.3586950
   8.8019927   9.4311383  52.8251171   9.4429859   9.2509844  52.1374380
   8.9500078   8.7452318  53.4761583  43.7537336  58.8360119  29.4640422
  43.3017445  58.3808136  28.7535977  43.2650948  58.5960388  30.2513695
  29.4531345  27.3406935  10.4455137  30.3753161  27.0979357  10.3625810
  29.3962860  27.7791071  11.2945104  64.8682294  68.7884469  36.7168843
  63.9292608  68.7646170  36.5324890  65.0489722  69.7059436  36.9212567
  77.7916247  50.9842539  28.4108782  78.6971605  50.9649611  28.1012583
  77.6310736  51.9033909  28.6245155  30.0597666   4.4248016  11.3026345
  30.4445491   5.2762229  11.5105987  29.7764544   4.0770251  12.1482241
  42.5499620  20.2272846  61.7622247  42.3856165  19.9141123  60.8727622
  43.5038712  20.2712109  61.8282583  22.6212597  39.3497181  13.5348475
  22.9815650  40.1244354  13.1033051  22.1933126  39.6903801  14.3203688
   4.0187834  24.4864375   5.7467425   3.2765148  24.1018684   6.2129760
   4.6804331  24.6266849   6.4240777   7.6121481  10.0315430  36.1088740
   7.7887829   9.1591933  36.4610731   8.0534013  10.6279089  36.7137491
  15.6907547  36.3215184  47.1391296  15.9557438  36.0251212  46.2684059
  16.4147985  36.0647964  47.7101707  64.5332958  39.1637184  52.4220407
  64.7951092  39.2413475  53.3394610  65.0682964  39.8123600  51.9645798
  68.4805812  29.4906523  38.0995857  68.7325813  28.6653569  38.5138499
  67.5257577  29.5094015  38.1643450  12.3853715  12.3559620  63.3283439
  12.2594460  11.4074614  63.3553117  11.9040449  12.6831772  64.0882684
  11.1202168  41.5789557  10.5829418  10.9893239  42.3645592  10.0519764
  11.0754824  41.8906164  11.4868772  38.7975049  49.1640806  17.5099981
  39.0731239  49.9222803  16.9948280  39.4828105  49.0612459  18.1703103
  55.2137089  74.0575886  18.5789931  55.2266073  73.1928778  18.9892924
  55.6985474  73.9421844  17.7617764  13.2542141  37.6663353  48.2926070
  14.0761813  37.3946240  47.8842329  13.4746703  38.4704735  48.7627029
  26.9371104  66.8494368   7.4135286  27.8903747  66.9299889   7.4456090
  26.7312670  66.8112898   6.4795023  19.4198664  47.8758242  63.8053128
  19.6390351  48.1908705  62.9284217  20.0707825  47.1976092  63.9857801
  40.6250334  72.2564840  31.8981552  39.9582291  72.9075098  32.1167207
  41.0052156  72.0105934  32.7415013  20.5107284  44.3567276  19.1848385
  21.2946391  44.2604351  19.7256196  20.7582545  43.9887714  18.3365631
  45.5035162  71.5528440  25.7808113  45.0491381  71.1818409  25.0244188
  44.8650885  71.5023088  26.4922094  73.3123151   3.5445220  43.9995575
  73.4528772   4.3974597  44.4106293  74.0823404   3.4157474  43.4457493
  58.6021685  43.6069491  55.9859156  58.6067696  43.7135794  55.0346851
  57.6763173  43.6418345  56.2263631  54.0741998  18.1952002  61.4124903
  54.0447329  17.7152731  62.2401568  53.2441601  18.6709358  61.3818013
  15.7335528  44.9071982  54.5592141  14.8634394  45.2218344  54.8044502
  15.7852372  45.0572302  53.6152589   6.0511682  22.1429641  28.8765717
   6.0956238  22.3045642  29.8189831   5.6983087  21.2563140  28.8019848
  12.9578185  68.7864923  13.2441437  12.4345350  69.1558313  13.9554775
  12.4407077  68.0466652  12.9255748  28.6299634  31.9898224  28.9504004
  29.5407677  31.7409563  28.7931323  28.6034417  32.9291415  28.7681651
  22.4389887  70.2782345  29.9556279  22.1457291  71.1088991  29.5811558
  22.6998353  70.4975653  30.8501029   2.5238617  44.0435984  41.5591847
   2.6691922  44.3273260  42.4617445   2.4011548  43.0964281  41.6226828
  39.6110741  20.5177982   6.8974787  39.7493867  21.4037235   7.2324932
  39.2383615  20.0375945   7.6368862   4.7375401  59.2569544  56.2529313
   5.1141580  60.1360037  56.2121868   3.8664993  59.3514635  55.8674645
  42.1235565  11.4567954  30.7457757  41.3651578  10.9275539  30.4988766
  42.8771297  10.8960540  30.5616069  75.6183602  11.3115933  38.4552323
  74.9843456  11.9395830  38.1089818  75.5511167  11.4026930  39.4057118
  73.9334718  15.6088168   6.8760312  73.0155937  15.6386764   6.6061378
  74.3338577  14.9642856   6.2925035   6.0531831  51.3360739  34.8461890
   6.7046338  51.8634081  34.3838453   6.2381142  50.4364491  34.5765424
  16.7992171   3.8505413  46.6172754  16.7001875   3.7246468  45.6735718
  17.2726639   3.0734255  46.9142007  41.0507154  50.9898472   0.7692318
  41.1255026  50.0557375   0.9643636  41.8947411  51.2219572   0.3819656
  47.6589737  63.0274005  57.6396793  47.6118908  63.9822741  57.5924241
  46.7707501  62.7334995  57.4374085  51.2867389  69.2976279  31.4683043
  52.1268330  69.7354074  31.6054999  50.9586440  69.1268702  32.3511564
   4.2008099  65.5058670   5.6652504   4.5112503  65.0044727   4.9112841
   3.3059490  65.1967859   5.8064097  54.8779879  57.7105935  41.8177974
  54.6155773  58.2886810  42.5341665  55.6615625  58.1218357  41.4529359
  21.8265931  74.6037097  55.0557065  21.4286820  74.0532393  55.7301557
  22.2864548  75.2863903  55.5442810  40.8186088  69.5700498  56.0251379
  40.1840935  69.6168513  55.3099930  41.5846227  69.1459937  55.6383168
  68.9959536  71.0046906  60.4156845  68.3232603  70.4508681  60.0194627
  69.3608532  71.5000434  59.6824002  36.0900187  28.1657195   0.1874876
  36.0640383  28.5321426   1.0713943  35.4569817  27.4480033   0.2070371
  33.9343860  18.8666584  42.8548395  34.7453799  19.1965678  42.4679553
  33.2963850  19.5643093  42.7049386  21.7351683  28.1144144  55.3220617
  21.0933312  27.7149870  55.9091997  21.6855725  27.5916626  54.5217478
  63.6673890  30.4513885  51.5068113  63.8028107  29.7529925  52.1472299
  64.5460759  30.7866378  51.3286197  46.3772488  33.8685584  18.2455194
  46.0561895  33.2167602  17.6223755  45.7929230  33.7874556  18.9993227
  51.7253399  68.6705685   5.2853531  52.4931574  68.1893206   5.5937117
  51.2242222  68.8562679   6.0794747  19.3261917  33.0371382  63.8543513
  18.5696038  33.1211378  63.2740509  20.0749453  33.2753851  63.3076921
  20.5677295  75.2601814  33.8595223  20.4220819  75.7527113  34.6672559
  21.1211014  75.8315754  33.3270550  39.4919833   3.8827517  64.7237397
  40.2872475   3.6150410  64.2631751  39.8058422   4.4196417  65.4513899
  12.3091634  12.4461605  51.9673442  12.8005107  13.2429459  52.1672141
  12.5947197  11.8163254  52.6291561  16.0101755   5.0333216  38.7864840
  15.7971247   5.9617903  38.6927497  15.1807316   4.5806458  38.6337196
   9.2422756  17.9625656  47.4733757   8.5977372  17.7987292  48.1618225
   9.6891936  17.1238425  47.3591816   2.4709566   3.7711909  52.1656394
   2.9345210   4.5676949  51.9069552   3.1637104   3.1256535  52.3056709
  13.1612023  26.7427780  60.0091016  12.3757180  26.6386225  59.4720721
  13.8592585  26.9242289  59.3798017   5.2114638  31.0014250  64.8499901
   5.3782996  30.0588801  64.8467914   6.0822328  31.3987543  64.8611192
  65.2851979  22.0675571   8.7140036  64.3567554  22.0382983   8.4829795
  65.3633396  22.8229625   9.2966527  10.9553202  20.1409628  48.4250736
  10.4653891  19.5217230  47.8840196  11.7695721  20.2875759  47.9436898
  78.7179186  12.9726984  60.6733471  78.6891510  12.0178702  60.6124466
  78.2708909  13.1738379  61.4955031  17.7736481  43.0735686  52.9325091
  18.1206711  43.8955214  52.5858294  17.8917178  43.1443217  53.8797605
  13.1322002  42.3612547  35.0028896  13.1092954  43.1286287  34.4311810
  12.3868811  42.4790287  35.5918384  77.5551138  73.2959647  37.3110377
  78.3868609  73.0358834  36.9150745  77.6193438  73.0002947  38.2191598
  35.8270888  69.3029566  46.6242516  36.5338771  69.1559405  47.2527956
  35.3269480  70.0314088  46.9922888  58.3471634  12.9753067  48.5157918
  57.8336086  13.1040766  49.3132328  57.8764926  12.2943737  48.0351376
  79.5736386  38.7533810  65.4086496  80.2903249  39.1743948  65.8833511
  79.9390461  37.9192450  65.1138141  11.8745458  34.6632218  22.6323462
  12.7810943  34.8576212  22.3944187  11.8943822  34.5551753  23.5832214
  45.8433104  15.2748716   9.0127677  46.5347099  14.7905552   9.4640326
  45.5653381  14.6926081   8.3057106   8.0073611  65.4153581  38.3238708
   8.8653294  65.4044957  37.8996050   7.6243083  66.2544675  38.0681383
  69.9683275  47.4018767  49.2421174  70.6772210  47.0664027  49.7908973
  69.2858829  47.6580431  49.8625051  53.5067789   8.5750777   2.9423341
  53.0224387   9.3299110   3.2768053  52.9084365   8.1638248   2.3185636
  72.5078704  43.4706881  52.8526937  72.9320552  44.3283655  52.8263485
  73.1782915  42.8824808  53.2002317  56.7263447  28.1867602  58.9640849
  56.3038308  28.5995438  59.7172915  57.6224612  28.0177405  59.2550140
  34.3000855  16.2976792  36.2028348  33.8508489  15.8946516  36.9457924
  34.4301178  17.2084810  36.4669597
  81.2983459  81.2983459  81.2983459 109.4712190 109.4712190 109.4712190
